/src/tsommerfeld/qchem/exe/qcprog.exe .cap.inp.9416.qcin.1 /src/jdavis/qchem.scratch/qchem9416/

                  Welcome to Q-Chem
     A Quantum Leap Into The Future Of Chemistry


 Q-Chem 5.4 (devel), Q-Chem, Inc., Pleasanton, CA (2021)

 E. Epifanovsky,  A. T. B. Gilbert,  Xintian Feng,  Joonho Lee,  Yuezhi Mao,  
 N. Mardirossian,  P. Pokhilko,  A. White,  M. Wormit,  M. P. Coons,  
 A. L. Dempwolff,  Zhengting Gan,  D. Hait,  P. R. Horn,  L. D. Jacobson,  
 I. Kaliman,  J. Kussmann,  A. W. Lange,  Ka Un Lao,  D. S. Levine,  Jie Liu,  
 S. C. McKenzie,  A. F. Morrison,  K. Nanda,  F. Plasser,  D. R. Rehn,  
 M. L. Vidal,  Zhi-Qiang You,  Ying Zhu,  B. Alam,  B. Albrecht,  
 A. Aldossary,  E. Alguire,  J. H. Andersen,  D. Barton,  K. Begam,  A. Behn,  
 Y. A. Bernard,  E. J. Berquist,  H. Burton,  A. Carreras,  K. Carter-Fenk,  
 R. Chakraborty,  A. D. Chien,  K. D. Closser,  V. Cofer-Shabica,  
 S. Dasgupta,  Jia Deng,  M. de Wergifosse,  M. Diedenhofen,  Hainam Do,  
 S. Ehlert,  Po-Tung Fang,  S. Fatehi,  Qingguo Feng,  T. Friedhoff,  
 J. Gayvert,  Qinghui Ge,  G. Gidofalvi,  M. Goldey,  J. Gomes,  
 C. Gonzalez-Espinoza,  S. Gulania,  A. Gunina,  M. W. D. Hanson-Heine,  
 P. H. P. Harbach,  A. W. Hauser,  M. F. Herbst,  M. Hernandez Vera,  
 M. Hodecker,  Z. C. Holden,  S. Houck,  Xunkun Huang,  Kerwin Hui,  
 B. C. Huynh,  M. Ivanov,  Hyunjun Ji,  Hanjie Jiang,  B. Kaduk,  S. Kaehler,  
 K. Khistyaev,  Jaehoon Kim,  P. Klunzinger,  Z. Koczor-Benda,  
 Joong Hoon Koh,  D. Kosenkov,  L. Koulias,  T. Kowalczyk,  C. M. Krauter,  
 K. Kue,  A. Kunitsa,  T. Kus,  A. Landau,  K. V. Lawler,  D. Lefrancois,  
 S. Lehtola,  Rain Li,  Yi-Pei Li,  Jiashu Liang,  M. Liebenthal,  
 Hung-Hsuan Lin,  You-Sheng Lin,  Fenglai Liu,  Kuan-Yu Liu,  
 M. Loipersberger,  A. Luenser,  A. Manjanath,  P. Manohar,  E. Mansoor,  
 S. F. Manzer,  Shan-Ping Mao,  A. V. Marenich,  T. Markovich,  S. Mason,  
 S. A. Maurer,  P. F. McLaughlin,  M. F. S. J. Menger,  J.-M. Mewes,  
 S. A. Mewes,  P. Morgante,  J. W. Mullinax,  K. J. Oosterbaan,  G. Paran,  
 Alexander C. Paul,  Suranjan K. Paul,  F. Pavosevic,  Zheng Pei,  S. Prager,  
 E. I. Proynov,  E. Ramos,  B. Rana,  A. E. Rask,  A. Rettig,  R. M. Richard,  
 F. Rob,  E. Rossomme,  T. Scheele,  M. Scheurer,  M. Schneider,  
 N. Sergueev,  S. M. Sharada,  W. Skomorowski,  D. W. Small,  C. J. Stein,  
 Yu-Chuan Su,  E. J. Sundstrom,  Zhen Tao,  J. Thirman,  T. Tsuchimochi,  
 N. M. Tubman,  S. P. Veccham,  O. Vydrov,  J. Wenzel,  J. Witte,  A. Yamada,  
 Kun Yao,  S. Yeganeh,  S. R. Yost,  A. Zech,  Igor Ying Zhang,  Xing Zhang,  
 Yu Zhang,  D. Zuev,  A. Aspuru-Guzik,  A. T. Bell,  N. A. Besley,  
 K. B. Bravaya,  B. R. Brooks,  D. Casanova,  Jeng-Da Chai,  S. Coriani,  
 C. J. Cramer,  A. E. DePrince, III,  R. A. DiStasio Jr.,  A. Dreuw,  
 B. D. Dunietz,  T. R. Furlani,  W. A. Goddard III,  S. Grimme,  
 S. Hammes-Schiffer,  T. Head-Gordon,  W. J. Hehre,  Chao-Ping Hsu,  
 T.-C. Jagau,  Yousung Jung,  A. Klamt,  Jing Kong,  D. S. Lambrecht,  
 WanZhen Liang,  N. J. Mayhall,  C. W. McCurdy,  J. B. Neaton,  
 C. Ochsenfeld,  J. A. Parkhill,  R. Peverati,  V. A. Rassolov,  Yihan Shao,  
 L. V. Slipchenko,  T. Stauch,  R. P. Steele,  J. E. Subotnik,  
 A. J. W. Thom,  A. Tkatchenko,  D. G. Truhlar,  T. Van Voorhis,  
 T. A. Wesolowski,  K. B. Whaley,  H. L. Woodcock III,  P. M. Zimmerman,  
 S. Faraji,  P. M. W. Gill,  M. Head-Gordon,  J. M. Herbert,  A. I. Krylov

 Additional authors for Version 5.4.1: 
 S. Kotaru,  Shaozhi Li,  Xiangyuan Li,  F. Matz,  A. Molle,  Haisheng Ren,  
 Yingli Su,  Hung-Yi Tsai,  C. Utku,  Fang Wang

 Contributors to earlier versions of Q-Chem not listed above: 
 R. D. Adamson,  B. Austin,  R. Baer,  J. Baker,  G. J. O. Beran,  
 K. Brandhorst,  S. T. Brown,  E. F. C. Byrd,  A. K. Chakraborty,  
 G. K. L. Chan,  Chun-Min Chang,  Yunqing Chen,  C.-L. Cheng,  
 Siu Hung Chien,  D. M. Chipman,  D. L. Crittenden,  H. Dachsel,  
 R. J. Doerksen,  A. D. Dutoi,  R. G. Edgar,  J. Fosso-Tande,  
 L. Fusti-Molnar,  D. Ghosh,  A. Ghysels,  A. Golubeva-Zadorozhnaya,  
 J. Gonthier,  M. S. Gordon,  S. R. Gwaltney,  G. Hawkins,  J. E. Herr,  
 A. Heyden,  S. Hirata,  E. G. Hohenstein,  G. Kedziora,  F. J. Keil,  
 C. Kelley,  Jihan Kim,  R. A. King,  R. Z. Khaliullin,  P. P. Korambath,  
 W. Kurlancheek,  A. Laurent,  A. M. Lee,  M. S. Lee,  S. V. Levchenko,  
 Ching Yeh Lin,  D. Liotard,  E. Livshits,  R. C. Lochan,  I. Lotan,  
 L. A. Martinez-Martinez,  P. E. Maslen,  N. Nair,  D. P. O'Neill,  
 D. Neuhauser,  E. Neuscamman,  C. M. Oana,  R. Olivares-Amaya,  R. Olson,  
 T. M. Perrine,  B. Peters,  P. A. Pieniazek,  A. Prociuk,  Y. M. Rhee,  
 J. Ritchie,  M. A. Rohrdanz,  E. Rosta,  N. J. Russ,  H. F. Schaefer III,  
 M. W. Schmidt,  N. E. Schultz,  S. Sharma,  N. Shenvi,  C. D. Sherrill,  
 A. C. Simmonett,  A. Sodt,  T. Stein,  D. Stuck,  K. S. Thanthiriwatte,  
 V. Vanovschi,  L. Vogt,  Tao Wang,  A. Warshel,  M. A. Watson,  
 C. F. Williams,  Q. Wu,  X. Xu,  Jun Yang,  W. Zhang,  Yan Zhao

 Please cite Q-Chem as follows:
 Y. Shao et al., Mol. Phys. 113, 184-215 (2015)
 DOI: 10.1080/00268976.2014.952696

 Q-Chem 5.4.1 for Intel X86 EM64T Linux

 Parts of Q-Chem use Armadillo 9.900.5 (Nocturnal Misbehaviour).
 http://arma.sourceforge.net/

 Q-Chem begins on Thu Apr 28 19:15:47 2022  

 Host: node02
0

     Scratch files written to /src/jdavis/qchem.scratch/qchem9416//
 Processing $rem in /src/tsommerfeld/qchem/config/preferences:
 Processing $rem in /home/jdavis/.qchemrc:
 Core orbitals will be frozen

 Checking the input file for inconsistencies... 	...done.

--------------------------------------------------------------
User input:
--------------------------------------------------------------
$comment
	Ethylene CAP-EOM-CCSD
	Basis: C/7H: jun-TZ+4p1d, H: TZ
$end

$molecule
-1 1
C        -0.6645000000    0.0000000000   -0.1764707059
C         0.6645000000    0.0000000000   -0.1764707059
H        -1.1590800000    0.0000000000    0.7858782941
H         1.1590800000    0.0000000000    0.7858782941
H        -1.1590800000    0.0000000000   -1.1388187059
H         1.1590800000    0.0000000000   -1.1388187059
H         0.0000000000    0.0000000000  -10.1764707059
$end


$rem
	method eom-mp2
	basis gen
        EE_STATES [0,10,0,0]
	complex_ccman 1
	xc_grid 000250000974
	scf_convergence 8
	thresh 14
	mem_total 95000
	threads 12
$end

$complex_ccman
	cap_type 2 
	proj_cap 3
	cap_eta 300 
	cap_x 3500
$end

$basis
C     1
S    8   1.00
   8236.0000000              0.0005310
   1235.0000000              0.0041080
    280.8000000              0.0210870
     79.2700000              0.0818530
     25.5900000              0.2348170
      8.9970000              0.4344010
      3.3190000              0.3461290
      0.3643000             -0.0089830
S    1   1.00
      0.9059000              1.0000000
S    8   1.00
   8236.0000000             -0.0001130
   1235.0000000             -0.0008780
    280.8000000             -0.0045400
     79.2700000             -0.0181330
     25.5900000             -0.0557600
      8.9970000             -0.1268950
      3.3190000             -0.1703520
      0.3643000              0.5986840
S    1   1.00
      0.1285000              1.0000000
S    1   1.00
      0.0440200              1.0000000
P    3   1.00
     18.7100000              0.0140310
      4.1330000              0.0868660
      1.2000000              0.2902160
P    1   1.00
      0.3827000              1.0000000
P    1   1.00
      0.1209000              1.0000000
P    1   1.00
      0.0356900              1.0000000
P    1   1.0
      0.0237933 1.0
P    1   1.0
      0.0158622 1.0
P    1   1.0
      0.0105748 1.0
P    1   1.0
      0.0070498 1.0
D    1   1.00
      1.0970000              1.0000000
D    1   1.00
      0.3180000              1.0000000
D    1   1.00
      0.1000000              1.0000000
D    1   1.00
      0.0500000 1.0
F    1   1.00
      0.7610000              1.0000000
****
C     2
S    8   1.00
   8236.0000000              0.0005310
   1235.0000000              0.0041080
    280.8000000              0.0210870
     79.2700000              0.0818530
     25.5900000              0.2348170
      8.9970000              0.4344010
      3.3190000              0.3461290
      0.3643000             -0.0089830
S    1   1.00
      0.9059000              1.0000000
S    8   1.00
   8236.0000000             -0.0001130
   1235.0000000             -0.0008780
    280.8000000             -0.0045400
     79.2700000             -0.0181330
     25.5900000             -0.0557600
      8.9970000             -0.1268950
      3.3190000             -0.1703520
      0.3643000              0.5986840
S    1   1.00
      0.1285000              1.0000000
S    1   1.00
      0.0440200              1.0000000
P    3   1.00
     18.7100000              0.0140310
      4.1330000              0.0868660
      1.2000000              0.2902160
P    1   1.00
      0.3827000              1.0000000
P    1   1.00
      0.1209000              1.0000000
P    1   1.00
      0.0356900              1.0000000
P    1   1.0
      0.0237933 1.0
P    1   1.0
      0.0158622 1.0
P    1   1.0
      0.0105748 1.0
P    1   1.0
      0.0070498 1.0
D    1   1.00
      1.0970000              1.0000000
D    1   1.00
      0.3180000              1.0000000
D    1   1.00
      0.1000000              1.0000000
D    1   1.00
      0.0500000 1.0
F    1   1.00
      0.7610000              1.0000000
****
H     3
cc-pVTZ
****
H     4
cc-pVTZ
****
H     5
cc-pVTZ
****
H     6
cc-pVTZ
****
H     7
aug-cc-pVTZ
****
$end
--------------------------------------------------------------
 ----------------------------------------------------------------
             Standard Nuclear Orientation (Angstroms)
    I     Atom           X                Y                Z
 ----------------------------------------------------------------
    1      C      -0.6645000000     0.0000000000    -0.5882351765
    2      C       0.6645000000    -0.0000000000    -0.5882351765
    3      H      -1.1590800000     0.0000000000    -1.5505841765
    4      H       1.1590800000    -0.0000000000    -1.5505841765
    5      H      -1.1590800000     0.0000000000     0.3741128235
    6      H       1.1590800000    -0.0000000000     0.3741128235
    7      H       0.0000000000     0.0000000000     9.4117648235
 ----------------------------------------------------------------
 Molecular Point Group                 C2v   NOp =  4
 Largest Abelian Subgroup              C2v   NOp =  4
 Nuclear Repulsion Energy =          34.43499495 hartrees
 There are        9 alpha and        9 beta electrons
 Requested basis set is non-standard
 There are 66 shells and 182 basis functions
 Total memory of 95000 MB is distributed as follows: 
   MEM_STATIC is set to 192 MB
   QALLOC/CCMAN JOB total memory use is  94808 MB
 Warning: actual memory use might exceed 95000 MB

 Total QAlloc Memory Limit  95000 MB
 Mega-Array Size       188 MB
 MEM_STATIC part       192 MB

                       Distance Matrix (Angstroms)
             C (  1)   C (  2)   H (  3)   H (  4)   H (  5)   H (  6)
   C (  2)  1.329000
   H (  3)  1.082000  2.061931
   H (  4)  2.061931  1.082000  2.318160
   H (  5)  1.082000  2.061931  1.924697  3.013026
   H (  6)  2.061931  1.082000  3.013026  1.924697  2.318160
   H (  7) 10.022054 10.022054 11.023455 11.023455  9.111675  9.111675

 
 A cutoff of  1.0D-14 yielded   1973 shell pairs
 There are     15241 function pairs (     18646 Cartesian)
 Smallest overlap matrix eigenvalue = 2.35E-06

 Scale SEOQF with 1.000000e-02/1.000000e-02/1.000000e-02

 Standard Electronic Orientation quadrupole field applied
 Nucleus-field energy     =    -0.0000000010 hartrees
 ================ Generating on-the-fly SAD Guess ================
Attempting to make child job directory: /src/jdavis/qchem.scratch/qchem9416//Frg1/
Attempting to make child job directory: /src/jdavis/qchem.scratch/qchem9416//Frg2/
Creating input file /src/jdavis/qchem.scratch/qchem9416/Frg1.input
using default PutDataFrgm: nothing
calling putenv with: QCSCRATCH=/src/jdavis/qchem.scratch/qchem9416/ 
Spawning Job For Fragment 0
Done Job For Fragment 0
calling putenv with: QCSCRATCH=/src/jdavis/qchem.scratch 
calling putenv with: QCTHREADS=1 
Creating input file /src/jdavis/qchem.scratch/qchem9416/Frg2.input
using default PutDataFrgm: nothing
calling putenv with: QCSCRATCH=/src/jdavis/qchem.scratch/qchem9416/ 
Spawning Job For Fragment 1
Done Job For Fragment 1
calling putenv with: QCSCRATCH=/src/jdavis/qchem.scratch 
calling putenv with: QCTHREADS=1 
 Time for running child jobs:  CPU 2.12 s  wall 1.99 s
 ============= Method Specific SAD Guess Constructed =============
 Guess from on-the-fly superposition of atomic densities
 Warning: Energy on first SCF cycle will be non-variational

 -----------------------------------------------------------------------
  General SCF calculation program by
  Eric Jon Sundstrom, Paul Horn, Yuezhi Mao, Dmitri Zuev, Alec White,
  David Stuck, Shaama M.S., Shane Yost, Joonho Lee, David Small,
  Daniel Levine, Susi Lehtola, Hugh Burton, Evgeny Epifanovsky,
  Bang C. Huynh
 -----------------------------------------------------------------------
 Hartree-Fock
 using 12 threads for integral computing
 -------------------------------------------------------
 OpenMP Integral computing Module                
 Release: version 1.0, May 2013, Q-Chem Inc. Pittsburgh 
 -------------------------------------------------------
 A restricted SCF calculation will be
 performed using DIIS
 SCF converges when DIIS error is below 1.0e-08
 ---------------------------------------
  Cycle       Energy         DIIS error
 ---------------------------------------
    1     -78.8073572393      2.74e-02  
    2     -78.4815869911      2.47e-03  
    3     -78.5307843346      5.80e-04  
    4     -78.5331143849      1.99e-04  
    5     -78.5333757345      3.46e-05  
    6     -78.5333922296      6.98e-06  
    7     -78.5333942875      1.66e-06  
    8     -78.5333944623      4.13e-07  
    9     -78.5333944754      1.17e-07  
   10     -78.5333944764      2.69e-08  
   11     -78.5333944782      5.05e-09  Convergence criterion met
 ---------------------------------------
 SCF time:   CPU 38.97s  wall 3.00s 
 SCF   energy in the final basis set =      -78.5333944782
 Total energy in the final basis set =      -78.5333944782
 CAP matrix will be calculated and saved for subsequent use
 mp2 is not implemented in computing transition properties!


 ------------------------------------------------------------------------------

   CCMAN2: suite of methods based on coupled cluster
           and equation of motion theories.

   Components:
   * libvmm-1.3-trunk
     by Evgeny Epifanovsky, Ilya Kaliman.
   * libtensor-2.5-trunk
     by Evgeny Epifanovsky, Michael Wormit, Dmitry Zuev, Sam Manzer, 
        Ilya Kaliman.
   * libcc-2.5-trunk
     by Evgeny Epifanovsky, Arik Landau, Tomasz Kus, Kirill Khistyaev, 
        Dmitry Zuev, Prashant Manohar, Xintian Feng, Anna Krylov, 
        Matthew Goldey, Alec White, Thomas Jagau, Kaushik Nanda, 
        Anastasia Gunina, Alexander Kunitsa, Joonho Lee.

   CCMAN original authors:
   Anna I. Krylov, C. David Sherrill, Steven R. Gwaltney,
   Edward F. C. Byrd (2000)
   Sergey V. Levchenko, Lyudmila V. Slipchenko, Tao Wang,
   Ana-Maria C. Cristian (2003)
   Piotr A. Pieniazek, C. Melania Oana, Evgeny Epifanovsky (2007)
   Prashant Manohar (2009)

 ------------------------------------------------------------------------------


 Allocating and initializing 94808MB of RAM...
 Calculation will run on 12 cores.

 
 Alpha MOs, Restricted
 -- Occupied --                  
-11.175 -11.173  -0.986  -0.728  -0.607  -0.515  -0.463  -0.324
  1 A1    1 B1    2 A1    2 B1    3 A1    4 A1    3 B1    1 B2                 
 -0.029
  5 A1                                                                         
 -- Virtual --                   
  0.045   0.053   0.054   0.054   0.068   0.072   0.076   0.080
  4 B1    2 B2    6 A1    1 A2    5 B1    6 B1    7 A1    3 B2                 
  0.085   0.085   0.094   0.096   0.106   0.112   0.125   0.129
  8 A1    2 A2    9 A1    7 B1   10 A1    8 B1    4 B2    3 A2                 
  0.131   0.140   0.144   0.177   0.178   0.187   0.194   0.202
 11 A1    9 B1   12 A1   10 B1    4 A2   13 A1    5 B2   14 A1                 
  0.203   0.205   0.210   0.223   0.237   0.238   0.240   0.245
  6 B2   15 A1   11 B1   12 B1    5 A2   13 B1   16 A1    6 A2                 
  0.249   0.287   0.292   0.299   0.309   0.329   0.348   0.353
  7 B2   14 B1   17 A1   15 B1    7 A2   18 A1   19 A1    8 B2                 
  0.354   0.381   0.403   0.408   0.429   0.444   0.455   0.487
 16 B1   20 A1    8 A2   17 B1   21 A1    9 B2   18 B1   22 A1                 
  0.496   0.528   0.539   0.541   0.549   0.561   0.625   0.643
 23 A1   19 B1   20 B1   24 A1    9 A2   10 B2   21 B1   22 B1                 
  0.687   0.709   0.751   0.760   0.812   0.818   0.822   0.845
 10 A2   25 A1   26 A1   23 B1   11 B2   27 A1   28 A1   24 B1                 
  0.863   0.889   0.917   0.925   1.031   1.058   1.076   1.116
 29 A1   25 B1   11 A2   30 A1   26 B1   27 B1   12 B2   13 B2                 
  1.117   1.118   1.135   1.193   1.197   1.204   1.256   1.259
 28 B1   31 A1   14 B2   32 A1   12 A2   29 B1   13 A2   33 A1                 
  1.283   1.316   1.333   1.429   1.476   1.559   1.575   1.606
 15 B2   16 B2   30 B1   34 A1   31 B1   14 A2   35 A1   36 A1                 
  1.678   1.717   1.737   1.789   1.918   2.058   2.083   2.155
 37 A1   32 B1   15 A2   33 B1   34 B1   38 A1   35 B1   36 B1                 
  2.632   2.789   2.800   2.814   2.834   2.856   2.920   2.954
 17 B2   39 A1   40 A1   41 A1   16 A2   42 A1   43 A1   37 B1                 
  2.972   3.049   3.050   3.124   3.158   3.189   3.217   3.282
 18 B2   19 B2   38 B1   39 B1   20 B2   44 A1   45 A1   17 A2                 
  3.320   3.321   3.344   3.516   3.522   3.537   3.559   3.569
 18 A2   21 B2   46 A1   40 B1   47 A1   19 A2   20 A2   41 B1                 
  3.584   3.608   3.670   3.698   3.715   3.844   3.844   3.844
 42 B1   43 B1   22 B2   23 B2   48 A1   24 B2   44 B1   49 A1                 
  3.844   3.844   3.851   3.878   4.034   4.061   4.078   4.083
 21 A2   50 A1   51 A1   45 B1   22 A2   46 B1   47 B1   52 A1                 
  4.114   4.120   4.171   4.275   4.284   4.284   4.285   4.341
 25 B2   53 A1   23 A2   48 B1   26 B2   49 B1   54 A1   55 A1                 
  4.353   4.403   4.408   4.421   4.650   4.669   4.720   4.758
 27 B2   50 B1   24 A2   28 B2   51 B1   56 A1   25 A2   57 A1                 
  4.851   4.909   5.000   5.104   5.143   5.219   5.278   5.367
 52 B1   26 A2   29 B2   58 A1   53 B1   59 A1   30 B2   54 B1                 
  5.419   5.481   5.537   5.596   5.730   5.778   6.165   6.241
 60 A1   27 A2   55 B1   28 A2   61 A1   62 A1   56 B1   57 B1                 
  6.372   6.719   6.951  12.980  15.423
 63 A1   58 B1   59 B1   64 A1   60 B1                                         
 
 Beta MOs, Restricted
 -- Occupied --                  
-11.175 -11.173  -0.986  -0.728  -0.607  -0.515  -0.463  -0.324
  1 A1    1 B1    2 A1    2 B1    3 A1    4 A1    3 B1    1 B2                 
 -0.029
  5 A1                                                                         
 -- Virtual --                   
  0.045   0.053   0.054   0.054   0.068   0.072   0.076   0.080
  4 B1    2 B2    6 A1    1 A2    5 B1    6 B1    7 A1    3 B2                 
  0.085   0.085   0.094   0.096   0.106   0.112   0.125   0.129
  8 A1    2 A2    9 A1    7 B1   10 A1    8 B1    4 B2    3 A2                 
  0.131   0.140   0.144   0.177   0.178   0.187   0.194   0.202
 11 A1    9 B1   12 A1   10 B1    4 A2   13 A1    5 B2   14 A1                 
  0.203   0.205   0.210   0.223   0.237   0.238   0.240   0.245
  6 B2   15 A1   11 B1   12 B1    5 A2   13 B1   16 A1    6 A2                 
  0.249   0.287   0.292   0.299   0.309   0.329   0.348   0.353
  7 B2   14 B1   17 A1   15 B1    7 A2   18 A1   19 A1    8 B2                 
  0.354   0.381   0.403   0.408   0.429   0.444   0.455   0.487
 16 B1   20 A1    8 A2   17 B1   21 A1    9 B2   18 B1   22 A1                 
  0.496   0.528   0.539   0.541   0.549   0.561   0.625   0.643
 23 A1   19 B1   20 B1   24 A1    9 A2   10 B2   21 B1   22 B1                 
  0.687   0.709   0.751   0.760   0.812   0.818   0.822   0.845
 10 A2   25 A1   26 A1   23 B1   11 B2   27 A1   28 A1   24 B1                 
  0.863   0.889   0.917   0.925   1.031   1.058   1.076   1.116
 29 A1   25 B1   11 A2   30 A1   26 B1   27 B1   12 B2   13 B2                 
  1.117   1.118   1.135   1.193   1.197   1.204   1.256   1.259
 28 B1   31 A1   14 B2   32 A1   12 A2   29 B1   13 A2   33 A1                 
  1.283   1.316   1.333   1.429   1.476   1.559   1.575   1.606
 15 B2   16 B2   30 B1   34 A1   31 B1   14 A2   35 A1   36 A1                 
  1.678   1.717   1.737   1.789   1.918   2.058   2.083   2.155
 37 A1   32 B1   15 A2   33 B1   34 B1   38 A1   35 B1   36 B1                 
  2.632   2.789   2.800   2.814   2.834   2.856   2.920   2.954
 17 B2   39 A1   40 A1   41 A1   16 A2   42 A1   43 A1   37 B1                 
  2.972   3.049   3.050   3.124   3.158   3.189   3.217   3.282
 18 B2   19 B2   38 B1   39 B1   20 B2   44 A1   45 A1   17 A2                 
  3.320   3.321   3.344   3.516   3.522   3.537   3.559   3.569
 18 A2   21 B2   46 A1   40 B1   47 A1   19 A2   20 A2   41 B1                 
  3.584   3.608   3.670   3.698   3.715   3.844   3.844   3.844
 42 B1   43 B1   22 B2   23 B2   48 A1   24 B2   44 B1   49 A1                 
  3.844   3.844   3.851   3.878   4.034   4.061   4.078   4.083
 21 A2   50 A1   51 A1   45 B1   22 A2   46 B1   47 B1   52 A1                 
  4.114   4.120   4.171   4.275   4.284   4.284   4.285   4.341
 25 B2   53 A1   23 A2   48 B1   26 B2   49 B1   54 A1   55 A1                 
  4.353   4.403   4.408   4.421   4.650   4.669   4.720   4.758
 27 B2   50 B1   24 A2   28 B2   51 B1   56 A1   25 A2   57 A1                 
  4.851   4.909   5.000   5.104   5.143   5.219   5.278   5.367
 52 B1   26 A2   29 B2   58 A1   53 B1   59 A1   30 B2   54 B1                 
  5.419   5.481   5.537   5.596   5.730   5.778   6.165   6.241
 60 A1   27 A2   55 B1   28 A2   61 A1   62 A1   56 B1   57 B1                 
  6.372   6.719   6.951  12.980  15.423
 63 A1   58 B1   59 B1   64 A1   60 B1                                         

 Occupation and symmetry of molecular orbitals

 Point group: C2v (4 irreducible representations).

                           A1   A2   B1   B2    All 
 ----------------------------------------------------
 All molecular orbitals:
  - Alpha                  64   28   60   30    182 
  - Beta                   64   28   60   30    182 
 ----------------------------------------------------
 Alpha orbitals:
  - Frozen occupied        1    0    1    0     2   
  - Active occupied        4    0    2    1     7   
  - Active virtual         59   28   57   29    173 
  - Frozen virtual         0    0    0    0     0   
 ----------------------------------------------------
 Beta orbitals:
  - Frozen occupied        1    0    1    0     2   
  - Active occupied        4    0    2    1     7   
  - Active virtual         59   28   57   29    173 
  - Frozen virtual         0    0    0    0     0   
 ----------------------------------------------------

 Import integrals:   CPU 0.00 s  wall 0.00 s

 Import integrals:   CPU 84.13 s  wall 8.00 s

 Computing CCSD intermediates for later calculations in double precision
 Finished.

 MP2 amplitudes:   CPU 23.85 s  wall 4.09 s

        Solving for EOMEE-CCSD A2 singlet states.

Running a double precision version
        EOMEE-CCSD/MP2 right amplitudes will be solved using Davidson.
        Amplitudes will be solved using standard  algorithm.
     Hard-coded thresholds: 
     LinDepThresh=1.00e-15  NormThresh=1.00e-06  ReorthogonThresh=1.00e-02

      Roots     MaxVec    MaxIter   Precond   Conv      Shift    
      10        120       60        1         1.00e-05  0.00e+00  
 ------------------------------------------------------------------------------
      Iter ConvRoots NVecs ResNorm Current eigenvalues (eV)
 ------------------------------------------------------------------------------
      0    0      10    5.74e-02   1.9076   2.6226   3.7492   5.2216   6.6810   6.9264   8.5579   10.6933   11.2876   11.3420   
      1    0      20    3.25e-02   0.4928   1.2116   2.3377   3.7275   5.3218   5.5226   7.1268   9.3435   9.9850   9.9920   
      2    0      30    1.59e-03   0.4201   1.1167   2.0615   2.9378   4.6824   5.1215   6.8698   8.8692   9.0133   9.5143   
      3    2      40    1.58e-03   0.4180*  1.1117*  2.0161   2.8584   4.6362   5.0923   6.8494   8.4107   8.9073   9.2265   
      4    4      48    2.32e-04   0.4180*  1.1116*  2.0150*  2.8562   4.6348   5.0893*  6.8479   8.1701   8.8923   9.1093   
      5    7      54    2.34e-04   0.4180*  1.1116*  2.0148*  2.8557*  4.6341*  5.0893*  6.8473*  8.0966   8.8793   9.0561   
      6    7      57    7.90e-05   0.4180*  1.1116*  2.0148*  2.8556*  4.6338*  5.0893*  6.8470*  8.0561   8.8685   9.0242   
      7    7      60    5.22e-05   0.4180*  1.1116*  2.0148*  2.8556*  4.6339*  5.0893*  6.8470*  8.0540   8.8507   9.0151   
      8    7      63    6.70e-05   0.4180*  1.1116*  2.0148*  2.8556*  4.6339*  5.0893*  6.8470*  8.0526   8.8191   9.0108   
      9    8      66    4.19e-04   0.4179*  1.1116*  2.0148*  2.8557*  4.6339*  5.0893*  6.8470*  8.0520*  8.7373   8.9907   
      10   8      68    2.86e-04   0.4179*  1.1116*  2.0148*  2.8557*  4.6339*  5.0893*  6.8469*  8.0520*  8.5914   8.9213   
      11   8      70    2.21e-04   0.4179*  1.1116*  2.0148*  2.8557*  4.6339*  5.0893*  6.8469*  8.0520*  8.4649   8.8976   
      12   8      72    1.54e-04   0.4179*  1.1116*  2.0148*  2.8557*  4.6339*  5.0893*  6.8469*  8.0520*  8.3602   8.8834   
      13   8      74    1.30e-04   0.4179*  1.1116*  2.0148*  2.8557*  4.6339*  5.0893*  6.8469*  8.0520*  8.2789   8.8713   
      14   8      76    1.39e-04   0.4179*  1.1116*  2.0148*  2.8557*  4.6339*  5.0893*  6.8469*  8.0520*  8.2070   8.8501   
      15   8      78    1.62e-04   0.4179*  1.1116*  2.0148*  2.8557*  4.6339*  5.0893*  6.8469*  8.0520*  8.1491   8.8070   
      16   8      80    1.10e-04   0.4179*  1.1116*  2.0148*  2.8557*  4.6339*  5.0893*  6.8469*  8.0520*  8.1108   8.7462   
      17   8      82    2.05e-05   0.4179*  1.1116*  2.0148*  2.8557*  4.6339*  5.0893*  6.8469*  8.0520*  8.1009   8.7240   
      18   8      84    5.05e-06   0.4179*  1.1116*  2.0148*  2.8557*  4.6339*  5.0893*  6.8469*  8.0520*  8.0992   8.7196   
      19   10     86    1.80e-06   0.4179*  1.1116*  2.0148*  2.8557*  4.6339*  5.0893*  6.8469*  8.0520*  8.0989*  8.7188*  

     Davidson procedure converged

 EOMEE transition 1/A2
 Total energy = -78.88046288 a.u.  Excitation energy = 0.4179 eV.
 R0^2 = 0.0000  R1^2 = 0.8830  R2^2 = 0.1170  Res^2 = 2.09e-07
 Conv-d = yes

 Amplitude    Transitions between orbitals
  0.6575       5 (A1) A                  ->    1 (A2) A                   
  0.6575       5 (A1) B                  ->    1 (A2) B                   
  0.0956       5 (A1) A                  ->    2 (A2) A                   
  0.0956       5 (A1) B                  ->    2 (A2) B                   

              Summary of significant orbitals:

               Number  Type             Irrep      Energy
               9       Occ  Alpha       5 (A1)     -0.0286
               9       Occ  Beta        5 (A1)     -0.0286
               13      Vir  Alpha       1 (A2)      0.0545
               19      Vir  Alpha       2 (A2)      0.0853
               13      Vir  Beta        1 (A2)      0.0545
               19      Vir  Beta        2 (A2)      0.0853


 EOMEE transition 2/A2
 Total energy = -78.85497263 a.u.  Excitation energy = 1.1116 eV.
 R0^2 = 0.0000  R1^2 = 0.8825  R2^2 = 0.1175  Res^2 = 3.83e-07
 Conv-d = yes

 Amplitude    Transitions between orbitals
  0.6498       5 (A1) A                  ->    2 (A2) A                   
  0.6498       5 (A1) B                  ->    2 (A2) B                   
 -0.0951       5 (A1) A                  ->    1 (A2) A                   
 -0.0951       5 (A1) B                  ->    1 (A2) B                   

              Summary of significant orbitals:

               Number  Type             Irrep      Energy
               9       Occ  Alpha       5 (A1)     -0.0286
               9       Occ  Beta        5 (A1)     -0.0286
               13      Vir  Alpha       1 (A2)      0.0545
               19      Vir  Alpha       2 (A2)      0.0853
               13      Vir  Beta        1 (A2)      0.0545
               19      Vir  Beta        2 (A2)      0.0853


 EOMEE transition 3/A2
 Total energy = -78.82177934 a.u.  Excitation energy = 2.0148 eV.
 R0^2 = 0.0000  R1^2 = 0.8776  R2^2 = 0.1224  Res^2 = 1.99e-07
 Conv-d = yes

 Amplitude    Transitions between orbitals
  0.6003       5 (A1) A                  ->    3 (A2) A                   
  0.6003       5 (A1) B                  ->    3 (A2) B                   
  0.2418       5 (A1) A                  ->    4 (A2) A                   
  0.2418       5 (A1) B                  ->    4 (A2) B                   

              Summary of significant orbitals:

               Number  Type             Irrep      Energy
               9       Occ  Alpha       5 (A1)     -0.0286
               9       Occ  Beta        5 (A1)     -0.0286
               25      Vir  Alpha       3 (A2)      0.1286
               30      Vir  Alpha       4 (A2)      0.1779
               25      Vir  Beta        3 (A2)      0.1286
               30      Vir  Beta        4 (A2)      0.1779


 EOMEE transition 4/A2
 Total energy = -78.79087803 a.u.  Excitation energy = 2.8557 eV.
 R0^2 = 0.0000  R1^2 = 0.8740  R2^2 = 0.1260  Res^2 = 3.03e-07
 Conv-d = yes

 Amplitude    Transitions between orbitals
  0.5686       5 (A1) A                  ->    4 (A2) A                   
  0.5686       5 (A1) B                  ->    4 (A2) B                   
 -0.2622       5 (A1) A                  ->    3 (A2) A                   
 -0.2622       5 (A1) B                  ->    3 (A2) B                   
 -0.1966       5 (A1) A                  ->    5 (A2) A                   
 -0.1966       5 (A1) B                  ->    5 (A2) B                   

              Summary of significant orbitals:

               Number  Type             Irrep      Energy
               9       Occ  Alpha       5 (A1)     -0.0286
               9       Occ  Beta        5 (A1)     -0.0286
               25      Vir  Alpha       3 (A2)      0.1286
               30      Vir  Alpha       4 (A2)      0.1779
               38      Vir  Alpha       5 (A2)      0.2367
               25      Vir  Beta        3 (A2)      0.1286
               30      Vir  Beta        4 (A2)      0.1779
               38      Vir  Beta        5 (A2)      0.2367


 EOMEE transition 5/A2
 Total energy = -78.72552932 a.u.  Excitation energy = 4.6339 eV.
 R0^2 = 0.0000  R1^2 = 0.8757  R2^2 = 0.1243  Res^2 = 2.14e-07
 Conv-d = yes

 Amplitude    Transitions between orbitals
 -0.5929       5 (A1) A                  ->    5 (A2) A                   
 -0.5929       5 (A1) B                  ->    5 (A2) B                   
 -0.2314       5 (A1) A                  ->    4 (A2) A                   
 -0.2314       5 (A1) B                  ->    4 (A2) B                   
  0.1512       5 (A1) A                  ->    6 (A2) A                   
  0.1512       5 (A1) B                  ->    6 (A2) B                   

              Summary of significant orbitals:

               Number  Type             Irrep      Energy
               9       Occ  Alpha       5 (A1)     -0.0286
               9       Occ  Beta        5 (A1)     -0.0286
               30      Vir  Alpha       4 (A2)      0.1779
               38      Vir  Alpha       5 (A2)      0.2367
               41      Vir  Alpha       6 (A2)      0.2449
               30      Vir  Beta        4 (A2)      0.1779
               38      Vir  Beta        5 (A2)      0.2367
               41      Vir  Beta        6 (A2)      0.2449


 EOMEE transition 6/A2
 Total energy = -78.70879282 a.u.  Excitation energy = 5.0893 eV.
 R0^2 = 0.0000  R1^2 = 0.8807  R2^2 = 0.1193  Res^2 = 2.90e-06
 Conv-d = yes

 Amplitude    Transitions between orbitals
 -0.6419       5 (A1) A                  ->    6 (A2) A                   
 -0.6419       5 (A1) B                  ->    6 (A2) B                   
 -0.1604       5 (A1) A                  ->    5 (A2) A                   
 -0.1604       5 (A1) B                  ->    5 (A2) B                   

              Summary of significant orbitals:

               Number  Type             Irrep      Energy
               9       Occ  Alpha       5 (A1)     -0.0286
               9       Occ  Beta        5 (A1)     -0.0286
               38      Vir  Alpha       5 (A2)      0.2367
               41      Vir  Alpha       6 (A2)      0.2449
               38      Vir  Beta        5 (A2)      0.2367
               41      Vir  Beta        6 (A2)      0.2449


 EOMEE transition 7/A2
 Total energy = -78.64420102 a.u.  Excitation energy = 6.8469 eV.
 R0^2 = 0.0000  R1^2 = 0.8781  R2^2 = 0.1219  Res^2 = 9.23e-08
 Conv-d = yes

 Amplitude    Transitions between orbitals
  0.6509       5 (A1) A                  ->    7 (A2) A                   
  0.6509       5 (A1) B                  ->    7 (A2) B                   
  0.0824       5 (A1) A                  ->    5 (A2) A                   
  0.0824       5 (A1) B                  ->    5 (A2) B                   

              Summary of significant orbitals:

               Number  Type             Irrep      Energy
               9       Occ  Alpha       5 (A1)     -0.0286
               9       Occ  Beta        5 (A1)     -0.0286
               38      Vir  Alpha       5 (A2)      0.2367
               46      Vir  Alpha       7 (A2)      0.3086
               38      Vir  Beta        5 (A2)      0.2367
               46      Vir  Beta        7 (A2)      0.3086


 EOMEE transition 8/A2
 Total energy = -78.59991634 a.u.  Excitation energy = 8.0520 eV.
 R0^2 = 0.0000  R1^2 = 0.9498  R2^2 = 0.0502  Res^2 = 5.36e-06
 Conv-d = yes

 Amplitude    Transitions between orbitals
 -0.3550       1 (B2) A                  ->    8 (B1) A                   
 -0.3550       1 (B2) B                  ->    8 (B1) B                   
  0.3549       1 (B2) A                  ->    6 (B1) A                   
  0.3549       1 (B2) B                  ->    6 (B1) B                   
 -0.2383       1 (B2) A                  ->    10 (B1) A                  
 -0.2383       1 (B2) B                  ->    10 (B1) B                  
  0.2283       1 (B2) A                  ->    5 (B1) A                   
  0.2283       1 (B2) B                  ->    5 (B1) B                   
 -0.2056       1 (B2) A                  ->    4 (B1) A                   
 -0.2056       1 (B2) B                  ->    4 (B1) B                   
  0.1981       1 (B2) A                  ->    7 (B1) A                   
  0.1981       1 (B2) B                  ->    7 (B1) B                   
  0.1179       1 (B2) A                  ->    14 (B1) A                  
  0.1179       1 (B2) B                  ->    14 (B1) B                  

              Summary of significant orbitals:

               Number  Type             Irrep      Energy
               8       Occ  Alpha       1 (B2)     -0.3244
               8       Occ  Beta        1 (B2)     -0.3244
               10      Vir  Alpha       4 (B1)      0.0445
               14      Vir  Alpha       5 (B1)      0.0676
               15      Vir  Alpha       6 (B1)      0.0717
               21      Vir  Alpha       7 (B1)      0.0964
               23      Vir  Alpha       8 (B1)      0.1124
               29      Vir  Alpha      10 (B1)      0.1765
               43      Vir  Alpha      14 (B1)      0.2870
               10      Vir  Beta        4 (B1)      0.0445
               14      Vir  Beta        5 (B1)      0.0676
               15      Vir  Beta        6 (B1)      0.0717
               21      Vir  Beta        7 (B1)      0.0964
               23      Vir  Beta        8 (B1)      0.1124
               29      Vir  Beta       10 (B1)      0.1765
               43      Vir  Beta       14 (B1)      0.2870


 EOMEE transition 9/A2
 Total energy = -78.59819251 a.u.  Excitation energy = 8.0989 eV.
 R0^2 = 0.0000  R1^2 = 0.0020  R2^2 = 0.9980  Res^2 = 2.15e-06
 Conv-d = yes

 Amplitude    Transitions between orbitals
  0.3854       5 (A1) A      1 (B2) B    ->    4 (A2) A      2 (B2) B     
 -0.3854       5 (A1) A      1 (B2) B    ->    2 (B2) B      4 (A2) A     
  0.3854       1 (B2) A      5 (A1) B    ->    2 (B2) A      4 (A2) B     
 -0.3854       1 (B2) A      5 (A1) B    ->    4 (A2) B      2 (B2) A     
 -0.3854       5 (A1) B      1 (B2) A    ->    2 (B2) A      4 (A2) B     
  0.3854       5 (A1) B      1 (B2) A    ->    4 (A2) B      2 (B2) A     
 -0.3854       1 (B2) B      5 (A1) A    ->    4 (A2) A      2 (B2) B     
  0.3854       1 (B2) B      5 (A1) A    ->    2 (B2) B      4 (A2) A     
 -0.3123       5 (A1) A      1 (B2) B    ->    5 (A2) A      2 (B2) B     
  0.3123       5 (A1) A      1 (B2) B    ->    2 (B2) B      5 (A2) A     
 -0.3123       1 (B2) A      5 (A1) B    ->    2 (B2) A      5 (A2) B     
  0.3123       1 (B2) A      5 (A1) B    ->    5 (A2) B      2 (B2) A     
  0.3123       5 (A1) B      1 (B2) A    ->    2 (B2) A      5 (A2) B     
 -0.3123       5 (A1) B      1 (B2) A    ->    5 (A2) B      2 (B2) A     
  0.3123       1 (B2) B      5 (A1) A    ->    5 (A2) A      2 (B2) B     
 -0.3123       1 (B2) B      5 (A1) A    ->    2 (B2) B      5 (A2) A     
  0.1933       5 (A1) A      1 (B2) B    ->    2 (B2) A      4 (A2) B     
 -0.1933       5 (A1) A      1 (B2) B    ->    4 (A2) B      2 (B2) A     
  0.1933       1 (B2) A      5 (A1) B    ->    4 (A2) A      2 (B2) B     
 -0.1933       1 (B2) A      5 (A1) B    ->    2 (B2) B      4 (A2) A     
 -0.1933       5 (A1) B      1 (B2) A    ->    4 (A2) A      2 (B2) B     
  0.1933       5 (A1) B      1 (B2) A    ->    2 (B2) B      4 (A2) A     
 -0.1933       1 (B2) B      5 (A1) A    ->    2 (B2) A      4 (A2) B     
  0.1933       1 (B2) B      5 (A1) A    ->    4 (A2) B      2 (B2) A     
  0.1932       5 (A1) A      1 (B2) A    ->    4 (A2) A      2 (B2) A     
 -0.1932       5 (A1) A      1 (B2) A    ->    2 (B2) A      4 (A2) A     
 -0.1932       1 (B2) A      5 (A1) A    ->    4 (A2) A      2 (B2) A     
  0.1932       1 (B2) A      5 (A1) A    ->    2 (B2) A      4 (A2) A     
  0.1932       5 (A1) B      1 (B2) B    ->    4 (A2) B      2 (B2) B     
 -0.1932       5 (A1) B      1 (B2) B    ->    2 (B2) B      4 (A2) B     
 -0.1932       1 (B2) B      5 (A1) B    ->    4 (A2) B      2 (B2) B     
  0.1932       1 (B2) B      5 (A1) B    ->    2 (B2) B      4 (A2) B     
  0.1747       5 (A1) A      1 (B2) B    ->    3 (A2) A      2 (B2) B     
 -0.1747       5 (A1) A      1 (B2) B    ->    2 (B2) B      3 (A2) A     
  0.1747       1 (B2) A      5 (A1) B    ->    2 (B2) A      3 (A2) B     
 -0.1747       1 (B2) A      5 (A1) B    ->    3 (A2) B      2 (B2) A     
 -0.1747       5 (A1) B      1 (B2) A    ->    2 (B2) A      3 (A2) B     
  0.1747       5 (A1) B      1 (B2) A    ->    3 (A2) B      2 (B2) A     
 -0.1747       1 (B2) B      5 (A1) A    ->    3 (A2) A      2 (B2) B     
  0.1747       1 (B2) B      5 (A1) A    ->    2 (B2) B      3 (A2) A     
 -0.1566       5 (A1) A      1 (B2) B    ->    2 (B2) A      5 (A2) B     
  0.1566       5 (A1) A      1 (B2) B    ->    5 (A2) B      2 (B2) A     
 -0.1566       1 (B2) A      5 (A1) B    ->    5 (A2) A      2 (B2) B     
  0.1566       1 (B2) A      5 (A1) B    ->    2 (B2) B      5 (A2) A     
  0.1566       5 (A1) B      1 (B2) A    ->    5 (A2) A      2 (B2) B     
 -0.1566       5 (A1) B      1 (B2) A    ->    2 (B2) B      5 (A2) A     
  0.1566       1 (B2) B      5 (A1) A    ->    2 (B2) A      5 (A2) B     
 -0.1566       1 (B2) B      5 (A1) A    ->    5 (A2) B      2 (B2) A     
 -0.1565       5 (A1) A      1 (B2) A    ->    5 (A2) A      2 (B2) A     
  0.1565       5 (A1) A      1 (B2) A    ->    2 (B2) A      5 (A2) A     
  0.1565       1 (B2) A      5 (A1) A    ->    5 (A2) A      2 (B2) A     
 -0.1565       1 (B2) A      5 (A1) A    ->    2 (B2) A      5 (A2) A     
 -0.1565       5 (A1) B      1 (B2) B    ->    5 (A2) B      2 (B2) B     
  0.1565       5 (A1) B      1 (B2) B    ->    2 (B2) B      5 (A2) B     
  0.1565       1 (B2) B      5 (A1) B    ->    5 (A2) B      2 (B2) B     
 -0.1565       1 (B2) B      5 (A1) B    ->    2 (B2) B      5 (A2) B     
  0.1501       5 (A1) A      1 (B2) B    ->    8 (A2) A      2 (B2) B     
 -0.1501       5 (A1) A      1 (B2) B    ->    2 (B2) B      8 (A2) A     
  0.1501       1 (B2) A      5 (A1) B    ->    2 (B2) A      8 (A2) B     
 -0.1501       1 (B2) A      5 (A1) B    ->    8 (A2) B      2 (B2) A     
 -0.1501       5 (A1) B      1 (B2) A    ->    2 (B2) A      8 (A2) B     
  0.1501       5 (A1) B      1 (B2) A    ->    8 (A2) B      2 (B2) A     
 -0.1501       1 (B2) B      5 (A1) A    ->    8 (A2) A      2 (B2) B     
  0.1501       1 (B2) B      5 (A1) A    ->    2 (B2) B      8 (A2) A     
  0.1031       5 (A1) A      1 (B2) B    ->    7 (A2) A      2 (B2) B     
 -0.1031       5 (A1) A      1 (B2) B    ->    2 (B2) B      7 (A2) A     
  0.1031       1 (B2) A      5 (A1) B    ->    2 (B2) A      7 (A2) B     
 -0.1031       1 (B2) A      5 (A1) B    ->    7 (A2) B      2 (B2) A     
 -0.1031       5 (A1) B      1 (B2) A    ->    2 (B2) A      7 (A2) B     
  0.1031       5 (A1) B      1 (B2) A    ->    7 (A2) B      2 (B2) A     
 -0.1031       1 (B2) B      5 (A1) A    ->    7 (A2) A      2 (B2) B     
  0.1031       1 (B2) B      5 (A1) A    ->    2 (B2) B      7 (A2) A     

              Summary of significant orbitals:

               Number  Type             Irrep      Energy
               9       Occ  Alpha       5 (A1)     -0.0286
               8       Occ  Alpha       1 (B2)     -0.3244
               9       Occ  Beta        5 (A1)     -0.0286
               8       Occ  Beta        1 (B2)     -0.3244
               25      Vir  Alpha       3 (A2)      0.1286
               30      Vir  Alpha       4 (A2)      0.1779
               38      Vir  Alpha       5 (A2)      0.2367
               46      Vir  Alpha       7 (A2)      0.3086
               52      Vir  Alpha       8 (A2)      0.4030
               11      Vir  Alpha       2 (B2)      0.0530
               25      Vir  Beta        3 (A2)      0.1286
               30      Vir  Beta        4 (A2)      0.1779
               38      Vir  Beta        5 (A2)      0.2367
               46      Vir  Beta        7 (A2)      0.3086
               52      Vir  Beta        8 (A2)      0.4030
               11      Vir  Beta        2 (B2)      0.0530


 EOMEE transition 10/A2
 Total energy = -78.57541089 a.u.  Excitation energy = 8.7188 eV.
 R0^2 = 0.0000  R1^2 = 0.1822  R2^2 = 0.8178  Res^2 = 6.18e-06
 Conv-d = yes

 Amplitude    Transitions between orbitals
 -0.3396       5 (A1) A      1 (B2) B    ->    4 (A2) A      3 (B2) B     
  0.3396       5 (A1) A      1 (B2) B    ->    3 (B2) B      4 (A2) A     
 -0.3396       1 (B2) A      5 (A1) B    ->    3 (B2) A      4 (A2) B     
  0.3396       1 (B2) A      5 (A1) B    ->    4 (A2) B      3 (B2) A     
  0.3396       5 (A1) B      1 (B2) A    ->    3 (B2) A      4 (A2) B     
 -0.3396       5 (A1) B      1 (B2) A    ->    4 (A2) B      3 (B2) A     
  0.3396       1 (B2) B      5 (A1) A    ->    4 (A2) A      3 (B2) B     
 -0.3396       1 (B2) B      5 (A1) A    ->    3 (B2) B      4 (A2) A     
  0.2754       5 (A1) A      1 (B2) B    ->    5 (A2) A      3 (B2) B     
 -0.2754       5 (A1) A      1 (B2) B    ->    3 (B2) B      5 (A2) A     
  0.2754       1 (B2) A      5 (A1) B    ->    3 (B2) A      5 (A2) B     
 -0.2754       1 (B2) A      5 (A1) B    ->    5 (A2) B      3 (B2) A     
 -0.2754       5 (A1) B      1 (B2) A    ->    3 (B2) A      5 (A2) B     
  0.2754       5 (A1) B      1 (B2) A    ->    5 (A2) B      3 (B2) A     
 -0.2754       1 (B2) B      5 (A1) A    ->    5 (A2) A      3 (B2) B     
  0.2754       1 (B2) B      5 (A1) A    ->    3 (B2) B      5 (A2) A     
 -0.1718       5 (A1) A      1 (B2) B    ->    3 (B2) A      4 (A2) B     
  0.1718       5 (A1) A      1 (B2) B    ->    4 (A2) B      3 (B2) A     
 -0.1718       1 (B2) A      5 (A1) B    ->    4 (A2) A      3 (B2) B     
  0.1718       1 (B2) A      5 (A1) B    ->    3 (B2) B      4 (A2) A     
  0.1718       5 (A1) B      1 (B2) A    ->    4 (A2) A      3 (B2) B     
 -0.1718       5 (A1) B      1 (B2) A    ->    3 (B2) B      4 (A2) A     
  0.1718       1 (B2) B      5 (A1) A    ->    3 (B2) A      4 (A2) B     
 -0.1718       1 (B2) B      5 (A1) A    ->    4 (A2) B      3 (B2) A     
 -0.1660       5 (A1) A      1 (B2) A    ->    4 (A2) A      3 (B2) A     
  0.1660       5 (A1) A      1 (B2) A    ->    3 (B2) A      4 (A2) A     
  0.1660       1 (B2) A      5 (A1) A    ->    4 (A2) A      3 (B2) A     
 -0.1660       1 (B2) A      5 (A1) A    ->    3 (B2) A      4 (A2) A     
 -0.1660       5 (A1) B      1 (B2) B    ->    4 (A2) B      3 (B2) B     
  0.1660       5 (A1) B      1 (B2) B    ->    3 (B2) B      4 (A2) B     
  0.1660       1 (B2) B      5 (A1) B    ->    4 (A2) B      3 (B2) B     
 -0.1660       1 (B2) B      5 (A1) B    ->    3 (B2) B      4 (A2) B     
 -0.1539       5 (A1) A      1 (B2) B    ->    3 (A2) A      3 (B2) B     
  0.1539       5 (A1) A      1 (B2) B    ->    3 (B2) B      3 (A2) A     
 -0.1539       1 (B2) A      5 (A1) B    ->    3 (B2) A      3 (A2) B     
  0.1539       1 (B2) A      5 (A1) B    ->    3 (A2) B      3 (B2) A     
  0.1539       5 (A1) B      1 (B2) A    ->    3 (B2) A      3 (A2) B     
 -0.1539       5 (A1) B      1 (B2) A    ->    3 (A2) B      3 (B2) A     
  0.1539       1 (B2) B      5 (A1) A    ->    3 (A2) A      3 (B2) B     
 -0.1539       1 (B2) B      5 (A1) A    ->    3 (B2) B      3 (A2) A     
  0.1387       5 (A1) A      1 (B2) B    ->    3 (B2) A      5 (A2) B     
 -0.1387       5 (A1) A      1 (B2) B    ->    5 (A2) B      3 (B2) A     
  0.1387       1 (B2) A      5 (A1) B    ->    5 (A2) A      3 (B2) B     
 -0.1387       1 (B2) A      5 (A1) B    ->    3 (B2) B      5 (A2) A     
 -0.1387       5 (A1) B      1 (B2) A    ->    5 (A2) A      3 (B2) B     
  0.1387       5 (A1) B      1 (B2) A    ->    3 (B2) B      5 (A2) A     
 -0.1387       1 (B2) B      5 (A1) A    ->    3 (B2) A      5 (A2) B     
  0.1387       1 (B2) B      5 (A1) A    ->    5 (A2) B      3 (B2) A     
  0.1353       5 (A1) A      1 (B2) A    ->    5 (A2) A      3 (B2) A     
 -0.1353       5 (A1) A      1 (B2) A    ->    3 (B2) A      5 (A2) A     
 -0.1353       1 (B2) A      5 (A1) A    ->    5 (A2) A      3 (B2) A     
  0.1353       1 (B2) A      5 (A1) A    ->    3 (B2) A      5 (A2) A     
  0.1353       5 (A1) B      1 (B2) B    ->    5 (A2) B      3 (B2) B     
 -0.1353       5 (A1) B      1 (B2) B    ->    3 (B2) B      5 (A2) B     
 -0.1353       1 (B2) B      5 (A1) B    ->    5 (A2) B      3 (B2) B     
  0.1353       1 (B2) B      5 (A1) B    ->    3 (B2) B      5 (A2) B     
 -0.1328       5 (A1) A      1 (B2) B    ->    8 (A2) A      3 (B2) B     
  0.1328       5 (A1) A      1 (B2) B    ->    3 (B2) B      8 (A2) A     
 -0.1328       1 (B2) A      5 (A1) B    ->    3 (B2) A      8 (A2) B     
  0.1328       1 (B2) A      5 (A1) B    ->    8 (A2) B      3 (B2) A     
  0.1328       5 (A1) B      1 (B2) A    ->    3 (B2) A      8 (A2) B     
 -0.1328       5 (A1) B      1 (B2) A    ->    8 (A2) B      3 (B2) A     
  0.1328       1 (B2) B      5 (A1) A    ->    8 (A2) A      3 (B2) B     
 -0.1328       1 (B2) B      5 (A1) A    ->    3 (B2) B      8 (A2) A     

              Summary of significant orbitals:

               Number  Type             Irrep      Energy
               9       Occ  Alpha       5 (A1)     -0.0286
               8       Occ  Alpha       1 (B2)     -0.3244
               9       Occ  Beta        5 (A1)     -0.0286
               8       Occ  Beta        1 (B2)     -0.3244
               25      Vir  Alpha       3 (A2)      0.1286
               30      Vir  Alpha       4 (A2)      0.1779
               38      Vir  Alpha       5 (A2)      0.2367
               52      Vir  Alpha       8 (A2)      0.4030
               17      Vir  Alpha       3 (B2)      0.0802
               25      Vir  Beta        3 (A2)      0.1286
               30      Vir  Beta        4 (A2)      0.1779
               38      Vir  Beta        5 (A2)      0.2367
               52      Vir  Beta        8 (A2)      0.4030
               17      Vir  Beta        3 (B2)      0.0802


Running a double precision version
      EOM-CCSD/MP2 left amplitudes will be solved using Davidson.
        Amplitudes will be solved using MOM  algorithm.
     Hard-coded thresholds: 
     LinDepThresh=1.00e-15  NormThresh=1.00e-06  ReorthogonThresh=1.00e-02

      Roots     MaxVec    MaxIter   Precond   Conv      Shift    
      10        120       60        1         1.00e-05  0.00e+00  
 ------------------------------------------------------------------------------
      Iter ConvRoots NVecs ResNorm Current eigenvalues (eV)
 ------------------------------------------------------------------------------
      0    0      10    7.54e-04   0.4179   1.1116   2.0148   2.8557   4.6339   5.0893   6.8469   8.0520   8.0989   8.7188   
      1    0      20    3.35e-04   0.4179   1.1115   2.0148   2.8557   4.6339   5.0892   6.8470   8.0521   8.0989   8.7188   
      2    5      30    1.78e-05   0.4179*  1.1115*  2.0148   2.8556   4.6339   5.0893*  6.8470   8.0521   8.0988*  8.7187*  
      3    9      35    5.07e-06   0.4179*  1.1115*  2.0148*  2.8557*  4.6339*  5.0893*  6.8470*  8.0521   8.0988*  8.7187*  
      4    10     36    3.67e-06   0.4179*  1.1115*  2.0148*  2.8557*  4.6339*  5.0893*  6.8470*  8.0521*  8.0988*  8.7187*  

     Davidson procedure converged

 Excited state properties for  EOMEE-CCSD transition 1/A2
 Dipole moment (a.u.): 1.122744 (X 0.000000, Y 0.000000, Z 1.122744)
 R-squared (a.u.): 859.645264 (XX 236.397926, YY 200.275617, ZZ 422.971720)
 Gauge origin (a.u.): (0.000000, 0.000000, 0.000000)
 Angular momentum (a.u.) against gauge origin: 
 (X 0.000000i, Y 0.000000i, Z 0.000000i)
 Traces of the OPDMs: Tr(AA) 9.000000, Tr(BB) 9.000000

 Excited state properties for  EOMEE-CCSD transition 2/A2
 Dipole moment (a.u.): 1.122363 (X 0.000000, Y 0.000000, Z 1.122363)
 R-squared (a.u.): 727.763857 (XX 180.238385, YY 143.439141, ZZ 404.086331)
 Gauge origin (a.u.): (0.000000, 0.000000, 0.000000)
 Angular momentum (a.u.) against gauge origin: 
 (X 0.000000i, Y 0.000000i, Z 0.000000i)
 Traces of the OPDMs: Tr(AA) 9.000000, Tr(BB) 9.000000

 Excited state properties for  EOMEE-CCSD transition 3/A2
 Dipole moment (a.u.): 1.139718 (X 0.000000, Y 0.000000, Z 1.139718)
 R-squared (a.u.): 584.665755 (XX 117.776704, YY 82.734139, ZZ 384.154912)
 Gauge origin (a.u.): (0.000000, 0.000000, 0.000000)
 Angular momentum (a.u.) against gauge origin: 
 (X 0.000000i, Y 0.000000i, Z 0.000000i)
 Traces of the OPDMs: Tr(AA) 9.000000, Tr(BB) 9.000000

 Excited state properties for  EOMEE-CCSD transition 4/A2
 Dipole moment (a.u.): 1.156665 (X 0.000000, Y 0.000000, Z 1.156665)
 R-squared (a.u.): 569.674916 (XX 111.306789, YY 76.228477, ZZ 382.139650)
 Gauge origin (a.u.): (0.000000, 0.000000, 0.000000)
 Angular momentum (a.u.) against gauge origin: 
 (X 0.000000i, Y 0.000000i, Z 0.000000i)
 Traces of the OPDMs: Tr(AA) 9.000000, Tr(BB) 9.000000

 Excited state properties for  EOMEE-CCSD transition 5/A2
 Dipole moment (a.u.): 1.137937 (X 0.000000, Y 0.000000, Z 1.137937)
 R-squared (a.u.): 574.534235 (XX 116.598511, YY 76.107602, ZZ 381.828122)
 Gauge origin (a.u.): (0.000000, 0.000000, 0.000000)
 Angular momentum (a.u.) against gauge origin: 
 (X 0.000000i, Y 0.000000i, Z 0.000000i)
 Traces of the OPDMs: Tr(AA) 9.000000, Tr(BB) 9.000000

 Excited state properties for  EOMEE-CCSD transition 6/A2
 Dipole moment (a.u.): 1.130842 (X 0.000000, Y 0.000000, Z 1.130842)
 R-squared (a.u.): 477.093476 (XX 67.462550, YY 30.982539, ZZ 378.648387)
 Gauge origin (a.u.): (0.000000, 0.000000, 0.000000)
 Angular momentum (a.u.) against gauge origin: 
 (X 0.000000i, Y 0.000000i, Z 0.000000i)
 Traces of the OPDMs: Tr(AA) 9.000000, Tr(BB) 9.000000

 Excited state properties for  EOMEE-CCSD transition 7/A2
 Dipole moment (a.u.): 1.133731 (X 0.000000, Y 0.000000, Z 1.133731)
 R-squared (a.u.): 508.898864 (XX 87.140869, YY 49.035403, ZZ 372.722592)
 Gauge origin (a.u.): (0.000000, 0.000000, 0.000000)
 Angular momentum (a.u.) against gauge origin: 
 (X 0.000000i, Y 0.000000i, Z 0.000000i)
 Traces of the OPDMs: Tr(AA) 9.000000, Tr(BB) 9.000000

 Excited state properties for  EOMEE-CCSD transition 8/A2
 Dipole moment (a.u.): 14.632537 (X 0.000000, Y 0.000000, Z -14.632537)
 R-squared (a.u.): 814.245718 (XX 100.803458, YY 33.134095, ZZ 680.308165)
 Gauge origin (a.u.): (0.000000, 0.000000, 0.000000)
 Angular momentum (a.u.) against gauge origin: 
 (X 0.000000i, Y 0.000000i, Z 0.000000i)
 Traces of the OPDMs: Tr(AA) 9.000000, Tr(BB) 9.000000

 Excited state properties for  EOMEE-CCSD transition 9/A2
 Dipole moment (a.u.): 2.026459 (X 0.000000, Y 0.000000, Z 2.026459)
 R-squared (a.u.): 784.789008 (XX 128.286890, YY 230.834932, ZZ 425.667186)
 Gauge origin (a.u.): (0.000000, 0.000000, 0.000000)
 Angular momentum (a.u.) against gauge origin: 
 (X 0.000000i, Y 0.000000i, Z 0.000000i)
 Traces of the OPDMs: Tr(AA) 9.000000, Tr(BB) 9.000000

 Excited state properties for  EOMEE-CCSD transition 10/A2
 Dipole moment (a.u.): 1.840383 (X 0.000000, Y 0.000000, Z 1.840383)
 R-squared (a.u.): 666.974523 (XX 105.514852, YY 158.410948, ZZ 403.048723)
 Gauge origin (a.u.): (0.000000, 0.000000, 0.000000)
 Angular momentum (a.u.) against gauge origin: 
 (X 0.000000i, Y 0.000000i, Z 0.000000i)
 Traces of the OPDMs: Tr(AA) 9.000000, Tr(BB) 9.000000

 EOMEE-MP2 calculation:   CPU 1771.89 s  wall 254.97 s


 Start computing the transition properties

 ------------------------------------------------------------------------------
 State A: eomee_mp2/rhfref/singlets: 1/A2
 State B: eomee_mp2/rhfref/singlets: 2/A2
 Energy GAP = 0.025490 a.u. = 0.693626 eV
 Transition dipole moment (a.u.):
   A->B: 0.000722 (X 0.000000, Y 0.000000, Z -0.000722)
   B->A: 0.000721 (X 0.000000, Y 0.000000, Z -0.000721)
 Oscillator strength (a.u.): 0.000000
 Transition angular momentum against gauge origin (a.u.):
   A->B:  (X 0.000000i, Y 0.000000i, Z 0.000000i)
   B->A:  (X 0.000000i, Y 0.000000i, Z 0.000000i)

 Electronic circular dichroism (ECD):
 Transition dipole moment/angular momentum:
   A->B->A:  (X 0.000000, Y 0.000000, Z 0.000000)
   Rotatory strength, length gauge (a.u.): 0.000000
   Rotatory strength, length gauge (1.0e-40 cgs): 0.000000
 Transition linear momentum/angular momentum:
   A->B->A:  (X 0.000000, Y 0.000000, Z 0.000000)
   Rotatory strength, velocity gauge (a.u.): 0.000000
   Rotatory strength, velocity gauge (1.0e-40 cgs): 0.000000

 Norm of one-particle transition density matrix:
   A->B: 0.706556;   B->A: 0.706489
   ||gamma^AB||*||gamma^BA||: 0.499174

 ------------------------------------------------------------------------------
 State A: eomee_mp2/rhfref/singlets: 1/A2
 State B: eomee_mp2/rhfref/singlets: 3/A2
 Energy GAP = 0.058684 a.u. = 1.596861 eV
 Transition dipole moment (a.u.):
   A->B: 0.000645 (X 0.000000, Y 0.000000, Z 0.000645)
   B->A: 0.000639 (X 0.000000, Y 0.000000, Z 0.000639)
 Oscillator strength (a.u.): 0.000000
 Transition angular momentum against gauge origin (a.u.):
   A->B:  (X 0.000000i, Y 0.000000i, Z 0.000000i)
   B->A:  (X 0.000000i, Y 0.000000i, Z 0.000000i)

 Electronic circular dichroism (ECD):
 Transition dipole moment/angular momentum:
   A->B->A:  (X 0.000000, Y 0.000000, Z 0.000000)
   Rotatory strength, length gauge (a.u.): 0.000000
   Rotatory strength, length gauge (1.0e-40 cgs): 0.000000
 Transition linear momentum/angular momentum:
   A->B->A:  (X 0.000000, Y 0.000000, Z 0.000000)
   Rotatory strength, velocity gauge (a.u.): -0.000000
   Rotatory strength, velocity gauge (1.0e-40 cgs): -0.000000

 Norm of one-particle transition density matrix:
   A->B: 0.700989;   B->A: 0.700030
   ||gamma^AB||*||gamma^BA||: 0.490713

 ------------------------------------------------------------------------------
 State A: eomee_mp2/rhfref/singlets: 1/A2
 State B: eomee_mp2/rhfref/singlets: 4/A2
 Energy GAP = 0.089585 a.u. = 2.437729 eV
 Transition dipole moment (a.u.):
   A->B: 0.000902 (X 0.000000, Y 0.000000, Z 0.000902)
   B->A: 0.000915 (X 0.000000, Y 0.000000, Z 0.000915)
 Oscillator strength (a.u.): 0.000000
 Transition angular momentum against gauge origin (a.u.):
   A->B:  (X 0.000000i, Y 0.000000i, Z 0.000000i)
   B->A:  (X 0.000000i, Y 0.000000i, Z 0.000000i)

 Electronic circular dichroism (ECD):
 Transition dipole moment/angular momentum:
   A->B->A:  (X 0.000000, Y 0.000000, Z 0.000000)
   Rotatory strength, length gauge (a.u.): 0.000000
   Rotatory strength, length gauge (1.0e-40 cgs): 0.000000
 Transition linear momentum/angular momentum:
   A->B->A:  (X 0.000000, Y 0.000000, Z 0.000000)
   Rotatory strength, velocity gauge (a.u.): 0.000000
   Rotatory strength, velocity gauge (1.0e-40 cgs): 0.000000

 Norm of one-particle transition density matrix:
   A->B: 0.697170;   B->A: 0.695513
   ||gamma^AB||*||gamma^BA||: 0.484891

 ------------------------------------------------------------------------------
 State A: eomee_mp2/rhfref/singlets: 1/A2
 State B: eomee_mp2/rhfref/singlets: 5/A2
 Energy GAP = 0.154934 a.u. = 4.215959 eV
 Transition dipole moment (a.u.):
   A->B: 0.001539 (X 0.000000, Y 0.000000, Z 0.001539)
   B->A: 0.001594 (X 0.000000, Y 0.000000, Z 0.001594)
 Oscillator strength (a.u.): 0.000000
 Transition angular momentum against gauge origin (a.u.):
   A->B:  (X 0.000000i, Y 0.000000i, Z 0.000000i)
   B->A:  (X 0.000000i, Y 0.000000i, Z 0.000000i)

 Electronic circular dichroism (ECD):
 Transition dipole moment/angular momentum:
   A->B->A:  (X 0.000000, Y 0.000000, Z 0.000000)
   Rotatory strength, length gauge (a.u.): 0.000000
   Rotatory strength, length gauge (1.0e-40 cgs): 0.000000
 Transition linear momentum/angular momentum:
   A->B->A:  (X 0.000000, Y 0.000000, Z 0.000000)
   Rotatory strength, velocity gauge (a.u.): 0.000000
   Rotatory strength, velocity gauge (1.0e-40 cgs): 0.000000

 Norm of one-particle transition density matrix:
   A->B: 0.700806;   B->A: 0.699775
   ||gamma^AB||*||gamma^BA||: 0.490406

 ------------------------------------------------------------------------------
 State A: eomee_mp2/rhfref/singlets: 1/A2
 State B: eomee_mp2/rhfref/singlets: 6/A2
 Energy GAP = 0.171670 a.u. = 4.671383 eV
 Transition dipole moment (a.u.):
   A->B: 0.398920 (X 0.000000, Y 0.000000, Z -0.398920)
   B->A: 0.398955 (X 0.000000, Y 0.000000, Z -0.398955)
 Oscillator strength (a.u.): 0.018214
 Transition angular momentum against gauge origin (a.u.):
   A->B:  (X 0.000000i, Y 0.000000i, Z 0.000000i)
   B->A:  (X 0.000000i, Y 0.000000i, Z 0.000000i)

 Electronic circular dichroism (ECD):
 Transition dipole moment/angular momentum:
   A->B->A:  (X 0.000000, Y 0.000000, Z 0.000000)
   Rotatory strength, length gauge (a.u.): 0.000000
   Rotatory strength, length gauge (1.0e-40 cgs): 0.000000
 Transition linear momentum/angular momentum:
   A->B->A:  (X 0.000000, Y 0.000000, Z 0.000000)
   Rotatory strength, velocity gauge (a.u.): 0.000000
   Rotatory strength, velocity gauge (1.0e-40 cgs): 0.000000

 Norm of one-particle transition density matrix:
   A->B: 0.705291;   B->A: 0.705016
   ||gamma^AB||*||gamma^BA||: 0.497241

 ------------------------------------------------------------------------------
 State A: eomee_mp2/rhfref/singlets: 1/A2
 State B: eomee_mp2/rhfref/singlets: 7/A2
 Energy GAP = 0.236262 a.u. = 6.429016 eV
 Transition dipole moment (a.u.):
   A->B: 0.000103 (X 0.000000, Y 0.000000, Z -0.000103)
   B->A: 0.000128 (X 0.000000, Y 0.000000, Z -0.000128)
 Oscillator strength (a.u.): 0.000000
 Transition angular momentum against gauge origin (a.u.):
   A->B:  (X 0.000000i, Y 0.000000i, Z 0.000000i)
   B->A:  (X 0.000000i, Y 0.000000i, Z 0.000000i)

 Electronic circular dichroism (ECD):
 Transition dipole moment/angular momentum:
   A->B->A:  (X 0.000000, Y 0.000000, Z 0.000000)
   Rotatory strength, length gauge (a.u.): 0.000000
   Rotatory strength, length gauge (1.0e-40 cgs): 0.000000
 Transition linear momentum/angular momentum:
   A->B->A:  (X 0.000000, Y 0.000000, Z 0.000000)
   Rotatory strength, velocity gauge (a.u.): -0.000000
   Rotatory strength, velocity gauge (1.0e-40 cgs): -0.000000

 Norm of one-particle transition density matrix:
   A->B: 0.703930;   B->A: 0.703451
   ||gamma^AB||*||gamma^BA||: 0.495180

 ------------------------------------------------------------------------------
 State A: eomee_mp2/rhfref/singlets: 1/A2
 State B: eomee_mp2/rhfref/singlets: 8/A2
 Energy GAP = 0.280547 a.u. = 7.634064 eV
 Transition dipole moment (a.u.):
   A->B: 0.000025 (X 0.000000, Y 0.000000, Z 0.000025)
   B->A: 0.000008 (X 0.000000, Y 0.000000, Z 0.000008)
 Oscillator strength (a.u.): 0.000000
 Transition angular momentum against gauge origin (a.u.):
   A->B:  (X 0.000000i, Y 0.000000i, Z 0.000000i)
   B->A:  (X 0.000000i, Y 0.000000i, Z 0.000000i)

 Electronic circular dichroism (ECD):
 Transition dipole moment/angular momentum:
   A->B->A:  (X 0.000000, Y 0.000000, Z 0.000000)
   Rotatory strength, length gauge (a.u.): -0.000000
   Rotatory strength, length gauge (1.0e-40 cgs): -0.000000
 Transition linear momentum/angular momentum:
   A->B->A:  (X 0.000000, Y 0.000000, Z 0.000000)
   Rotatory strength, velocity gauge (a.u.): 0.000000
   Rotatory strength, velocity gauge (1.0e-40 cgs): 0.000000

 Norm of one-particle transition density matrix:
   A->B: 0.002319;   B->A: 0.002232
   ||gamma^AB||*||gamma^BA||: 0.000005

 ------------------------------------------------------------------------------
 State A: eomee_mp2/rhfref/singlets: 1/A2
 State B: eomee_mp2/rhfref/singlets: 9/A2
 Energy GAP = 0.282270 a.u. = 7.680972 eV
 Transition dipole moment (a.u.):
   A->B: 0.000231 (X 0.000000, Y 0.000000, Z -0.000231)
   B->A: 0.000185 (X 0.000000, Y 0.000000, Z -0.000185)
 Oscillator strength (a.u.): 0.000000
 Transition angular momentum against gauge origin (a.u.):
   A->B:  (X 0.000000i, Y 0.000000i, Z 0.000000i)
   B->A:  (X 0.000000i, Y 0.000000i, Z 0.000000i)

 Electronic circular dichroism (ECD):
 Transition dipole moment/angular momentum:
   A->B->A:  (X 0.000000, Y 0.000000, Z 0.000000)
   Rotatory strength, length gauge (a.u.): -0.000000
   Rotatory strength, length gauge (1.0e-40 cgs): -0.000000
 Transition linear momentum/angular momentum:
   A->B->A:  (X 0.000000, Y 0.000000, Z 0.000000)
   Rotatory strength, velocity gauge (a.u.): 0.000000
   Rotatory strength, velocity gauge (1.0e-40 cgs): 0.000000

 Norm of one-particle transition density matrix:
   A->B: 0.044071;   B->A: 0.043590
   ||gamma^AB||*||gamma^BA||: 0.001921

 ------------------------------------------------------------------------------
 State A: eomee_mp2/rhfref/singlets: 1/A2
 State B: eomee_mp2/rhfref/singlets: 10/A2
 Energy GAP = 0.305052 a.u. = 8.300892 eV
 Transition dipole moment (a.u.):
   A->B: 0.000383 (X 0.000000, Y 0.000000, Z -0.000383)
   B->A: 0.000323 (X 0.000000, Y 0.000000, Z -0.000323)
 Oscillator strength (a.u.): 0.000000
 Transition angular momentum against gauge origin (a.u.):
   A->B:  (X 0.000000i, Y 0.000000i, Z 0.000000i)
   B->A:  (X 0.000000i, Y 0.000000i, Z 0.000000i)

 Electronic circular dichroism (ECD):
 Transition dipole moment/angular momentum:
   A->B->A:  (X 0.000000, Y 0.000000, Z 0.000000)
   Rotatory strength, length gauge (a.u.): -0.000000
   Rotatory strength, length gauge (1.0e-40 cgs): -0.000000
 Transition linear momentum/angular momentum:
   A->B->A:  (X 0.000000, Y 0.000000, Z 0.000000)
   Rotatory strength, velocity gauge (a.u.): 0.000000
   Rotatory strength, velocity gauge (1.0e-40 cgs): 0.000000

 Norm of one-particle transition density matrix:
   A->B: 0.320532;   B->A: 0.316106
   ||gamma^AB||*||gamma^BA||: 0.101322

 ------------------------------------------------------------------------------
 State A: eomee_mp2/rhfref/singlets: 2/A2
 State B: eomee_mp2/rhfref/singlets: 3/A2
 Energy GAP = 0.033193 a.u. = 0.903236 eV
 Transition dipole moment (a.u.):
   A->B: 0.003072 (X 0.000000, Y 0.000000, Z 0.003072)
   B->A: 0.003027 (X 0.000000, Y 0.000000, Z 0.003027)
 Oscillator strength (a.u.): 0.000000
 Transition angular momentum against gauge origin (a.u.):
   A->B:  (X 0.000000i, Y 0.000000i, Z 0.000000i)
   B->A:  (X 0.000000i, Y 0.000000i, Z 0.000000i)

 Electronic circular dichroism (ECD):
 Transition dipole moment/angular momentum:
   A->B->A:  (X 0.000000, Y 0.000000, Z 0.000000)
   Rotatory strength, length gauge (a.u.): -0.000000
   Rotatory strength, length gauge (1.0e-40 cgs): -0.000000
 Transition linear momentum/angular momentum:
   A->B->A:  (X 0.000000, Y 0.000000, Z 0.000000)
   Rotatory strength, velocity gauge (a.u.): 0.000000
   Rotatory strength, velocity gauge (1.0e-40 cgs): 0.000000

 Norm of one-particle transition density matrix:
   A->B: 0.700892;   B->A: 0.699982
   ||gamma^AB||*||gamma^BA||: 0.490612

 ------------------------------------------------------------------------------
 State A: eomee_mp2/rhfref/singlets: 2/A2
 State B: eomee_mp2/rhfref/singlets: 4/A2
 Energy GAP = 0.064095 a.u. = 1.744104 eV
 Transition dipole moment (a.u.):
   A->B: 0.005985 (X 0.000000, Y 0.000000, Z 0.005985)
   B->A: 0.005958 (X 0.000000, Y 0.000000, Z 0.005958)
 Oscillator strength (a.u.): 0.000002
 Transition angular momentum against gauge origin (a.u.):
   A->B:  (X 0.000000i, Y 0.000000i, Z 0.000000i)
   B->A:  (X 0.000000i, Y 0.000000i, Z 0.000000i)

 Electronic circular dichroism (ECD):
 Transition dipole moment/angular momentum:
   A->B->A:  (X 0.000000, Y 0.000000, Z 0.000000)
   Rotatory strength, length gauge (a.u.): 0.000000
   Rotatory strength, length gauge (1.0e-40 cgs): 0.000000
 Transition linear momentum/angular momentum:
   A->B->A:  (X 0.000000, Y 0.000000, Z 0.000000)
   Rotatory strength, velocity gauge (a.u.): 0.000000
   Rotatory strength, velocity gauge (1.0e-40 cgs): 0.000000

 Norm of one-particle transition density matrix:
   A->B: 0.697207;   B->A: 0.695589
   ||gamma^AB||*||gamma^BA||: 0.484970

 ------------------------------------------------------------------------------
 State A: eomee_mp2/rhfref/singlets: 2/A2
 State B: eomee_mp2/rhfref/singlets: 5/A2
 Energy GAP = 0.129443 a.u. = 3.522334 eV
 Transition dipole moment (a.u.):
   A->B: 0.006504 (X 0.000000, Y 0.000000, Z 0.006504)
   B->A: 0.006488 (X 0.000000, Y 0.000000, Z 0.006488)
 Oscillator strength (a.u.): 0.000004
 Transition angular momentum against gauge origin (a.u.):
   A->B:  (X 0.000000i, Y 0.000000i, Z 0.000000i)
   B->A:  (X 0.000000i, Y 0.000000i, Z 0.000000i)

 Electronic circular dichroism (ECD):
 Transition dipole moment/angular momentum:
   A->B->A:  (X 0.000000, Y 0.000000, Z 0.000000)
   Rotatory strength, length gauge (a.u.): 0.000000
   Rotatory strength, length gauge (1.0e-40 cgs): 0.000000
 Transition linear momentum/angular momentum:
   A->B->A:  (X 0.000000, Y 0.000000, Z 0.000000)
   Rotatory strength, velocity gauge (a.u.): 0.000000
   Rotatory strength, velocity gauge (1.0e-40 cgs): 0.000000

 Norm of one-particle transition density matrix:
   A->B: 0.700492;   B->A: 0.699514
   ||gamma^AB||*||gamma^BA||: 0.490004

 ------------------------------------------------------------------------------
 State A: eomee_mp2/rhfref/singlets: 2/A2
 State B: eomee_mp2/rhfref/singlets: 6/A2
 Energy GAP = 0.146180 a.u. = 3.977757 eV
 Transition dipole moment (a.u.):
   A->B: 1.203813 (X 0.000000, Y 0.000000, Z -1.203813)
   B->A: 1.203955 (X 0.000000, Y 0.000000, Z -1.203955)
 Oscillator strength (a.u.): 0.141243
 Transition angular momentum against gauge origin (a.u.):
   A->B:  (X 0.000000i, Y 0.000000i, Z 0.000000i)
   B->A:  (X 0.000000i, Y 0.000000i, Z 0.000000i)

 Electronic circular dichroism (ECD):
 Transition dipole moment/angular momentum:
   A->B->A:  (X 0.000000, Y 0.000000, Z 0.000000)
   Rotatory strength, length gauge (a.u.): -0.000000
   Rotatory strength, length gauge (1.0e-40 cgs): -0.000000
 Transition linear momentum/angular momentum:
   A->B->A:  (X 0.000000, Y 0.000000, Z 0.000000)
   Rotatory strength, velocity gauge (a.u.): -0.000000
   Rotatory strength, velocity gauge (1.0e-40 cgs): -0.000000

 Norm of one-particle transition density matrix:
   A->B: 0.704904;   B->A: 0.704694
   ||gamma^AB||*||gamma^BA||: 0.496742

 ------------------------------------------------------------------------------
 State A: eomee_mp2/rhfref/singlets: 2/A2
 State B: eomee_mp2/rhfref/singlets: 7/A2
 Energy GAP = 0.210772 a.u. = 5.735391 eV
 Transition dipole moment (a.u.):
   A->B: 0.000842 (X 0.000000, Y 0.000000, Z 0.000842)
   B->A: 0.000633 (X 0.000000, Y 0.000000, Z 0.000633)
 Oscillator strength (a.u.): 0.000000
 Transition angular momentum against gauge origin (a.u.):
   A->B:  (X 0.000000i, Y 0.000000i, Z 0.000000i)
   B->A:  (X 0.000000i, Y 0.000000i, Z 0.000000i)

 Electronic circular dichroism (ECD):
 Transition dipole moment/angular momentum:
   A->B->A:  (X 0.000000, Y 0.000000, Z 0.000000)
   Rotatory strength, length gauge (a.u.): 0.000000
   Rotatory strength, length gauge (1.0e-40 cgs): 0.000000
 Transition linear momentum/angular momentum:
   A->B->A:  (X 0.000000, Y 0.000000, Z 0.000000)
   Rotatory strength, velocity gauge (a.u.): 0.000000
   Rotatory strength, velocity gauge (1.0e-40 cgs): 0.000000

 Norm of one-particle transition density matrix:
   A->B: 0.703479;   B->A: 0.703065
   ||gamma^AB||*||gamma^BA||: 0.494592

 ------------------------------------------------------------------------------
 State A: eomee_mp2/rhfref/singlets: 2/A2
 State B: eomee_mp2/rhfref/singlets: 8/A2
 Energy GAP = 0.255056 a.u. = 6.940439 eV
 Transition dipole moment (a.u.):
   A->B: 0.000349 (X 0.000000, Y 0.000000, Z 0.000349)
   B->A: 0.000221 (X 0.000000, Y 0.000000, Z 0.000221)
 Oscillator strength (a.u.): 0.000000
 Transition angular momentum against gauge origin (a.u.):
   A->B:  (X 0.000000i, Y 0.000000i, Z 0.000000i)
   B->A:  (X 0.000000i, Y 0.000000i, Z 0.000000i)

 Electronic circular dichroism (ECD):
 Transition dipole moment/angular momentum:
   A->B->A:  (X 0.000000, Y 0.000000, Z 0.000000)
   Rotatory strength, length gauge (a.u.): 0.000000
   Rotatory strength, length gauge (1.0e-40 cgs): 0.000000
 Transition linear momentum/angular momentum:
   A->B->A:  (X 0.000000, Y 0.000000, Z 0.000000)
   Rotatory strength, velocity gauge (a.u.): -0.000000
   Rotatory strength, velocity gauge (1.0e-40 cgs): -0.000000

 Norm of one-particle transition density matrix:
   A->B: 0.006936;   B->A: 0.006972
   ||gamma^AB||*||gamma^BA||: 0.000048

 ------------------------------------------------------------------------------
 State A: eomee_mp2/rhfref/singlets: 2/A2
 State B: eomee_mp2/rhfref/singlets: 9/A2
 Energy GAP = 0.256780 a.u. = 6.987347 eV
 Transition dipole moment (a.u.):
   A->B: 0.001413 (X 0.000000, Y 0.000000, Z -0.001413)
   B->A: 0.001260 (X 0.000000, Y 0.000000, Z -0.001260)
 Oscillator strength (a.u.): 0.000000
 Transition angular momentum against gauge origin (a.u.):
   A->B:  (X 0.000000i, Y 0.000000i, Z 0.000000i)
   B->A:  (X 0.000000i, Y 0.000000i, Z 0.000000i)

 Electronic circular dichroism (ECD):
 Transition dipole moment/angular momentum:
   A->B->A:  (X 0.000000, Y 0.000000, Z 0.000000)
   Rotatory strength, length gauge (a.u.): -0.000000
   Rotatory strength, length gauge (1.0e-40 cgs): -0.000000
 Transition linear momentum/angular momentum:
   A->B->A:  (X 0.000000, Y 0.000000, Z 0.000000)
   Rotatory strength, velocity gauge (a.u.): 0.000000
   Rotatory strength, velocity gauge (1.0e-40 cgs): 0.000000

 Norm of one-particle transition density matrix:
   A->B: 0.140819;   B->A: 0.143261
   ||gamma^AB||*||gamma^BA||: 0.020174

 ------------------------------------------------------------------------------
 State A: eomee_mp2/rhfref/singlets: 2/A2
 State B: eomee_mp2/rhfref/singlets: 10/A2
 Energy GAP = 0.279562 a.u. = 7.607266 eV
 Transition dipole moment (a.u.):
   A->B: 0.003780 (X 0.000000, Y 0.000000, Z -0.003780)
   B->A: 0.003200 (X 0.000000, Y 0.000000, Z -0.003200)
 Oscillator strength (a.u.): 0.000002
 Transition angular momentum against gauge origin (a.u.):
   A->B:  (X 0.000000i, Y 0.000000i, Z 0.000000i)
   B->A:  (X 0.000000i, Y 0.000000i, Z 0.000000i)

 Electronic circular dichroism (ECD):
 Transition dipole moment/angular momentum:
   A->B->A:  (X 0.000000, Y 0.000000, Z 0.000000)
   Rotatory strength, length gauge (a.u.): -0.000000
   Rotatory strength, length gauge (1.0e-40 cgs): -0.000000
 Transition linear momentum/angular momentum:
   A->B->A:  (X 0.000000, Y 0.000000, Z 0.000000)
   Rotatory strength, velocity gauge (a.u.): 0.000000
   Rotatory strength, velocity gauge (1.0e-40 cgs): 0.000000

 Norm of one-particle transition density matrix:
   A->B: 0.341681;   B->A: 0.338528
   ||gamma^AB||*||gamma^BA||: 0.115668

 ------------------------------------------------------------------------------
 State A: eomee_mp2/rhfref/singlets: 3/A2
 State B: eomee_mp2/rhfref/singlets: 4/A2
 Energy GAP = 0.030901 a.u. = 0.840868 eV
 Transition dipole moment (a.u.):
   A->B: 0.025321 (X 0.000000, Y 0.000000, Z 0.025321)
   B->A: 0.025277 (X 0.000000, Y 0.000000, Z 0.025277)
 Oscillator strength (a.u.): 0.000013
 Transition angular momentum against gauge origin (a.u.):
   A->B:  (X 0.000000i, Y 0.000000i, Z 0.000000i)
   B->A:  (X 0.000000i, Y 0.000000i, Z 0.000000i)

 Electronic circular dichroism (ECD):
 Transition dipole moment/angular momentum:
   A->B->A:  (X 0.000000, Y 0.000000, Z 0.000000)
   Rotatory strength, length gauge (a.u.): -0.000000
   Rotatory strength, length gauge (1.0e-40 cgs): -0.000000
 Transition linear momentum/angular momentum:
   A->B->A:  (X 0.000000, Y 0.000000, Z 0.000000)
   Rotatory strength, velocity gauge (a.u.): -0.000000
   Rotatory strength, velocity gauge (1.0e-40 cgs): -0.000000

 Norm of one-particle transition density matrix:
   A->B: 0.699618;   B->A: 0.699045
   ||gamma^AB||*||gamma^BA||: 0.489064

 ------------------------------------------------------------------------------
 State A: eomee_mp2/rhfref/singlets: 3/A2
 State B: eomee_mp2/rhfref/singlets: 5/A2
 Energy GAP = 0.096250 a.u. = 2.619098 eV
 Transition dipole moment (a.u.):
   A->B: 0.023031 (X 0.000000, Y 0.000000, Z 0.023031)
   B->A: 0.022671 (X 0.000000, Y 0.000000, Z 0.022671)
 Oscillator strength (a.u.): 0.000034
 Transition angular momentum against gauge origin (a.u.):
   A->B:  (X 0.000000i, Y 0.000000i, Z 0.000000i)
   B->A:  (X 0.000000i, Y 0.000000i, Z 0.000000i)

 Electronic circular dichroism (ECD):
 Transition dipole moment/angular momentum:
   A->B->A:  (X 0.000000, Y 0.000000, Z 0.000000)
   Rotatory strength, length gauge (a.u.): 0.000000
   Rotatory strength, length gauge (1.0e-40 cgs): 0.000000
 Transition linear momentum/angular momentum:
   A->B->A:  (X 0.000000, Y 0.000000, Z 0.000000)
   Rotatory strength, velocity gauge (a.u.): 0.000000
   Rotatory strength, velocity gauge (1.0e-40 cgs): 0.000000

 Norm of one-particle transition density matrix:
   A->B: 0.697737;   B->A: 0.697759
   ||gamma^AB||*||gamma^BA||: 0.486853

 ------------------------------------------------------------------------------
 State A: eomee_mp2/rhfref/singlets: 3/A2
 State B: eomee_mp2/rhfref/singlets: 6/A2
 Energy GAP = 0.112987 a.u. = 3.074521 eV
 Transition dipole moment (a.u.):
   A->B: 1.691257 (X 0.000000, Y 0.000000, Z -1.691257)
   B->A: 1.684234 (X 0.000000, Y 0.000000, Z -1.684234)
 Oscillator strength (a.u.): 0.214559
 Transition angular momentum against gauge origin (a.u.):
   A->B:  (X 0.000000i, Y 0.000000i, Z 0.000000i)
   B->A:  (X 0.000000i, Y 0.000000i, Z 0.000000i)

 Electronic circular dichroism (ECD):
 Transition dipole moment/angular momentum:
   A->B->A:  (X 0.000000, Y 0.000000, Z 0.000000)
   Rotatory strength, length gauge (a.u.): 0.000000
   Rotatory strength, length gauge (1.0e-40 cgs): 0.000000
 Transition linear momentum/angular momentum:
   A->B->A:  (X 0.000000, Y 0.000000, Z 0.000000)
   Rotatory strength, velocity gauge (a.u.): 0.000000
   Rotatory strength, velocity gauge (1.0e-40 cgs): 0.000000

 Norm of one-particle transition density matrix:
   A->B: 0.699137;   B->A: 0.699824
   ||gamma^AB||*||gamma^BA||: 0.489273

 ------------------------------------------------------------------------------
 State A: eomee_mp2/rhfref/singlets: 3/A2
 State B: eomee_mp2/rhfref/singlets: 7/A2
 Energy GAP = 0.177578 a.u. = 4.832155 eV
 Transition dipole moment (a.u.):
   A->B: 0.008951 (X 0.000000, Y 0.000000, Z 0.008951)
   B->A: 0.008203 (X 0.000000, Y 0.000000, Z 0.008203)
 Oscillator strength (a.u.): 0.000009
 Transition angular momentum against gauge origin (a.u.):
   A->B:  (X 0.000000i, Y 0.000000i, Z 0.000000i)
   B->A:  (X 0.000000i, Y 0.000000i, Z 0.000000i)

 Electronic circular dichroism (ECD):
 Transition dipole moment/angular momentum:
   A->B->A:  (X 0.000000, Y 0.000000, Z 0.000000)
   Rotatory strength, length gauge (a.u.): -0.000000
   Rotatory strength, length gauge (1.0e-40 cgs): -0.000000
 Transition linear momentum/angular momentum:
   A->B->A:  (X 0.000000, Y 0.000000, Z 0.000000)
   Rotatory strength, velocity gauge (a.u.): 0.000000
   Rotatory strength, velocity gauge (1.0e-40 cgs): 0.000000

 Norm of one-particle transition density matrix:
   A->B: 0.698076;   B->A: 0.698629
   ||gamma^AB||*||gamma^BA||: 0.487696

 ------------------------------------------------------------------------------
 State A: eomee_mp2/rhfref/singlets: 3/A2
 State B: eomee_mp2/rhfref/singlets: 8/A2
 Energy GAP = 0.221863 a.u. = 6.037203 eV
 Transition dipole moment (a.u.):
   A->B: 0.000504 (X 0.000000, Y 0.000000, Z -0.000504)
   B->A: 0.000660 (X 0.000000, Y 0.000000, Z -0.000660)
 Oscillator strength (a.u.): 0.000000
 Transition angular momentum against gauge origin (a.u.):
   A->B:  (X 0.000000i, Y 0.000000i, Z 0.000000i)
   B->A:  (X 0.000000i, Y 0.000000i, Z 0.000000i)

 Electronic circular dichroism (ECD):
 Transition dipole moment/angular momentum:
   A->B->A:  (X 0.000000, Y 0.000000, Z 0.000000)
   Rotatory strength, length gauge (a.u.): 0.000000
   Rotatory strength, length gauge (1.0e-40 cgs): 0.000000
 Transition linear momentum/angular momentum:
   A->B->A:  (X 0.000000, Y 0.000000, Z 0.000000)
   Rotatory strength, velocity gauge (a.u.): 0.000000
   Rotatory strength, velocity gauge (1.0e-40 cgs): 0.000000

 Norm of one-particle transition density matrix:
   A->B: 0.016329;   B->A: 0.017286
   ||gamma^AB||*||gamma^BA||: 0.000282

 ------------------------------------------------------------------------------
 State A: eomee_mp2/rhfref/singlets: 3/A2
 State B: eomee_mp2/rhfref/singlets: 9/A2
 Energy GAP = 0.223587 a.u. = 6.084111 eV
 Transition dipole moment (a.u.):
   A->B: 0.007107 (X 0.000000, Y 0.000000, Z -0.007107)
   B->A: 0.006530 (X 0.000000, Y 0.000000, Z -0.006530)
 Oscillator strength (a.u.): 0.000007
 Transition angular momentum against gauge origin (a.u.):
   A->B:  (X 0.000000i, Y 0.000000i, Z 0.000000i)
[...]
   Rotatory strength, length gauge (1.0e-40 cgs): 0.000000
 Transition linear momentum/angular momentum:
   A->B->A:  (X 0.000000, Y 0.000000, Z 0.000000)
   Rotatory strength, velocity gauge (a.u.): -0.000000
   Rotatory strength, velocity gauge (1.0e-40 cgs): -0.000000

 Norm of one-particle transition density matrix:
   A->B: 0.629231;   B->A: 0.631190
   ||gamma^AB||*||gamma^BA||: 0.397164


 All requested transition properties have been computed

 Transition Properties:   CPU 215.31 s  wall 38.72 s

Starting Projected CAP calculation.
Generating CAP matrix for 10 roots.
Performing Projected CAP-EOM calculation for A2 states.
Number of states: 10
Zeroth order Hamiltonian:
-7.88804628826234904e+01 0.00000000000000000e+00 0.00000000000000000e+00 0.00000000000000000e+00 0.00000000000000000e+00 0.00000000000000000e+00 0.00000000000000000e+00 0.00000000000000000e+00 0.00000000000000000e+00 0.00000000000000000e+00
0.00000000000000000e+00 -7.88549726277747141e+01 0.00000000000000000e+00 0.00000000000000000e+00 0.00000000000000000e+00 0.00000000000000000e+00 0.00000000000000000e+00 0.00000000000000000e+00 0.00000000000000000e+00 0.00000000000000000e+00
0.00000000000000000e+00 0.00000000000000000e+00 -7.88217793374670350e+01 0.00000000000000000e+00 0.00000000000000000e+00 0.00000000000000000e+00 0.00000000000000000e+00 0.00000000000000000e+00 0.00000000000000000e+00 0.00000000000000000e+00
0.00000000000000000e+00 0.00000000000000000e+00 0.00000000000000000e+00 -7.87908780315614194e+01 0.00000000000000000e+00 0.00000000000000000e+00 0.00000000000000000e+00 0.00000000000000000e+00 0.00000000000000000e+00 0.00000000000000000e+00
0.00000000000000000e+00 0.00000000000000000e+00 0.00000000000000000e+00 0.00000000000000000e+00 -7.87255293210604492e+01 0.00000000000000000e+00 0.00000000000000000e+00 0.00000000000000000e+00 0.00000000000000000e+00 0.00000000000000000e+00
0.00000000000000000e+00 0.00000000000000000e+00 0.00000000000000000e+00 0.00000000000000000e+00 0.00000000000000000e+00 -7.87087928183111387e+01 0.00000000000000000e+00 0.00000000000000000e+00 0.00000000000000000e+00 0.00000000000000000e+00
0.00000000000000000e+00 0.00000000000000000e+00 0.00000000000000000e+00 0.00000000000000000e+00 0.00000000000000000e+00 0.00000000000000000e+00 -7.86442010172814179e+01 0.00000000000000000e+00 0.00000000000000000e+00 0.00000000000000000e+00
0.00000000000000000e+00 0.00000000000000000e+00 0.00000000000000000e+00 0.00000000000000000e+00 0.00000000000000000e+00 0.00000000000000000e+00 0.00000000000000000e+00 -7.85999163405059420e+01 0.00000000000000000e+00 0.00000000000000000e+00
0.00000000000000000e+00 0.00000000000000000e+00 0.00000000000000000e+00 0.00000000000000000e+00 0.00000000000000000e+00 0.00000000000000000e+00 0.00000000000000000e+00 0.00000000000000000e+00 -7.85981925071765914e+01 0.00000000000000000e+00
0.00000000000000000e+00 0.00000000000000000e+00 0.00000000000000000e+00 0.00000000000000000e+00 0.00000000000000000e+00 0.00000000000000000e+00 0.00000000000000000e+00 0.00000000000000000e+00 0.00000000000000000e+00 -7.85754108858366038e+01
CAP matrix:
-4.85519519135435331e+01 -2.86238897813572279e+01 2.83513925050285778e+01 -1.89232242948709448e+01 4.64641041967421664e+00 4.85093744540075929e-03 4.69610408496642506e+00 1.32851389524743600e-03 1.59745147195325926e-01 1.07082214254418240e+00
-2.86310032494440776e+01 -4.50352566418472975e+01 2.02353894346095657e+01 -2.42830100025165763e+00 -1.17265716594237244e+01 -3.80269077485575618e-02 6.77436303507477255e+00 -6.36891059019673890e-03 -8.74390219758109100e-02 -1.65509435948440964e+00
2.84948103806528010e+01 2.03361112879473325e+01 -3.34030017667171819e+01 2.68090560404792839e+01 -5.31914886258502051e+00 2.92484413903504456e-03 -8.26057333066061794e+00 2.29538045600006352e-04 1.83677412971268661e-01 7.77295636178491067e-01
-1.90838812795301536e+01 -2.44403786519238775e+00 2.69034626485746529e+01 -3.22208756074921183e+01 1.92825586640035453e+01 3.66353695995542405e-02 6.16570644285967084e+00 9.24665999925516555e-03 6.72098274421391362e-01 3.06136485948969428e+00
4.65955505468779840e+00 -1.17582353286952639e+01 -5.31245732212583732e+00 1.91704615341033424e+01 -3.11354477181958345e+01 -7.37019480591352694e-02 4.13058540789213957e+00 -1.46743013932787193e-02 -3.98748844005332614e-01 -6.58872681435471641e+00
4.15413419229950474e-03 -3.53421088872070271e-02 2.29836812283611309e-03 3.24027789650388198e-02 -6.75323644237899590e-02 -5.63765051034877374e+00 2.16053484214793548e-02 9.82106213857418271e-04 -2.17127389576225694e-03 -1.76032608810729602e-02
4.69702938823233662e+00 6.77506077958640507e+00 -8.21726545803212005e+00 6.11801482877874214e+00 4.12048767408251315e+00 2.36703104071973348e-02 -1.68066507019502360e+01 4.21325697418671813e-04 4.89434033805292268e-01 6.08916230862422303e-01
1.32845493112691577e-03 -6.06294334274768299e-03 3.96561585496702675e-05 8.55475679947424045e-03 -1.54974170181788502e-02 8.92877052682787206e-04 1.52110199501927354e-03 -1.88935718642955521e+01 -1.01627095475106677e-01 -1.28565292491712828e-02
1.53845766067546297e-01 -8.60801709160920470e-02 1.79491977276122677e-01 6.39965953385288611e-01 -4.00946157042161411e-01 -1.19379595265934387e-03 4.50630086486458525e-01 -1.03855881385262888e-01 -7.03128432497685765e+01 -7.93508719838583332e+00
1.05531120228889175e+00 -1.63847188530107113e+00 7.64607858263114615e-01 2.97798568485377491e+00 -6.51261273351279435e+00 -1.75864501191435804e-02 5.80979003269948224e-01 -1.61954323192260788e-02 -7.92935682457857727e+00 -3.66060254070987128e+01
Trajectory will be saved to A2_traj.out
Done with A2 states.
 Trajectory ran in:   CPU 0.01 s  wall 0.01 s
Total Projected CAP Hamiltonian:
Number of states: 10
Zeroth order Hamiltonian:
-7.88804628826234904e+01 0.00000000000000000e+00 0.00000000000000000e+00 0.00000000000000000e+00 0.00000000000000000e+00 0.00000000000000000e+00 0.00000000000000000e+00 0.00000000000000000e+00 0.00000000000000000e+00 0.00000000000000000e+00
0.00000000000000000e+00 -7.88549726277747141e+01 0.00000000000000000e+00 0.00000000000000000e+00 0.00000000000000000e+00 0.00000000000000000e+00 0.00000000000000000e+00 0.00000000000000000e+00 0.00000000000000000e+00 0.00000000000000000e+00
0.00000000000000000e+00 0.00000000000000000e+00 -7.88217793374670350e+01 0.00000000000000000e+00 0.00000000000000000e+00 0.00000000000000000e+00 0.00000000000000000e+00 0.00000000000000000e+00 0.00000000000000000e+00 0.00000000000000000e+00
0.00000000000000000e+00 0.00000000000000000e+00 0.00000000000000000e+00 -7.87908780315614194e+01 0.00000000000000000e+00 0.00000000000000000e+00 0.00000000000000000e+00 0.00000000000000000e+00 0.00000000000000000e+00 0.00000000000000000e+00
0.00000000000000000e+00 0.00000000000000000e+00 0.00000000000000000e+00 0.00000000000000000e+00 -7.87255293210604492e+01 0.00000000000000000e+00 0.00000000000000000e+00 0.00000000000000000e+00 0.00000000000000000e+00 0.00000000000000000e+00
0.00000000000000000e+00 0.00000000000000000e+00 0.00000000000000000e+00 0.00000000000000000e+00 0.00000000000000000e+00 -7.87087928183111387e+01 0.00000000000000000e+00 0.00000000000000000e+00 0.00000000000000000e+00 0.00000000000000000e+00
0.00000000000000000e+00 0.00000000000000000e+00 0.00000000000000000e+00 0.00000000000000000e+00 0.00000000000000000e+00 0.00000000000000000e+00 -7.86442010172814179e+01 0.00000000000000000e+00 0.00000000000000000e+00 0.00000000000000000e+00
0.00000000000000000e+00 0.00000000000000000e+00 0.00000000000000000e+00 0.00000000000000000e+00 0.00000000000000000e+00 0.00000000000000000e+00 0.00000000000000000e+00 -7.85999163405059420e+01 0.00000000000000000e+00 0.00000000000000000e+00
0.00000000000000000e+00 0.00000000000000000e+00 0.00000000000000000e+00 0.00000000000000000e+00 0.00000000000000000e+00 0.00000000000000000e+00 0.00000000000000000e+00 0.00000000000000000e+00 -7.85981925071765914e+01 0.00000000000000000e+00
0.00000000000000000e+00 0.00000000000000000e+00 0.00000000000000000e+00 0.00000000000000000e+00 0.00000000000000000e+00 0.00000000000000000e+00 0.00000000000000000e+00 0.00000000000000000e+00 0.00000000000000000e+00 -7.85754108858366038e+01
CAP matrix:
-4.85519519135435331e+01 -2.86238897813572279e+01 2.83513925050285778e+01 -1.89232242948709448e+01 4.64641041967421664e+00 4.85093744540075929e-03 4.69610408496642506e+00 1.32851389524743600e-03 1.59745147195325926e-01 1.07082214254418240e+00
-2.86310032494440776e+01 -4.50352566418472975e+01 2.02353894346095657e+01 -2.42830100025165763e+00 -1.17265716594237244e+01 -3.80269077485575618e-02 6.77436303507477255e+00 -6.36891059019673890e-03 -8.74390219758109100e-02 -1.65509435948440964e+00
2.84948103806528010e+01 2.03361112879473325e+01 -3.34030017667171819e+01 2.68090560404792839e+01 -5.31914886258502051e+00 2.92484413903504456e-03 -8.26057333066061794e+00 2.29538045600006352e-04 1.83677412971268661e-01 7.77295636178491067e-01
-1.90838812795301536e+01 -2.44403786519238775e+00 2.69034626485746529e+01 -3.22208756074921183e+01 1.92825586640035453e+01 3.66353695995542405e-02 6.16570644285967084e+00 9.24665999925516555e-03 6.72098274421391362e-01 3.06136485948969428e+00
4.65955505468779840e+00 -1.17582353286952639e+01 -5.31245732212583732e+00 1.91704615341033424e+01 -3.11354477181958345e+01 -7.37019480591352694e-02 4.13058540789213957e+00 -1.46743013932787193e-02 -3.98748844005332614e-01 -6.58872681435471641e+00
4.15413419229950474e-03 -3.53421088872070271e-02 2.29836812283611309e-03 3.24027789650388198e-02 -6.75323644237899590e-02 -5.63765051034877374e+00 2.16053484214793548e-02 9.82106213857418271e-04 -2.17127389576225694e-03 -1.76032608810729602e-02
4.69702938823233662e+00 6.77506077958640507e+00 -8.21726545803212005e+00 6.11801482877874214e+00 4.12048767408251315e+00 2.36703104071973348e-02 -1.68066507019502360e+01 4.21325697418671813e-04 4.89434033805292268e-01 6.08916230862422303e-01
1.32845493112691577e-03 -6.06294334274768299e-03 3.96561585496702675e-05 8.55475679947424045e-03 -1.54974170181788502e-02 8.92877052682787206e-04 1.52110199501927354e-03 -1.88935718642955521e+01 -1.01627095475106677e-01 -1.28565292491712828e-02
1.53845766067546297e-01 -8.60801709160920470e-02 1.79491977276122677e-01 6.39965953385288611e-01 -4.00946157042161411e-01 -1.19379595265934387e-03 4.50630086486458525e-01 -1.03855881385262888e-01 -7.03128432497685765e+01 -7.93508719838583332e+00
1.05531120228889175e+00 -1.63847188530107113e+00 7.64607858263114615e-01 2.97798568485377491e+00 -6.51261273351279435e+00 -1.75864501191435804e-02 5.80979003269948224e-01 -1.61954323192260788e-02 -7.92935682457857727e+00 -3.66060254070987128e+01
 Total ccman2 time:   CPU 2133.76 s  wall 310.19 s

 
 --------------------------------------------------------------
             Orbital Energies (a.u.) and Symmetries
 --------------------------------------------------------------
 
 Alpha MOs, Restricted
 -- Occupied --                  
-11.175 -11.173  -0.986  -0.728  -0.607  -0.515  -0.463  -0.324
  1 A1    1 B1    2 A1    2 B1    3 A1    4 A1    3 B1    1 B2                 
 -0.029
  5 A1                                                                         
 -- Virtual --                   
  0.045   0.053   0.054   0.054   0.068   0.072   0.076   0.080
  4 B1    2 B2    6 A1    1 A2    5 B1    6 B1    7 A1    3 B2                 
  0.085   0.085   0.094   0.096   0.106   0.112   0.125   0.129
  8 A1    2 A2    9 A1    7 B1   10 A1    8 B1    4 B2    3 A2                 
  0.131   0.140   0.144   0.177   0.178   0.187   0.194   0.202
 11 A1    9 B1   12 A1   10 B1    4 A2   13 A1    5 B2   14 A1                 
  0.203   0.205   0.210   0.223   0.237   0.238   0.240   0.245
  6 B2   15 A1   11 B1   12 B1    5 A2   13 B1   16 A1    6 A2                 
  0.249   0.287   0.292   0.299   0.309   0.329   0.348   0.353
  7 B2   14 B1   17 A1   15 B1    7 A2   18 A1   19 A1    8 B2                 
  0.354   0.381   0.403   0.408   0.429   0.444   0.455   0.487
 16 B1   20 A1    8 A2   17 B1   21 A1    9 B2   18 B1   22 A1                 
  0.496   0.528   0.539   0.541   0.549   0.561   0.625   0.643
 23 A1   19 B1   20 B1   24 A1    9 A2   10 B2   21 B1   22 B1                 
  0.687   0.709   0.751   0.760   0.812   0.818   0.822   0.845
 10 A2   25 A1   26 A1   23 B1   11 B2   27 A1   28 A1   24 B1                 
  0.863   0.889   0.917   0.925   1.031   1.058   1.076   1.116
 29 A1   25 B1   11 A2   30 A1   26 B1   27 B1   12 B2   13 B2                 
  1.117   1.118   1.135   1.193   1.197   1.204   1.256   1.259
 28 B1   31 A1   14 B2   32 A1   12 A2   29 B1   13 A2   33 A1                 
  1.283   1.316   1.333   1.429   1.476   1.559   1.575   1.606
 15 B2   16 B2   30 B1   34 A1   31 B1   14 A2   35 A1   36 A1                 
  1.678   1.717   1.737   1.789   1.918   2.058   2.083   2.155
 37 A1   32 B1   15 A2   33 B1   34 B1   38 A1   35 B1   36 B1                 
  2.632   2.789   2.800   2.814   2.834   2.856   2.920   2.954
 17 B2   39 A1   40 A1   41 A1   16 A2   42 A1   43 A1   37 B1                 
  2.972   3.049   3.050   3.124   3.158   3.189   3.217   3.282
 18 B2   19 B2   38 B1   39 B1   20 B2   44 A1   45 A1   17 A2                 
  3.320   3.321   3.344   3.516   3.522   3.537   3.559   3.569
 18 A2   21 B2   46 A1   40 B1   47 A1   19 A2   20 A2   41 B1                 
  3.584   3.608   3.670   3.698   3.715   3.844   3.844   3.844
 42 B1   43 B1   22 B2   23 B2   48 A1   24 B2   44 B1   49 A1                 
  3.844   3.844   3.851   3.878   4.034   4.061   4.078   4.083
 21 A2   50 A1   51 A1   45 B1   22 A2   46 B1   47 B1   52 A1                 
  4.114   4.120   4.171   4.275   4.284   4.284   4.285   4.341
 25 B2   53 A1   23 A2   48 B1   26 B2   49 B1   54 A1   55 A1                 
  4.353   4.403   4.408   4.421   4.650   4.669   4.720   4.758
 27 B2   50 B1   24 A2   28 B2   51 B1   56 A1   25 A2   57 A1                 
  4.851   4.909   5.000   5.104   5.143   5.219   5.278   5.367
 52 B1   26 A2   29 B2   58 A1   53 B1   59 A1   30 B2   54 B1                 
  5.419   5.481   5.537   5.596   5.730   5.778   6.165   6.241
 60 A1   27 A2   55 B1   28 A2   61 A1   62 A1   56 B1   57 B1                 
  6.372   6.719   6.951  12.980  15.423
 63 A1   58 B1   59 B1   64 A1   60 B1                                         
 
 Beta MOs, Restricted
 -- Occupied --                  
-11.175 -11.173  -0.986  -0.728  -0.607  -0.515  -0.463  -0.324
  1 A1    1 B1    2 A1    2 B1    3 A1    4 A1    3 B1    1 B2                 
 -0.029
  5 A1                                                                         
 -- Virtual --                   
  0.045   0.053   0.054   0.054   0.068   0.072   0.076   0.080
  4 B1    2 B2    6 A1    1 A2    5 B1    6 B1    7 A1    3 B2                 
  0.085   0.085   0.094   0.096   0.106   0.112   0.125   0.129
  8 A1    2 A2    9 A1    7 B1   10 A1    8 B1    4 B2    3 A2                 
  0.131   0.140   0.144   0.177   0.178   0.187   0.194   0.202
 11 A1    9 B1   12 A1   10 B1    4 A2   13 A1    5 B2   14 A1                 
  0.203   0.205   0.210   0.223   0.237   0.238   0.240   0.245
  6 B2   15 A1   11 B1   12 B1    5 A2   13 B1   16 A1    6 A2                 
  0.249   0.287   0.292   0.299   0.309   0.329   0.348   0.353
  7 B2   14 B1   17 A1   15 B1    7 A2   18 A1   19 A1    8 B2                 
  0.354   0.381   0.403   0.408   0.429   0.444   0.455   0.487
 16 B1   20 A1    8 A2   17 B1   21 A1    9 B2   18 B1   22 A1                 
  0.496   0.528   0.539   0.541   0.549   0.561   0.625   0.643
 23 A1   19 B1   20 B1   24 A1    9 A2   10 B2   21 B1   22 B1                 
  0.687   0.709   0.751   0.760   0.812   0.818   0.822   0.845
 10 A2   25 A1   26 A1   23 B1   11 B2   27 A1   28 A1   24 B1                 
  0.863   0.889   0.917   0.925   1.031   1.058   1.076   1.116
 29 A1   25 B1   11 A2   30 A1   26 B1   27 B1   12 B2   13 B2                 
  1.117   1.118   1.135   1.193   1.197   1.204   1.256   1.259
 28 B1   31 A1   14 B2   32 A1   12 A2   29 B1   13 A2   33 A1                 
  1.283   1.316   1.333   1.429   1.476   1.559   1.575   1.606
 15 B2   16 B2   30 B1   34 A1   31 B1   14 A2   35 A1   36 A1                 
  1.678   1.717   1.737   1.789   1.918   2.058   2.083   2.155
 37 A1   32 B1   15 A2   33 B1   34 B1   38 A1   35 B1   36 B1                 
  2.632   2.789   2.800   2.814   2.834   2.856   2.920   2.954
 17 B2   39 A1   40 A1   41 A1   16 A2   42 A1   43 A1   37 B1                 
  2.972   3.049   3.050   3.124   3.158   3.189   3.217   3.282
 18 B2   19 B2   38 B1   39 B1   20 B2   44 A1   45 A1   17 A2                 
  3.320   3.321   3.344   3.516   3.522   3.537   3.559   3.569
 18 A2   21 B2   46 A1   40 B1   47 A1   19 A2   20 A2   41 B1                 
  3.584   3.608   3.670   3.698   3.715   3.844   3.844   3.844
 42 B1   43 B1   22 B2   23 B2   48 A1   24 B2   44 B1   49 A1                 
  3.844   3.844   3.851   3.878   4.034   4.061   4.078   4.083
 21 A2   50 A1   51 A1   45 B1   22 A2   46 B1   47 B1   52 A1                 
  4.114   4.120   4.171   4.275   4.284   4.284   4.285   4.341
 25 B2   53 A1   23 A2   48 B1   26 B2   49 B1   54 A1   55 A1                 
  4.353   4.403   4.408   4.421   4.650   4.669   4.720   4.758
 27 B2   50 B1   24 A2   28 B2   51 B1   56 A1   25 A2   57 A1                 
  4.851   4.909   5.000   5.104   5.143   5.219   5.278   5.367
 52 B1   26 A2   29 B2   58 A1   53 B1   59 A1   30 B2   54 B1                 
  5.419   5.481   5.537   5.596   5.730   5.778   6.165   6.241
 60 A1   27 A2   55 B1   28 A2   61 A1   62 A1   56 B1   57 B1                 
  6.372   6.719   6.951  12.980  15.423
 63 A1   58 B1   59 B1   64 A1   60 B1                                         
 --------------------------------------------------------------
 
          Ground-State Mulliken Net Atomic Charges

     Atom                 Charge (a.u.)
  ----------------------------------------
      1 C                    -0.440619
      2 C                    -0.440619
      3 H                     0.169525
      4 H                     0.169525
      5 H                     0.185057
      6 H                     0.185057
      7 H                    -0.827926
  ----------------------------------------
  Sum of atomic charges =    -1.000000

 -----------------------------------------------------------------
                    Cartesian Multipole Moments
 -----------------------------------------------------------------
    Charge (ESU x 10^10)
                -4.8032
    Dipole Moment (Debye)
         X      -0.0000      Y      -0.0000      Z     -40.6507
       Tot      40.6507
    Quadrupole Moments (Debye-Ang)
        XX     -31.4995     XY      -0.0000     YY     -31.5927
        XZ       0.0000     YZ       0.0000     ZZ    -424.2422
    Octopole Moments (Debye-Ang^2)
       XXX      -0.0000    XXY      -0.0000    XYY      -0.0000
       YYY      -0.0000    XXZ      -5.6959    XYZ       0.0000
       YYZ     -44.3093    XZZ      -0.0000    YZZ      -0.0000
       ZZZ   -3668.7952
    Hexadecapole Moments (Debye-Ang^3)
      XXXX   -1205.9064   XXXY      -0.0000   XXYY    -259.5904
      XYYY      -0.0000   YYYY    -594.6012   XXXZ       0.0000
      XXYZ       0.0000   XYYZ       0.0000   YYYZ       0.0000
      XXZZ   -1026.4784   XYZZ      -0.0000   YYZZ    -921.6619
      XZZZ       0.0000   YZZZ       0.0000   ZZZZ  -38377.3091
 -----------------------------------------------------------------
 Total job time:  342.18s(wall), 2218.60s(cpu) 
 Thu Apr 28 19:21:29 2022

        *************************************************************
        *                                                           *
        *  Thank you very much for using Q-Chem.  Have a nice day.  *
        *                                                           *
        *************************************************************


