CFour on node01
 --invoking executable--
/home/tsommerfeld/zscale/bin/xjoda


   *************************************************************************
         <<<     CCCCCC     CCCCCC   |||     CCCCCC     CCCCCC   >>>
       <<<      CCC        CCC       |||    CCC        CCC         >>>
      <<<      CCC        CCC        |||   CCC        CCC            >>>
    <<<        CCC        CCC        |||   CCC        CCC              >>>
      <<<      CCC        CCC        |||   CCC        CCC            >>>
       <<<      CCC        CCC       |||    CCC        CCC         >>>
         <<<     CCCCCC     CCCCCC   |||     CCCCCC     CCCCCC   >>>
   *************************************************************************

     ****************************************************************
     * CFOUR Coupled-Cluster techniques for Computational Chemistry *
     ****************************************************************
 

   Department of Chemistry                Institut fuer Physikalische Chemie
   University of Florida                  Universitaet Mainz
   Gainesville, FL 32611, USA             D-55099 Mainz, Germany

   Department of Chemistry                Department of Chemistry
   Johns Hopkins University               Southern Methodist University
   Baltimore, MD 21218, USA               Dallas, TX 75275, USA

   Institute of Nanotechnology            Department of Physical Chemistry
   Karlsruhe Inst. of Technology          Eotvos Lorand University
   D-76021 Karlsruhe, Germany             H-1053 Budapest, Hungary

 
                       Version 2.1
 
                     node01                                            
                     Tue May  3 11:09:10 CDT 2022                      
                     integer*8 version is running
 
********************************************************************************
*                          Input from ZMAT file                                *
********************************************************************************
h_ethylene                                                                      
C       0.000000      0.0   -0.664500                                           
C       0.000000      0.0    0.664500                                           
H       0.962348      0.0   -1.159080                                           
H       0.962348      0.0    1.159080                                           
H      -0.962348      0.0   -1.159080                                           
H      -0.962348      0.0    1.159080                                           
H      0.000000      4.866666666666667      0.000000                            
                                                                                
*CFOUR(CALC=CCSD(T)                                                             
#EXCITE=EOMEE                                                                   
#ESTATE_SYM=0/3/0/0                                                             
CC_PROG=VCC                                                                     
CHARGE=-1                                                                       
COORDINATES=CARTESIAN                                                           
BASIS=SPECIAL                                                                   
REFERENCE=RHF                                                                   
MEM_SIZE=90,MEM_UNIT=GB)                                                        
                                                                                
C:cc-pVTZ                                                                       
C:cc-pVTZ                                                                       
H:cc-pVTZ                                                                       
H:cc-pVTZ                                                                       
H:cc-pVTZ                                                                       
H:cc-pVTZ                                                                       
H:aug-cc-pVTZ                                                                   
                                                                                
********************************************************************************
  @GTFLGS-W, Keyword #EXCITE not known and is ignored.
  @GTFLGS-W, Keyword #ESTATE_SYM not known and is ignored.
    -------------------------------------------------------------------
                    CFOUR Control Parameters 
    -------------------------------------------------------------------
        External           Internal           Value            Units
          Name               Name
    -------------------------------------------------------------------
       ABCDTYPE             IABCDT         STANDARD    [  0]    ***   
       ANHARMONIC           IANHAR         OFF         [  0]    ***   
       ANH_ALGORIT          IANALG         STANDARD    [  0]    ***   
       ANH_DERIVAT          IANDER         SECOND      [  1]    ***   
       ANH_MODE             ANHMOD         VIBRATION   [  0]    ***   
       ANH_STEPSIZ          ICUBST             50000          x 10-6  
       ANH_SYMMETR          IANHSM         ABELIAN     [  0]    ***   
       AO_LADDERS           IAOLAD         SINGLEPASS  [  1]    ***   
       AV_SCF               IAVSCF         OFF         [  0]    ***   
       BASIS                IBASIS         SPECIAL     [  0]    ***   
       BOTHVECTORS          BOTHVC         OFF         [  0]    ***   
       BOX_POTENT           IPIAB          OFF         [  0]    ***   
       BREIT                IBREIT         OFF         [  0]    ***   
       BRUCK_CONV           IBRTOL          10D-  4             ***   
       BRUECKNER            IBRKNR         OFF         [  0]    ***   
       BUFFERSIZE           IBUFFS              4096            ***   
       CACHE_RECS           ICHREC             10               ***   
       CALCLEVEL            ICLLVL         CCSD(T)     [ 22]    ***   
       CCORBOPT             ICCORB         OFF         [  0]  x 0.01  
       CC_CONV              ICCCNV          10D-  7             ***   
       CC_EXPORDER          ICCEOR              5               ***   
       CC_EXTRAPOL          ICCEXT         DIIS        [  1]    ***   
       CC_GUESS             ICCGES         MP2         [  0]    ***   
       CC_MAXCYC            ICCCYC            100              cycles 
       CC_PROGRAM           ICCPRO         VCC         [  0]    ***   
       CHARGE               ICHRGE             -1               ***   
       CHOLESKY             ICHOLE         OFF         [  0]    ***   
       CIS_CONV             ICISTL              5               ***   
       COMM_SIZE            IPSIZE            ***               ***   
       CONSTANT             ICONST         OLD         [  1]    ***   
       CONTINUUM            ICONTU         NONE        [  0]    ***   
       CONTRACTION          ICNTYP         GENERAL     [  1]    ***   
       COORDINATES          ICOORD         CARTESIAN   [  1]    ***   
       CPHF_CONVER          ICPHFT          10D- 16             ***   
       CPHF_MAXCYC          ICPHFC             64              cycles 
       CUBIC                ICUBIC         OFF         [  0]    ***   
       CURVILINEAR          ICURVY         OFF         [  0]    ***   
       DBOC                 IDBOC          OFF         [  0]    ***   
       DCT                  IDCT           OFF         [  0]    ***   
       DERIV_LEV            IDRLVL         ZERO        [  0]    ***   
       DEVMEM_SIZE          IDVMEM         *********           MByte  
       DIAG_MRCC            IEOMST          10D-  0             ***   
       DIFF_TYPE            IDIFTY         RELAXED     [  0]    ***   
       DIRECT               IDIRCT         OFF         [  0]    ***   
       DROPMO               IDRPMO      NONE         
       ECP                  IECP           OFF         [  0]    ***   
       EIGENVECTOR          IVEC                1               ***   
       EL_ANHARM            IELANH         OFF         [  0]    ***   
       EOMFOLLOW            IEOMSR         ENERGY      [  0]    ***   
       EOMIP                IEOMIP         OFF         [  0]    ***   
       EOMLEVEL             HBARFM         SAME        [  0]    ***   
       EOM_MRCC             IMRCCE         NEW         [  1]    ***   
       EOM_NONIT            EOMNON         OFF         [  0]    ***   
       EOM_NSING            IEOMSI          10D-  0             ***   
       EOM_NSTATES          IMRCCD         DAVIDSON    [  0]    ***   
       EOM_NTRIP            IEOMTR          10D-  0             ***   
       EOM_ORDER            IEXORD         ENERGY      [  0]    ***   
       EOM_PROPSTA          IEOMST              0               ***   
       ESTATE_CONV          IEXTOL          10D-  5             ***   
       ESTATE_DIAG          IEXDIG         ITERATIVE   [  0]    ***   
       ESTATE_LOCK          IESLOC         ON          [  1]    ***   
       ESTATE_MAXC          IEXMXC             40               ***   
       ESTATE_PROP          IEXPRP         OFF         [  0]    ***   
       EVAL_HESS            IRECAL              0            # of cyc.
       EXCITATION           IEXCIT              0               ***   
       EXCITE               IEXCIT         NONE        [  0]    ***   
       EXTERN_POT           IEXPOT         OFF         [  0]    ***   
       FCGRADNEW            IFCGNW         OFF         [  0]    ***   
       FC_FIELD             IFINFC              0             x 10-6  
       FD_CALTYPE           IFDCAL         GRADONLY    [  0]    ***   
       FD_PROJECT           IFDPRJ         OFF         [  1]    ***   
       FD_STEPSIZE          IDISFD              0            10-4 bohr
       FD_USEGROUP          IFDGRP         FULL        [  0]    ***   
       FILE_RECSIZ          IFLREC              4096           words  
       FINITE_PERT          IFIPER              0             x 10-6  
       FIXGEOM              IFIXGM         OFF         [  0]    ***   
       FOCK                 IFOCK          AO          [  1]    ***   
       FREQ_ALGORI          IVIALG         STANDARD    [  0]    ***   
       FROZEN_CORE          IFROCO         OFF         [  0]    ***   
       GAMMA_ABCD           IGABCD         STORE       [  0]    ***   
       GAMMA_ABCI           IGABCI         STORE       [  0]    ***   
       GENBAS_1             IGNBS1              0               ***   
       GENBAS_2             IGNBS2              0               ***   
       GENBAS_3             IGNBS3              0               ***   
       GENBAS_4             IGNBS4              0               ***   
       GEO_CONV             ICONTL              5              H/bohr 
       GEO_MAXCYC           IOPTCY             50               ***   
       GEO_MAXSTEP          IMXSTP            300            millibohr
       GEO_METHOD           INR            SINGLE_POINT[  5]    ***   
       GIAO                 IGIAO          OFF         [  1]    ***   
       GIMIC                IGIMIC         OFF         [  0]    ***   
       GRID                 IGRID          OFF         [  0]    ***   
       GRID_ALGO            IGALGO         SERIAL      [  0]    ***   
       GUESS                IGUESS         MOREAD      [  0]    ***   
       HBAR                 IHBAR          OFF         [  0]    ***   
       HESS_TYPE            IHESTP         SCF         [  0]    ***   
       HF2_FILE             IHF2Fl         USE         [  1]    ***   
       HFSTABILITY          ISTABL         OFF         [  0]    ***   
       INCORE               INCORE         OFF         [  0]    ***   
       INPUT_MRCC           IMRCC          ON          [  1]    ***   
       INTEGRALS            INTTYP         VMOL        [  1]    ***   
       JODA_PRINT           IJPRNT              0               ***   
       KEYWORD_OUT          IDMPKW         NO          [  0]    ***   
       LINDEP_TOL           ILINDP              8               ***   
       LINEQ_CONV           IZTACN          10D-  7           cycles  
       LINEQ_EXPOR          ILMAXD              5               ***   
       LINEQ_MAXCY          ILMAXC            100               ***   
       LINEQ_TYPE           ILTYPE         DIIS        [  1]    ***   
       LOCK_ORBOCC          ILOCOC         OFF         [  0]    ***   
       MEMORY_SIZE          IMEMSZ         *********           words  
       MEM_UNIT             IMEMU          GB          [  3]    ***   
       MRCC                 IMRCCC         OFF         [  0]    ***   
       MULTIPLICTY          IMULTP              1               ***   
       NACOUPLING           IVCOUP         OFF         [  0]    ***   
       NEGEVAL              IDIE           ABORT       [  0]    ***   
       NEWNORM              INEWNO         OFF         [  0]    ***   
       NON-HF               INONHF         OFF         [  0]    ***   
       NTOP_TAMP            ITOPT2             15               ***   
       NUC_MODEL            INUCMO         POINT       [  0]    ***   
       OCCUPATION           IOCCU   ESTIMATED BY SCF 
       OPEN-SHELL           IOPEN          SPIN-ORBITAL[  0]    ***   
       OPTVIB               IOPTVB         OFF         [  0]    ***   
       ORBITALS             IORBTP         STANDARD    [  0]    ***   
       PARALLEL             IPARAL         ON          [  1]    ***   
       PARA_INT             IPINTS         ON          [  1]    ***   
       PARA_PRINT           IPPRIN              0               ***   
       PERT_ORB             IPTORB         STANDARD    [  0]    ***   
       POINTS               IGRDFD              0               ***   
       PRINT                IPRNT               0               ***   
       PROPS                IPROPS         OFF         [  0]    ***   
       PROP_INTEGR          IINTYP         INTERNAL    [  0]    ***   
       PSI                  IPSI           OFF         [  0]    ***   
       QC_ALG               IQCALG         FLM         [  0]    ***   
       QC_LINALG            IQCLIN         TRIDIAG     [  2]    ***   
       QC_MAXCYC            IQCMAX          10D-100           cycles  
       QC_MAXSCFCY          IQCMSC          10D- 15           cycles  
       QC_RTRUST            IQCRTR          10D-  0           x 10-3  
       QC_SKIPSCF           IQCSKI         OFF         [  0]    ***   
       QC_START             IQCSTA          10D-  1             ***   
       QRHFGUESS            IQGUES         OFF         [  0]    ***   
       QUARTIC              IQUART         OFF         [  0]    ***   
       RAMAN_INT            IRAMIN         OFF         [  0]    ***   
       RAMAN_ORB            IRAMRE         UNRELAXED   [  0]    ***   
       RDO                  IRDOFM         OFF         [  0]    ***   
       REDUCE_REPR          REDREP         Ir          [  0]    ***   
       REFERENCE            IREFNC         RHF         [  0]    ***   
       RELATIVIST           IRELAT         OFF         [  0]    ***   
       RELAX_DENS           IRDENS         OFF         [  0]    ***   
       RESET_FLAGS          IRESET         OFF         [  0]    ***   
       RESTART_CC           ICCRES         OFF         [  0]    ***   
       ROT_EVEC             ROTVEC              0               ***   
       SAVE_INTS            ISVINT         OFF         [  0]    ***   
       SCALE_ON             ISTCRT              0               ***   
       SCF_CONV             ISCFCV          10D-  7             ***   
       SCF_DAMPING          IDAMP               0             x 10-3  
       SCF_EXPORDE          IRPPOR              6               ***   
       SCF_EXPSTAR          IRPPLS              8               ***   
       SCF_EXTRAPO          IRPP           ON          [  1]    ***   
       SCF_MAXCYC           ISCFCY            150              cycles 
       SCF_NOSTOP           ISCFST         OFF         [  0]    ***   
       SCF_PRINT            ISCFPR              0               ***   
       SCF_PROG             ISCFPR         SCF         [  0]    ***   
       SD_FIELD             IFINSD              0             x 10-6  
       SOPERT               IPERSO         OFF         [  0]    ***   
       SPHERICAL            IDFGHI         ON          [  1]    ***   
       SPINORBIT            ISOCAL         OFF         [  0]    ***   
       SPINROTATIO          ISRCON         OFF         [  0]    ***   
       SPIN_FLIP            ISPFLP         OFF         [  0]    ***   
       SPIN_ORBIT           ISPORB         OFF         [  0]    ***   
       SPIN_SCAL            ISCSMP         OFF         [  0]    ***   
       STEEPSCALE           ISTPSC              1000          x 10-3  
       SUBGROUP             ISUBGP         DEFAULT     [  0]    ***   
       SUBGRPAXIS           ISBXYZ         X           [  0]    ***   
       SYMMETRY             ISYM           ON          [  0]    ***   
       SYM_CHECK            ISYMCK         OVERRIDE    [  1]    ***   
       T3_EXTRAPOL          IT3EXT         OFF         [  0]    ***   
       T4_EXTRAPOL          IT4EXP         OFF         [  0]    ***   
       TAMP_SUM             IEVERY              5               ***   
       TESTSUITE            ITESTS         OFF         [  0]    ***   
       THERMOCH             ITHERM         OFF         [  0]    ***   
       TOL_CHOLESK          ITOLCH          10D-  4             ***   
       TRANGRAD             IRESRM         OFF         [  0]    ***   
       TRANS_INV            ITRAIN         USE         [  0]    ***   
       TREAT_PERT           ITREAT         SIMULTANEOUS[  0]    ***   
       TRIP_ALGORI          ITRALG         NORMAL      [  0]    ***   
       UIJ_THRESHO          IUIJTH              1               ***   
       UNITS                IUNITS         ANGSTROM    [  0]    ***   
       UNOS                 IUNOS          OFF         [  0]    ***   
       UPDATE_HESS          IHUPDT         ON          [  1]    ***   
       VIBPHASE             ISETPH         STANDARD    [  0]    ***   
       VIBRATION            IVIB           NO          [  0]    ***   
       VIB_ALGORIT          IGEALG         STANDARD    [  0]    ***   
       VNATORB              IVNORB         OFF         [  0]    ***   
       VTRAN                IVTRAN         FULL/PARTIAL[  0]    ***   
       XFIELD               IXEFLD              0             x 10-6  
       XFORM_TOL            IXFTOL          10D- 11             ***   
       YFIELD               IYEFLD              0             x 10-6  
       ZFIELD               IZEFLD              0             x 10-6  
       ZSCALE_EXP           IZEXPS         OFF         [  0]    ***   
    -------------------------------------------------------------------
  @GETXYZ-I,     7 atoms read from ZMAT.
   Rotational constants (in cm-1): 
          0.4316413379             0.6296081328             0.8536890782
   Rotational constants (in MHz): 
      12940.2835784787         18875.1796160663         25592.9582983935
********************************************************************************
   The full molecular point group is C2v .
   The largest Abelian subgroup of the full molecular point group is C2v .
   The computational point group is C2v .
********************************************************************************


 ----------------------------------------------------------------
         Coordinates used in calculation (QCOMP) 
 ----------------------------------------------------------------
 Z-matrix   Atomic            Coordinates (in bohr)
  Symbol    Number           X              Y              Z
 ----------------------------------------------------------------
     C         6        -1.25572327     0.00000000    -0.31917743
     C         6         1.25572327     0.00000000    -0.31917743
     H         1        -2.19034422     1.81857454    -0.31917743
     H         1         2.19034422     1.81857454    -0.31917743
     H         1        -2.19034422    -1.81857454    -0.31917743
     H         1         2.19034422    -1.81857454    -0.31917743
     H         1         0.00000000     0.00000000     8.87749164
 ----------------------------------------------------------------
 
   Interatomic distance matrix (Angstroms) 
 
                 C             C             H             H             H    
                [ 1]        [ 2]        [ 3]        [ 4]        [ 5]
  C    [ 1]     0.00000
  C    [ 2]     1.32900     0.00000
  H    [ 3]     1.08200     2.06193     0.00000
  H    [ 4]     2.06193     1.08200     2.31816     0.00000
  H    [ 5]     1.08200     2.06193     1.92470     3.01303     0.00000
  H    [ 6]     2.06193     1.08200     3.01303     1.92470     2.31816
  H    [ 7]     4.91182     4.91182     5.09451     5.09451     5.09451
 
                 H             H    
                [ 6]        [ 7]
  H    [ 6]     0.00000
  H    [ 7]     5.09451     0.00000
 rotcon2
   Rotational constants (in cm-1): 
          0.6296081328             0.4316413379             0.8536890782
   Rotational constants (in MHz): 
      18875.1796160663         12940.2835784787         25592.9582983935
  ECPDATA file not present.   Using default ECPDATA. 
  @GTFLGS-W, Keyword #EXCITE not known and is ignored.
  @GTFLGS-W, Keyword #ESTATE_SYM not known and is ignored.
  There are  139 basis functions.
 @GEOPT-W, Archive file not created for single-point calculation.
 @CHECKOUT-I, Total execution time (CPU/WALL):        0.15/       0.17 seconds.
--executable xjoda finished with status     0 in        0.19 seconds (walltime).
 --invoking executable--
/home/tsommerfeld/zscale/bin/xvmol
 SERIAL VERSION OF MOLECULE STARTED
********************************************************************************
                    INPUT FROM MOL FILE
********************************************************************************
INTGRL        1    0    1    0    0    0    0    0    0                         
         *** CFOUR Program System (Release V0.1) ***                            
h_ethylene                                                                      
    3    2 X  Y       0.10E-08              0    0                              
   9999.00      3.00                                                            
          6.00000000    1    4    1    1    1    1                              
C #1  -1.255723272983657   0.000000000000000  -0.319177429372540                
   10    4                                                                      
   8236.00000000000       5.310000000000000E-004  0.000000000000000E+000        
 -1.130000000000000E-004  0.000000000000000E+000                                
   1235.00000000000       4.108000000000000E-003  0.000000000000000E+000        
 -8.780000000000000E-004  0.000000000000000E+000                                
   280.800000000000       2.108700000000000E-002  0.000000000000000E+000        
 -4.540000000000000E-003  0.000000000000000E+000                                
   79.2700000000000       8.185300000000000E-002  0.000000000000000E+000        
 -1.813300000000000E-002  0.000000000000000E+000                                
   25.5900000000000       0.234817000000000       0.000000000000000E+000        
 -5.576000000000000E-002  0.000000000000000E+000                                
   8.99700000000000       0.434401000000000       0.000000000000000E+000        
 -0.126895000000000       0.000000000000000E+000                                
   3.31900000000000       0.346129000000000       0.000000000000000E+000        
 -0.170352000000000       0.000000000000000E+000                                
  0.905900000000000       3.937800000000000E-002   1.00000000000000             
  0.140382000000000       0.000000000000000E+000                                
  0.364300000000000      -8.983000000000000E-003  0.000000000000000E+000        
  0.598684000000000       0.000000000000000E+000                                
  0.128500000000000       2.385000000000000E-003  0.000000000000000E+000        
  0.395389000000000        1.00000000000000                                     
    5    3                                                                      
   18.7100000000000       0.000000000000000E+000  1.403100000000000E-002        
  0.000000000000000E+000                                                        
   4.13300000000000       0.000000000000000E+000  8.686600000000000E-002        
  0.000000000000000E+000                                                        
   1.20000000000000       0.000000000000000E+000  0.290216000000000             
  0.000000000000000E+000                                                        
  0.382700000000000        1.00000000000000       0.501008000000000             
  0.000000000000000E+000                                                        
  0.120900000000000       0.000000000000000E+000  0.343406000000000             
   1.00000000000000                                                             
    2    2                                                                      
   1.09700000000000        1.00000000000000       0.000000000000000E+000        
  0.318000000000000       0.000000000000000E+000   1.00000000000000             
    1    1                                                                      
  0.761000000000000        1.00000000000000                                     
          1.00000000    1    3    1    1    1                                   
H #2  -2.190344215575466   1.818574537711477  -0.319177429372540                
    5    3                                                                      
   33.8700000000000       0.000000000000000E+000  6.068000000000000E-003        
  0.000000000000000E+000                                                        
   5.09500000000000       0.000000000000000E+000  4.530800000000000E-002        
  0.000000000000000E+000                                                        
   1.15900000000000       0.000000000000000E+000  0.202822000000000             
  0.000000000000000E+000                                                        
  0.325800000000000        1.00000000000000       0.503903000000000             
  0.000000000000000E+000                                                        
  0.102700000000000       0.000000000000000E+000  0.383421000000000             
   1.00000000000000                                                             
    2    2                                                                      
   1.40700000000000        1.00000000000000       0.000000000000000E+000        
  0.388000000000000       0.000000000000000E+000   1.00000000000000             
    1    1                                                                      
   1.05700000000000        1.00000000000000                                     
          1.00000000    1    3    1    1    1                                   
H #3   0.000000000000000   0.000000000000000   8.877491637876719                
    6    4                                                                      
   33.8700000000000       0.000000000000000E+000  6.068000000000000E-003        
  0.000000000000000E+000  0.000000000000000E+000                                
   5.09500000000000       0.000000000000000E+000  4.530800000000000E-002        
  0.000000000000000E+000  0.000000000000000E+000                                
   1.15900000000000       0.000000000000000E+000  0.202822000000000             
  0.000000000000000E+000  0.000000000000000E+000                                
  0.325800000000000        1.00000000000000       0.503903000000000             
  0.000000000000000E+000  0.000000000000000E+000                                
  0.102700000000000       0.000000000000000E+000  0.383421000000000             
   1.00000000000000       0.000000000000000E+000                                
  2.526000000000000E-002  0.000000000000000E+000  0.000000000000000E+000        
  0.000000000000000E+000   1.00000000000000                                     
    3    3                                                                      
   1.40700000000000        1.00000000000000       0.000000000000000E+000        
  0.000000000000000E+000                                                        
  0.388000000000000       0.000000000000000E+000   1.00000000000000             
  0.000000000000000E+000                                                        
  0.102000000000000       0.000000000000000E+000  0.000000000000000E+000        
   1.00000000000000                                                             
    2    2                                                                      
   1.05700000000000        1.00000000000000       0.000000000000000E+000        
  0.247000000000000       0.000000000000000E+000   1.00000000000000             
FINISH                                                                          
 
********************************************************************************
 ONE- AND TWO-ELECTRON INTEGRALS OVER SYMMETRY-ADAPTED AOS ARE CALCULATED.

  SPHERICAL HARMONICS ARE USED.
  
  INTEGRALS LESS THAN  0.10E-13 ARE NEGLECTED.

  NUCLEAR REPULSION ENERGY :   35.2975282292 A.U.
  @MOLECU-I, ONE ELECTRON INTEGRALS (CPU/WALL):        0.04/       0.04 SECONDS.
  @TWOEL-I,     677846 INTEGRALS OF SYMMETRY TYPE  I I I I
  @TWOEL-I,    2905254 INTEGRALS OF SYMMETRY TYPE  I J I J
  @TWOEL-I,    1579213 INTEGRALS OF SYMMETRY TYPE  I I J J
  @TWOEL-I,    2502056 INTEGRALS OF SYMMETRY TYPE  I J K L
  @TWOEL-I, TOTAL NUMBER OF 2-E INTEGRALS    7664369.
  @MOLECU-I, TWO ELECTRON INTEGRALS (CPU/WALL):       45.90/       4.99 SECONDS.
 @CHECKOUT-I, Total execution time (CPU/WALL):       45.95/       5.05 seconds.

Running with 12 threads/proc

--executable xvmol finished with status     0 in        5.07 seconds (walltime).
 --invoking executable--
/home/tsommerfeld/zscale/bin/xvmol2ja
 @GETMEM-I,  Allocated   85830 MB of main memory.
 @CHECKOUT-I, Total execution time (CPU/WALL):        0.11/       0.02 seconds.
--executable xvmol2ja finished with status     0 in        0.05 seconds (walltime).
 --invoking executable--
/home/tsommerfeld/zscale/bin/xvscf
  There are  139 functions in the AO basis.

  There are 4 irreducible representations.

       Irrep        # of functions
         1                 45
         2                 39
         3                 29
         4                 26


  Parameters for SCF calculation: 
        SCF reference function:  RHF  
  Maximum number of iterations:  150
     Full symmetry point group: C2v 
     Computational point group: C2v 
        Initial density matrix: MOREAD                 
     SCF convergence tolerance: 10**(- 7)
  DIIS convergence acceleration:  ON
          Latest start for DIIS:   8
                     DIIS order:   6

  Memory information:     823082 words required.
  Fock matrices are constructed from AO integral file.
 @GETMEM-I,  Allocated       6 MB of main memory.
  Initialization and symmetry analysis required      0.002 seconds.

  @INITGES-I, Occupancies from core Hamiltonian:

          Alpha population by irrep:   4    3    1    1
           Beta population by irrep:   4    3    1    1


 total no. of electrons in initial guess :  0.000000000000000E+000
  --------------------------------------------------------------------
  Iteration         Total Energy            Largest Density Difference
  --------------------------------------------------------------------
       0            35.297528229171050              0.0000000000D+00
   current occupation vector 
     4  3  1  1
     4  3  1  1
       1           -51.800778626779248              0.8750358569D+01
   current occupation vector 
     4  3  1  1
     4  3  1  1
       2           -45.830050684964561              0.3014782445D+02
   current occupation vector 
     5  3  1  0
     5  3  1  0
       3           -68.184151005415970              0.2989203626D+02
   current occupation vector 
     4  3  1  1
     4  3  1  1
       4           -54.203289696709859              0.1328482382D+02
   current occupation vector 
     5  3  1  0
     5  3  1  0
       5           -69.237004220716400              0.1324813907D+02
   current occupation vector 
     4  3  1  1
     4  3  1  1
       6           -55.452105780913683              0.9073962594D+01
   current occupation vector 
     5  3  1  0
     5  3  1  0
       7           -69.559892688903915              0.9084880797D+01
   current occupation vector 
     4  3  1  1
     4  3  1  1
       8           -55.716869135865593              0.7929131932D+01
   current occupation vector 
     5  3  1  0
     5  3  1  0
       9           -75.786065673918927              0.8063961687D+01
   current occupation vector 
     4  3  1  1
     4  3  1  1
      10           -77.545583904805241              0.9144217207D+00
   current occupation vector 
     4  3  1  1
     4  3  1  1
      11           -78.309561652575113              0.1888876165D+01
   current occupation vector 
     5  2  1  1
     5  2  1  1
      12           -78.435047938110600              0.4717108195D+00
   current occupation vector 
     5  2  1  1
     5  2  1  1
      13           -78.528845848284362              0.4072768778D+00
   current occupation vector 
     5  2  1  1
     5  2  1  1
      14           -78.544644494671729              0.1560012757D+00
   current occupation vector 
     5  2  1  1
     5  2  1  1
      15           -78.544878607023534              0.3428576739D-01
   current occupation vector 
     5  2  1  1
     5  2  1  1
      16           -78.544889319268179              0.7429060524D-02
   current occupation vector 
     5  2  1  1
     5  2  1  1
      17           -78.544889426631471              0.5486484623D-03
   current occupation vector 
     5  2  1  1
     5  2  1  1
      18           -78.544889430036449              0.1139902457D-03
   current occupation vector 
     5  2  1  1
     5  2  1  1
      19           -78.544889430225638              0.1878732418D-04
   current occupation vector 
     5  2  1  1
     5  2  1  1
      20           -78.544889430233056              0.1850807999D-05
   current occupation vector 
     5  2  1  1
     5  2  1  1
      21           -78.544889430234150              0.1199071430D-05
   current occupation vector 
     5  2  1  1
     5  2  1  1
      22           -78.544889430234406              0.2350311945D-06
   current occupation vector 
     5  2  1  1
     5  2  1  1

  SCF has converged.

 Density matrix saved to file den.dat
 total electron number:   18.0000000000001     
     E(SCF)=       -78.544889430234562              0.2430536364D-07


  Final occupancies:

     Alpha population by irrep:   5    2    1    1
      Beta population by irrep:   5    2    1    1


  Eigenvector printing suppressed.

 @PUTMOS-I, Writing converged MOs to NEWMOS. 
 @PUTMOS-I, Symmetry   1 Full Blocks 11 Partial Blocksize   1
 @PUTMOS-I, Symmetry   2 Full Blocks  9 Partial Blocksize   3
 @PUTMOS-I, Symmetry   3 Full Blocks  7 Partial Blocksize   1
 @PUTMOS-I, Symmetry   4 Full Blocks  6 Partial Blocksize   2
 @PUTFOCK-I, Writing converged Fock matrix to NEWFOCK. 
 @PUTFOCK-I, Symmetry   1 Full Blocks 11 Partial Blocksize   1
 @PUTFOCK-I, Symmetry   2 Full Blocks  9 Partial Blocksize   3
 @PUTFOCK-I, Symmetry   3 Full Blocks  7 Partial Blocksize   1
 @PUTFOCK-I, Symmetry   4 Full Blocks  6 Partial Blocksize   2


 
  ORBITAL EIGENVALUES (ALPHA)  (1H = 27.2113834 eV)

       MO #        E(hartree)               E(eV)           FULLSYM    COMPSYM
       ----   --------------------   --------------------   -------   ---------
    1     1         -11.1219356067        -302.6432539430      A1        A1 (1)
    2    46         -11.1201714322        -302.5952483164      B1        B1 (2)
    3     2          -0.9329898808         -25.3879453551      A1        A1 (1)
    4    47          -0.6760588306         -18.3964960403      B1        B1 (2)
    5    85          -0.5551472807         -15.1063254986      B2        B2 (3)
    6     3          -0.4623564707         -12.5813591914      A1        A1 (1)
    7   114          -0.4112946512         -11.1918964430      A2        A2 (4)
    8     4          -0.2704517678          -7.3593667445      A1        A1 (1)
    9     5          -0.0438580662          -1.1934386542      A1        A1 (1)
  +++++++++++++++++++++++++++++++++++++++++++++++++++++++++++++++++++++++++++++
   10     6           0.2380343687           6.4772444689      A1        A1 (1)
   11    48           0.2601954903           7.0802792458      B1        B1 (2)
   12     7           0.2702182650           7.3530128100      A1        A1 (1)
   13    86           0.2825654687           7.6889973034      B2        B2 (3)
   14    49           0.2899359534           7.8895583885      B1        B1 (2)
   15   115           0.3351408667           9.1196466169      A2        A2 (4)
   16     8           0.4382384437          11.9250743130      A1        A1 (1)
   17    50           0.4500473390          12.2464106899      B1        B1 (2)
   18    87           0.4504816160          12.2582279675      B2        B2 (3)
   19    51           0.4546089687          12.3705389432      B1        B1 (2)
   20     9           0.4637260281          12.6186267420      A1        A1 (1)
   21    10           0.5596178188          15.2279750249      A1        A1 (1)
   22    88           0.5761031339          15.6765632544      B2        B2 (3)
   23    11           0.6203387110          16.8802745031      A1        A1 (1)
   24    52           0.6680182438          18.1777005514      B1        B1 (2)
   25    89           0.6982039647          18.9990957748      B2        B2 (3)
   26    53           0.7025975882          19.1186523476      B1        B1 (2)
   27    12           0.7267343716          19.7754476147      A1        A1 (1)
   28    54           0.7421406502          20.1946737693      B1        B1 (2)
   29    90           0.7728786349          21.0310968546      B2        B2 (3)
   30    13           0.7902910073          21.5049115971      A1        A1 (1)
   31   116           0.7952601602          21.6401291208      A2        A2 (4)
   32    55           0.8879079560          24.1612038146      B1        B1 (2)
   33   117           0.9323991242          25.3718700499      A2        A2 (4)
   34    14           1.0031334538          27.2966490116      A1        A1 (1)
   35   118           1.0087012286          27.4481558684      A2        A2 (4)
   36    15           1.0894702435          29.6459924998      A1        A1 (1)
   37    91           1.1030933100          30.0166949837      B2        B2 (3)
   38   119           1.1037404717          30.0343051496      A2        A2 (4)
   39    16           1.1037597337          30.0348292947      A1        A1 (1)
   40    56           1.1041381292          30.0451259608      B1        B1 (2)
   41    17           1.1058510671          30.0917373701      A1        A1 (1)
   42   120           1.1232880681          30.5662222907      A2        A2 (4)
   43    92           1.1424193435          31.0868107602      B2        B2 (3)
   44    18           1.2847070919          34.9586572331      A1        A1 (1)
   45    57           1.2862657990          35.0010718111      B1        B1 (2)
   46    19           1.3260707141          36.0842186155      A1        A1 (1)
   47    93           1.3407167701          36.4827580621      B2        B2 (3)
   48    58           1.3427553346          36.5382302219      B1        B1 (2)
   49    94           1.3590127845          36.9806179251      B2        B2 (3)
   50    20           1.3689694335          37.2515521175      A1        A1 (1)
   51    59           1.4248433021          38.7719573789      B1        B1 (2)
   52    95           1.4482358194          39.4085001363      B2        B2 (3)
   53    60           1.4703504961          40.0102710810      B1        B1 (2)
   54    96           1.5657052556          42.6050060018      B2        B2 (3)
   55    61           1.5806247212          43.0109852991      B1        B1 (2)
   56    21           1.6141110103          43.9221935508      A1        A1 (1)
   57    62           1.6398853252          44.6235483156      B1        B1 (2)
   58   121           1.6989052999          46.2295634757      A2        A2 (4)
   59   122           1.7409755463          47.3743530807      A2        A2 (4)
   60    63           1.9040495521          51.8118223742      B1        B1 (2)
   61    22           1.9555084234          53.2120894522      A1        A1 (1)
   62   123           2.0734547081          56.4215710234      A2        A2 (4)
   63    23           2.4006711768          65.3255838085      A1        A1 (1)
   64    24           2.4828920326          67.5629270389      A1        A1 (1)
   65    25           2.6534143877          72.2030762228      A1        A1 (1)
   66    64           2.6704987586          72.6679655889      B1        B1 (2)
   67    97           2.7286515744          74.2503841568      B2        B2 (3)
   68    98           2.8137329096          76.5655649888      B2        B2 (3)
   69    65           2.8453805363          77.4267406917      B1        B1 (2)
   70    26           2.8667222638          78.0074786220      A1        A1 (1)
   71   124           2.9461519343          80.1688698394      A2        A2 (4)
   72    27           2.9842529061          81.2056499896      A1        A1 (1)
   73    99           3.0203656256          82.1883270477      B2        B2 (3)
   74   125           3.1688351526          86.2283882689      A2        A2 (4)
   75    28           3.2033694489          87.1681142452      A1        A1 (1)
   76   100           3.2124958288          87.4164556686      B2        B2 (3)
   77    29           3.2144496243          87.4696211478      A1        A1 (1)
   78   101           3.2253931980          87.7674109272      B2        B2 (3)
   79   126           3.2576541111          88.6452750014      A2        A2 (4)
   80    30           3.2844211429          89.3736429667      A1        A1 (1)
   81    66           3.3343788214          90.7330605104      B1        B1 (2)
   82    67           3.3697594720          91.6958169579      B1        B1 (2)
   83   102           3.4418800394          93.6583173696      B2        B2 (3)
   84    68           3.5071221722          95.4336460585      B1        B1 (2)
   85    69           3.5310306416          96.0842285853      B1        B1 (2)
   86   127           3.5315171047          96.0974659199      A2        A2 (4)
   87   128           3.5511003815          96.6303539742      A2        A2 (4)
   88    70           3.5584832948          96.8312532575      B1        B1 (2)
   89    31           3.6557883285          99.4790578369      A1        A1 (1)
   90    32           3.6820148792         100.1927185621      A1        A1 (1)
   91   103           3.7456048188         101.9230887904      B2        B2 (3)
   92   104           3.8260284085         104.1115259232      B2        B2 (3)
   93   129           3.9198966055         106.6658094217      A2        A2 (4)
   94    71           3.9809262860         108.3265114554      B1        B1 (2)
   95   130           4.0157880967         109.2751495523      A2        A2 (4)
   96    72           4.0724337292         110.8165555774      B1        B1 (2)
   97   131           4.0811040492         111.0524869792      A2        A2 (4)
   98    33           4.1112528707         111.8728781198      A1        A1 (1)
   99   105           4.1155221733         111.9890517492      B2        B2 (3)
  100    34           4.1617874830         113.2479948300      A1        A1 (1)
  101    35           4.2186464343         114.7952055532      A1        A1 (1)
  102   132           4.2186577446         114.7955133215      A2        A2 (4)
  103   106           4.2187699756         114.7985672822      B2        B2 (3)
  104    73           4.2193436146         114.8141767926      B1        B1 (2)
  105    36           4.2203133945         114.8405658451      A1        A1 (1)
  106    74           4.2881961564         116.6877497057      B1        B1 (2)
  107   133           4.2952120397         116.8786615978      A2        A2 (4)
  108    37           4.2977060598         116.9465273332      A1        A1 (1)
  109   107           4.3060210217         117.1727889490      B2        B2 (3)
  110    38           4.4306966966         120.5653865408      A1        A1 (1)
  111    75           4.4459445143         120.9803007533      B1        B1 (2)
  112   108           4.4471222139         121.0123475893      B2        B2 (3)
  113    76           4.4568082594         121.2759182877      B1        B1 (2)
  114    39           4.4614859014         121.4032033972      A1        A1 (1)
  115   109           4.5732302599         124.4439219774      B2        B2 (3)
  116    77           4.6091667225         125.4218028411      B1        B1 (2)
  117   134           4.7107447728         128.1858821116      A2        A2 (4)
  118    40           4.7464534028         129.1575633347      A1        A1 (1)
  119    78           4.8626191615         132.3185943317      B1        B1 (2)
  120    79           4.9190318737         133.8536622717      B1        B1 (2)
  121    41           5.0327855622         136.9490575031      A1        A1 (1)
  122    42           5.0786326257         138.1966195246      A1        A1 (1)
  123   135           5.1315817994         139.6374397910      A2        A2 (4)
  124   110           5.2310533734         142.3441989298      B2        B2 (3)
  125   111           5.3211863439         144.7968417473      B2        B2 (3)
  126    43           5.4040380321         147.0513508003      A1        A1 (1)
  127    80           5.4082363020         147.1655915322      B1        B1 (2)
  128   136           5.5312451894         150.5128335288      A2        A2 (4)
  129   137           5.5461472607         150.9183395041      A2        A2 (4)
  130    81           5.6421360802         153.5303280732      B1        B1 (2)
  131    44           5.6675077522         154.2207263669      A1        A1 (1)
  132   112           5.7218652661         155.6998695181      B2        B2 (3)
  133    82           6.0612903807         164.9360964491      B1        B1 (2)
  134   138           6.1966456728         168.6193011954      A2        A2 (4)
  135   113           6.3746147709         173.4620865579      B2        B2 (3)
  136    83           6.6141701328         179.9807193559      B1        B1 (2)
  137   139           6.9775312943         189.8682792356      A2        A2 (4)
  138    45          12.0237468580         327.1827856585      A1        A1 (1)
  139    84          14.8554949166         404.2385677714      B1        B1 (2)


  VSCF finished.

 @CHECKOUT-I, Total execution time (CPU/WALL):       20.45/       1.72 seconds.
--executable xvscf finished with status     0 in        1.74 seconds (walltime).
 --invoking executable--
/home/tsommerfeld/zscale/bin/xvtran
 @GETMEM-I,  Allocated   85830 MB of main memory.
  Full RHF integral transformation
  Transformation of IIII integrals :
  1 pass through the AO integral file was required.
      677846 AO integrals were read.
      997326 MO integrals were written to HF2.
  Transformation of IIJJ integrals :
  1 pass through the AO integral file was required.
     1579213 AO integrals were read.
     2386575 MO integrals were written to HF2.
  Transformation of IJIJ integrals :
  1 pass through the AO integral file was required.
     2905254 AO integrals were read.
     4517476 MO integrals were written to HF2.
  Transformation of IJKL integrals :
  1 pass through the AO integral file was required.
     2502056 AO integrals were read.
     3969810 MO integrals were written to HF2.
  Summary of active molecular orbitals: 
------------------------------------------------------------------------
 
  Index      Eigenvalue    Symmetry    Index      Eigenvalue    Symmetry
------------------------------------------------------------------------
     1       -11.1219356        1        71         3.5310306        2
     2        -0.9329899        1        72         3.5584833        2
     3        -0.4623565        1        73         3.9809263        2
     4        -0.2704518        1        74         4.0724337        2
     5        -0.0438581        1        75         4.2193436        2
     6       -11.1201714        2        76         4.2881962        2
     7        -0.6760588        2        77         4.4459445        2
     8        -0.5551473        3        78         4.4568083        2
     9        -0.4112947        4        79         4.6091667        2
    10         0.2380344        1        80         4.8626192        2
    11         0.2702183        1        81         4.9190319        2
    12         0.4382384        1        82         5.4082363        2
    13         0.4637260        1        83         5.6421361        2
    14         0.5596178        1        84         6.0612904        2
    15         0.6203387        1        85         6.6141701        2
    16         0.7267344        1        86        14.8554949        2
    17         0.7902910        1        87         0.2825655        3
    18         1.0031335        1        88         0.4504816        3
    19         1.0894702        1        89         0.5761031        3
    20         1.1037597        1        90         0.6982040        3
    21         1.1058511        1        91         0.7728786        3
    22         1.2847071        1        92         1.1030933        3
    23         1.3260707        1        93         1.1424193        3
    24         1.3689694        1        94         1.3407168        3
    25         1.6141110        1        95         1.3590128        3
    26         1.9555084        1        96         1.4482358        3
    27         2.4006712        1        97         1.5657053        3
    28         2.4828920        1        98         2.7286516        3
    29         2.6534144        1        99         2.8137329        3
    30         2.8667223        1       100         3.0203656        3
    31         2.9842529        1       101         3.2124958        3
    32         3.2033694        1       102         3.2253932        3
    33         3.2144496        1       103         3.4418800        3
    34         3.2844211        1       104         3.7456048        3
    35         3.6557883        1       105         3.8260284        3
    36         3.6820149        1       106         4.1155222        3
    37         4.1112529        1       107         4.2187700        3
    38         4.1617875        1       108         4.3060210        3
    39         4.2186464        1       109         4.4471222        3
    40         4.2203134        1       110         4.5732303        3
    41         4.2977061        1       111         5.2310534        3
    42         4.4306967        1       112         5.3211863        3
    43         4.4614859        1       113         5.7218653        3
    44         4.7464534        1       114         6.3746148        3
    45         5.0327856        1       115         0.3351409        4
    46         5.0786326        1       116         0.7952602        4
    47         5.4040380        1       117         0.9323991        4
    48         5.6675078        1       118         1.0087012        4
    49        12.0237469        1       119         1.1037405        4
    50         0.2601955        2       120         1.1232881        4
    51         0.2899360        2       121         1.6989053        4
    52         0.4500473        2       122         1.7409755        4
    53         0.4546090        2       123         2.0734547        4
    54         0.6680182        2       124         2.9461519        4
    55         0.7025976        2       125         3.1688352        4
    56         0.7421407        2       126         3.2576541        4
    57         0.8879080        2       127         3.5315171        4
    58         1.1041381        2       128         3.5511004        4
    59         1.2862658        2       129         3.9198966        4
    60         1.3427553        2       130         4.0157881        4
    61         1.4248433        2       131         4.0811040        4
    62         1.4703505        2       132         4.2186577        4
    63         1.5806247        2       133         4.2952120        4
    64         1.6398853        2       134         4.7107448        4
    65         1.9040496        2       135         5.1315818        4
    66         2.6704988        2       136         5.5312452        4
    67         2.8453805        2       137         5.5461473        4
    68         3.3343788        2       138         6.1966457        4
    69         3.3697595        2       139         6.9775313        4
    70         3.5071222        2
------------------------------------------------------------------------
  -11.1219356066638      -0.932989880810467      -0.462356470689491     
 -0.270451767787520      -4.385806618823290E-002  -11.1201714322383     
 -0.676058830595461      -0.555147280699162      -0.411294651157901     
  0.238034368694329       0.270218264976230       0.438238443732653     
  0.463726028055419       0.559617818803712       0.620338711006564     
  0.726734371567952       0.790291007294032        1.00313345375980     
   1.08947024353631        1.10375973368058        1.10585106709896     
   1.28470709185198        1.32607071405080        1.36896943348827     
   1.61411101027637        1.95550842344008        2.40067117677409     
   2.48289203256391        2.65341438769902        2.86672226381702     
   2.98425290606937        3.20336944887574        3.21444962433656     
   3.28442114290689        3.65578832853022        3.68201487918889     
   4.11125287072907        4.16178748302691        4.21864643431426     
   4.22031339447145        4.29770605978043        4.43069669662012     
   4.46148590141704        4.74645340283318        5.03278556220344     
   5.07863262566168        5.40403803212310        5.66750775217319     
   12.0237468580338       0.260195490309320       0.289935953366202     
  0.450047339006765       0.454608968658573       0.668018243843392     
  0.702597588170558       0.742140650199612       0.887907955998745     
   1.10413812922212        1.28626579900755        1.34275533458781     
   1.42484330211820        1.47035049607135        1.58062472116410     
   1.63988532518263        1.90404955207862        2.67049875857920     
   2.84538053628365        3.33437882141575        3.36975947198309     
   3.50712217220391        3.53103064158519        3.55848329480825     
   3.98092628599688        4.07243372923723        4.21934361457691     
   4.28819615638299        4.44594451428333        4.45680825943213     
   4.60916672252449        4.86261916149755        4.91903187368688     
   5.40823630202529        5.64213608019778        6.06129038074317     
   6.61417013277812        14.8554949165645       0.282565468664988     
  0.450481615996269       0.576103133896200       0.698203964696527     
  0.772878634850249        1.10309330997471        1.14241934352276     
   1.34071677010482        1.35901278452002        1.44823581943827     
   1.56570525561035        2.72865157442849        2.81373290961687     
   3.02036562564967        3.21249582880665        3.22539319802590     
   3.44188003942588        3.74560481884198        3.82602840850935     
   4.11552217331087        4.21876997559055        4.30602102166380     
   4.44712221390833        4.57323025985663        5.23105337341280     
   5.32118634392224        5.72186526606735        6.37461477088824     
  0.335140866704288       0.795260160157098       0.932399124182097     
   1.00870122863285        1.10374047170108        1.12328806813803     
   1.69890529989321        1.74097554631234        2.07345470805341     
   2.94615193431988        3.16883515260324        3.25765411108630     
   3.53151710470765        3.55110038154664        3.91989660554089     
   4.01578809669249        4.08110404924236        4.21865774459465     
   4.29521203974466        4.71074477277635        5.13158179936385     
   5.53124518942154        5.54614726071344        6.19664567275774     
   6.97753129433398     
 @CHECKOUT-I, Total execution time (CPU/WALL):       17.63/       2.38 seconds.
--executable xvtran finished with status     0 in        2.40 seconds (walltime).
 --invoking executable--
/home/tsommerfeld/zscale/bin/xintprc
 @GETMEM-I,  Allocated   85830 MB of main memory.
  @GMOIAA-I, Processing MO integrals for spin case AA.
  @GMOIAA-I, Generation of integral list completed.
                      TYPE                NUMBER
                      ----               --------
                      PPPP               9084376
                      PPPH               2501601
                      PPHH                173538
                      PHPH                 97627
                      PHHH                 13713
                      HHHH                   332

                     TOTAL              11871187

  @FORMT2-I, Second-order MP correlation energies:
            ------------------------------------------------
            E(SCF)                  =    -78.544889430235 a.u.
            E2(AA)                  =     -0.038054926998 a.u.
            E2(AB)                  =     -0.319662945331 a.u.
            E2(TOT)                 =     -0.395772799326 a.u.
            Total MP2 energy        =    -78.940662229561 a.u.
            ------------------------------------------------
   Largest T2 amplitudes for spin case AB:
       _       _                 _       _                 _       _
   i   j   a   b             i   j   a   b             i   j   a   b
-----------------------------------------------------------------------------
[  4   4  50  50]-0.08187 [  5   5  10  10]-0.05702 [  5   5  17  17]-0.04586
[  5   5  88  88]-0.04089 [  5   5  52  52]-0.04014 [  5   5  11  10] 0.03684
[  5   5  10  11] 0.03684 [  5   5  12  12]-0.03518 [  5   5  17  10] 0.03471
[  5   5  10  17] 0.03471 [  4   4  54  50]-0.03447 [  4   4  50  54]-0.03447
[  4   4  14  14]-0.02903 [  4   3  50  57] 0.02635 [  3   4  57  50] 0.02635
-----------------------------------------------------------------------------
   Norm of T2AB vector (   345906 symmetry allowed elements):  0.3323659442.
-----------------------------------------------------------------------------
 @CHECKOUT-I, Total execution time (CPU/WALL):        5.74/       2.77 seconds.
--executable xintprc finished with status     0 in        2.80 seconds (walltime).
  calling xvcc 
 --invoking executable--
/home/tsommerfeld/zscale/bin/xvcc
 @GETMEM-I,  Allocated   85830 MB of main memory.
   CCSD(T) energy will be calculated.
   The total correlation energy is -0.395772799326 a.u.
   The total correlation energy is -0.415545872415 a.u.
  Convergence information after     1 iterations: 
  Largest element of residual vector : -0.19053114E-01.
  Largest element of DIIS residual   : -0.19053114E-01.
   The total correlation energy is -0.426708313099 a.u.
  Convergence information after     2 iterations: 
  Largest element of residual vector : -0.10823607E-01.
  Largest element of DIIS residual   : -0.10581215E-01.
   The total correlation energy is -0.429592014254 a.u.
  Convergence information after     3 iterations: 
  Largest element of residual vector :  0.52579476E-02.
  Largest element of DIIS residual   :  0.53217444E-02.
   The total correlation energy is -0.431209209984 a.u.
  Convergence information after     4 iterations: 
  Largest element of residual vector :  0.30463535E-02.
  Largest element of DIIS residual   : -0.18286395E-02.
   The total correlation energy is -0.431379915741 a.u.
  Convergence information after     5 iterations: 
  Largest element of residual vector :  0.11113460E-02.
  Largest element of DIIS residual   :  0.55334357E-03.
   The total correlation energy is -0.431385772203 a.u.
  Convergence information after     6 iterations: 
  Largest element of residual vector : -0.34350573E-03.
  Largest element of DIIS residual   :  0.26346246E-03.
   The total correlation energy is -0.431380236122 a.u.
  Convergence information after     7 iterations: 
  Largest element of residual vector :  0.14977300E-03.
  Largest element of DIIS residual   :  0.86661542E-04.
   The total correlation energy is -0.431372212739 a.u.
  Convergence information after     8 iterations: 
  Largest element of residual vector :  0.52606035E-04.
  Largest element of DIIS residual   :  0.31457150E-04.
   The total correlation energy is -0.431371951169 a.u.
  Convergence information after     9 iterations: 
  Largest element of residual vector :  0.23167386E-04.
  Largest element of DIIS residual   : -0.15767218E-04.
   The total correlation energy is -0.431372597619 a.u.
  Convergence information after    10 iterations: 
  Largest element of residual vector :  0.76772209E-05.
  Largest element of DIIS residual   : -0.81014302E-05.
   The total correlation energy is -0.431373483521 a.u.
  Convergence information after    11 iterations: 
  Largest element of residual vector :  0.57943729E-05.
  Largest element of DIIS residual   :  0.56467058E-05.
   The total correlation energy is -0.431374036502 a.u.
  Convergence information after    12 iterations: 
  Largest element of residual vector : -0.28530302E-05.
  Largest element of DIIS residual   : -0.26633460E-05.
   The total correlation energy is -0.431374392655 a.u.
  Convergence information after    13 iterations: 
  Largest element of residual vector :  0.19916551E-05.
  Largest element of DIIS residual   :  0.11091041E-05.
   The total correlation energy is -0.431374517394 a.u.
  Convergence information after    14 iterations: 
  Largest element of residual vector : -0.62212838E-06.
  Largest element of DIIS residual   : -0.45291593E-06.
   The total correlation energy is -0.431374522006 a.u.
  Convergence information after    15 iterations: 
  Largest element of residual vector :  0.31356343E-06.
  Largest element of DIIS residual   :  0.21407277E-06.
   The total correlation energy is -0.431374507472 a.u.
  Convergence information after    16 iterations: 
  Largest element of residual vector : -0.13830772E-06.
  Largest element of DIIS residual   :  0.91707679E-07.
   The total correlation energy is -0.431374502278 a.u.
  Convergence information after    17 iterations: 
  Largest element of residual vector :  0.56420931E-07.
  Largest element of DIIS residual   : -0.31937099E-07.
  Amplitude equations converged in    17iterations.
   The total correlation energy is -0.431374497358 a.u.
   The CC iterations have converged.

   Largest T1 amplitudes for spin case AA:
   i       a                 i       a                 i       a    
-----------------------------------------------------------------------------
[  5      10    ] 0.02719 [  4      14    ] 0.01910 [  5      17    ] 0.01512
[  4      18    ]-0.01484 [  4      15    ]-0.01110 [  5      11    ]-0.00972
[  4      22    ] 0.00957 [  4      28    ]-0.00926 [  4      12    ] 0.00798
[  8      89    ]-0.00797 [  8      90    ] 0.00619 [  3      13    ] 0.00531
[  5      31    ] 0.00487 [  9     121    ]-0.00451 [  8      97    ]-0.00435
-----------------------------------------------------------------------------
   Norm of T1AA vector (      327 symmetry allowed elements):  0.0499029956.
-----------------------------------------------------------------------------
   Largest T2 amplitudes for spin case AB:
       _       _                 _       _                 _       _
   i   j   a   b             i   j   a   b             i   j   a   b
-----------------------------------------------------------------------------
[  4   4  50  50]-0.11499 [  5   5  10  10]-0.10395 [  5   5  17  10] 0.06952
[  5   5  10  17] 0.06952 [  5   5  11  10] 0.06726 [  5   5  10  11] 0.06726
[  5   5  17  17]-0.06173 [  5   5  88  88]-0.05413 [  5   5  52  52]-0.05309
[  4   4  54  50]-0.04791 [  4   4  50  54]-0.04791 [  5   5  12  12]-0.04619
[  5   5  17  11]-0.04587 [  5   5  11  17]-0.04587 [  5   5  11  11]-0.04443
-----------------------------------------------------------------------------
   Norm of T2AB vector (   345906 symmetry allowed elements):  0.4171914451.
-----------------------------------------------------------------------------
       Summary of iterative solution of CC equations 
      -----------------------------------------------------------
                       Correlation           Total
       Iteration         Energy              Energy
      -----------------------------------------------------------
            0        -0.395772799326     -78.940662229561  DIIS 
            1        -0.415545872415     -78.960435302650  DIIS 
            2        -0.426708313099     -78.971597743334  DIIS 
            3        -0.429592014254     -78.974481444488  DIIS 
            4        -0.431209209984     -78.976098640218  DIIS 
            5        -0.431379915741     -78.976269345975  DIIS 
            6        -0.431385772203     -78.976275202437  DIIS 
            7        -0.431380236122     -78.976269666356  DIIS 
            8        -0.431372212739     -78.976261642973  DIIS 
            9        -0.431371951169     -78.976261381403  DIIS 
           10        -0.431372597619     -78.976262027854  DIIS 
           11        -0.431373483521     -78.976262913755  DIIS 
           12        -0.431374036502     -78.976263466737  DIIS 
           13        -0.431374392655     -78.976263822890  DIIS 
           14        -0.431374517394     -78.976263947629  DIIS 
           15        -0.431374522006     -78.976263952240  DIIS 
           16        -0.431374507472     -78.976263937706  DIIS 
           17        -0.431374497358     -78.976263927592  DIIS 
      -----------------------------------------------------------
      A miracle has come to pass. The CC iterations have converged.
        E(CCSD)           =     -78.976263927592
        E(CCSD + T(CCSD)) =     -78.992222306807
        E(CCSD(T))        =     -78.991795149430
 @CHECKOUT-I, Total execution time (CPU/WALL):      208.41/      17.38 seconds.
--executable xvcc finished with status     0 in       17.41 seconds (walltime).
  The final electronic energy is       -78.991795149430118 a.u. 
  This computation required                           29.69 seconds (walltime).
