CFour on node02
 --invoking executable--
/home/tsommerfeld/zscale/bin/xjoda


   *************************************************************************
         <<<     CCCCCC     CCCCCC   |||     CCCCCC     CCCCCC   >>>
       <<<      CCC        CCC       |||    CCC        CCC         >>>
      <<<      CCC        CCC        |||   CCC        CCC            >>>
    <<<        CCC        CCC        |||   CCC        CCC              >>>
      <<<      CCC        CCC        |||   CCC        CCC            >>>
       <<<      CCC        CCC       |||    CCC        CCC         >>>
         <<<     CCCCCC     CCCCCC   |||     CCCCCC     CCCCCC   >>>
   *************************************************************************

     ****************************************************************
     * CFOUR Coupled-Cluster techniques for Computational Chemistry *
     ****************************************************************
 

   Department of Chemistry                Institut fuer Physikalische Chemie
   University of Florida                  Universitaet Mainz
   Gainesville, FL 32611, USA             D-55099 Mainz, Germany

   Department of Chemistry                Department of Chemistry
   Johns Hopkins University               Southern Methodist University
   Baltimore, MD 21218, USA               Dallas, TX 75275, USA

   Institute of Nanotechnology            Department of Physical Chemistry
   Karlsruhe Inst. of Technology          Eotvos Lorand University
   D-76021 Karlsruhe, Germany             H-1053 Budapest, Hungary

 
                       Version 2.1
 
                     node02                                            
                     Tue Mar 29 16:02:09 CST 2022                      
                     integer*8 version is running
 
********************************************************************************
*                          Input from ZMAT file                                *
********************************************************************************
h_ethylene                                                                      
C       0.000000      0.0   -0.664500                                           
C       0.000000      0.0    0.664500                                           
H       0.962348      0.0   -1.159080                                           
H       0.962348      0.0    1.159080                                           
H      -0.962348      0.0   -1.159080                                           
H      -0.962348      0.0    1.159080                                           
H      0.000000      0.8181818181818181      0.000000                           
                                                                                
*CFOUR(CALC=CCSD                                                                
EXCITE=EOMEE                                                                    
ESTATE_SYM=0/3/0/0                                                              
CC_PROG=VCC                                                                     
CHARGE=-1                                                                       
COORDINATES=CARTESIAN                                                           
BASIS=SPECIAL                                                                   
REFERENCE=RHF                                                                   
MEM_SIZE=90,MEM_UNIT=GB)                                                        
                                                                                
C:CC-PVDZ                                                                       
C:CC-PVDZ                                                                       
H:CC-PVDZ                                                                       
H:CC-PVDZ                                                                       
H:CC-PVDZ                                                                       
H:CC-PVDZ                                                                       
H:AUG-CC-PVDZ                                                                   
                                                                                
********************************************************************************
    -------------------------------------------------------------------
                    CFOUR Control Parameters 
    -------------------------------------------------------------------
        External           Internal           Value            Units
          Name               Name
    -------------------------------------------------------------------
       ABCDTYPE             IABCDT         STANDARD    [  0]    ***   
       ANHARMONIC           IANHAR         OFF         [  0]    ***   
       ANH_ALGORIT          IANALG         STANDARD    [  0]    ***   
       ANH_DERIVAT          IANDER         SECOND      [  1]    ***   
       ANH_MODE             ANHMOD         VIBRATION   [  0]    ***   
       ANH_STEPSIZ          ICUBST             50000          x 10-6  
       ANH_SYMMETR          IANHSM         ABELIAN     [  0]    ***   
       AO_LADDERS           IAOLAD         SINGLEPASS  [  1]    ***   
       AV_SCF               IAVSCF         OFF         [  0]    ***   
       BASIS                IBASIS         SPECIAL     [  0]    ***   
       BOTHVECTORS          BOTHVC         OFF         [  0]    ***   
       BOX_POTENT           IPIAB          OFF         [  0]    ***   
       BREIT                IBREIT         OFF         [  0]    ***   
       BRUCK_CONV           IBRTOL          10D-  4             ***   
       BRUECKNER            IBRKNR         OFF         [  0]    ***   
       BUFFERSIZE           IBUFFS              4096            ***   
       CACHE_RECS           ICHREC             10               ***   
       CALCLEVEL            ICLLVL         CCSD        [ 10]    ***   
       CCORBOPT             ICCORB         OFF         [  0]  x 0.01  
       CC_CONV              ICCCNV          10D-  7             ***   
       CC_EXPORDER          ICCEOR              5               ***   
       CC_EXTRAPOL          ICCEXT         DIIS        [  1]    ***   
       CC_GUESS             ICCGES         MP2         [  0]    ***   
       CC_MAXCYC            ICCCYC            100              cycles 
       CC_PROGRAM           ICCPRO         VCC         [  0]    ***   
       CHARGE               ICHRGE             -1               ***   
       CHOLESKY             ICHOLE         OFF         [  0]    ***   
       CIS_CONV             ICISTL              5               ***   
       COMM_SIZE            IPSIZE            ***               ***   
       CONSTANT             ICONST         OLD         [  1]    ***   
       CONTINUUM            ICONTU         NONE        [  0]    ***   
       CONTRACTION          ICNTYP         GENERAL     [  1]    ***   
       COORDINATES          ICOORD         CARTESIAN   [  1]    ***   
       CPHF_CONVER          ICPHFT          10D- 16             ***   
       CPHF_MAXCYC          ICPHFC             64              cycles 
       CUBIC                ICUBIC         OFF         [  0]    ***   
       CURVILINEAR          ICURVY         OFF         [  0]    ***   
       DBOC                 IDBOC          OFF         [  0]    ***   
       DCT                  IDCT           OFF         [  0]    ***   
       DERIV_LEV            IDRLVL         ZERO        [  0]    ***   
       DEVMEM_SIZE          IDVMEM         *********           MByte  
       DIAG_MRCC            IEOMST          10D-  0             ***   
       DIFF_TYPE            IDIFTY         RELAXED     [  0]    ***   
       DIRECT               IDIRCT         OFF         [  0]    ***   
       DROPMO               IDRPMO      NONE         
       ECP                  IECP           OFF         [  0]    ***   
       EIGENVECTOR          IVEC                1               ***   
       EL_ANHARM            IELANH         OFF         [  0]    ***   
       EOMFOLLOW            IEOMSR         ENERGY      [  0]    ***   
       EOMIP                IEOMIP         OFF         [  0]    ***   
       EOMLEVEL             HBARFM         SAME        [  0]    ***   
       EOM_MRCC             IMRCCE         NEW         [  1]    ***   
       EOM_NONIT            EOMNON         OFF         [  0]    ***   
       EOM_NSING            IEOMSI          10D-  0             ***   
       EOM_NSTATES          IMRCCD         DAVIDSON    [  0]    ***   
       EOM_NTRIP            IEOMTR          10D-  0             ***   
       EOM_ORDER            IEXORD         ENERGY      [  0]    ***   
       EOM_PROPSTA          IEOMST              0               ***   
       ESTATE_CONV          IEXTOL          10D-  5             ***   
       ESTATE_DIAG          IEXDIG         ITERATIVE   [  0]    ***   
       ESTATE_LOCK          IESLOC         ON          [  1]    ***   
       ESTATE_MAXC          IEXMXC             40               ***   
       ESTATE_PROP          IEXPRP         OFF         [  0]    ***   
       ESTATE_SYM           IEXSYM   0,  3,  0,  0,
       EVAL_HESS            IRECAL              0            # of cyc.
       EXCITATION           IEXCIT              0               ***   
       EXCITE               IEXCIT         EOMEE       [  3]    ***   
       EXTERN_POT           IEXPOT         OFF         [  0]    ***   
       FCGRADNEW            IFCGNW         OFF         [  0]    ***   
       FC_FIELD             IFINFC              0             x 10-6  
       FD_CALTYPE           IFDCAL         GRADONLY    [  0]    ***   
       FD_PROJECT           IFDPRJ         OFF         [  1]    ***   
       FD_STEPSIZE          IDISFD              0            10-4 bohr
       FD_USEGROUP          IFDGRP         FULL        [  0]    ***   
       FILE_RECSIZ          IFLREC              4096           words  
       FINITE_PERT          IFIPER              0             x 10-6  
       FIXGEOM              IFIXGM         OFF         [  0]    ***   
       FOCK                 IFOCK          AO          [  1]    ***   
       FREQ_ALGORI          IVIALG         STANDARD    [  0]    ***   
       FROZEN_CORE          IFROCO         OFF         [  0]    ***   
       GAMMA_ABCD           IGABCD         STORE       [  0]    ***   
       GAMMA_ABCI           IGABCI         STORE       [  0]    ***   
       GENBAS_1             IGNBS1              0               ***   
       GENBAS_2             IGNBS2              0               ***   
       GENBAS_3             IGNBS3              0               ***   
       GENBAS_4             IGNBS4              0               ***   
       GEO_CONV             ICONTL              5              H/bohr 
       GEO_MAXCYC           IOPTCY             50               ***   
       GEO_MAXSTEP          IMXSTP            300            millibohr
       GEO_METHOD           INR            SINGLE_POINT[  5]    ***   
       GIAO                 IGIAO          OFF         [  1]    ***   
       GIMIC                IGIMIC         OFF         [  0]    ***   
       GRID                 IGRID          OFF         [  0]    ***   
       GRID_ALGO            IGALGO         SERIAL      [  0]    ***   
       GUESS                IGUESS         MOREAD      [  0]    ***   
       HBAR                 IHBAR          ON          [  1]    ***   
       HESS_TYPE            IHESTP         SCF         [  0]    ***   
       HF2_FILE             IHF2Fl         USE         [  1]    ***   
       HFSTABILITY          ISTABL         OFF         [  0]    ***   
       INCORE               INCORE         OFF         [  0]    ***   
       INPUT_MRCC           IMRCC          ON          [  1]    ***   
       INTEGRALS            INTTYP         VMOL        [  1]    ***   
       JODA_PRINT           IJPRNT              0               ***   
       KEYWORD_OUT          IDMPKW         NO          [  0]    ***   
       LINDEP_TOL           ILINDP              8               ***   
       LINEQ_CONV           IZTACN          10D-  7           cycles  
       LINEQ_EXPOR          ILMAXD              5               ***   
       LINEQ_MAXCY          ILMAXC            100               ***   
       LINEQ_TYPE           ILTYPE         DIIS        [  1]    ***   
       LOCK_ORBOCC          ILOCOC         OFF         [  0]    ***   
       MEMORY_SIZE          IMEMSZ         *********           words  
       MEM_UNIT             IMEMU          GB          [  3]    ***   
       MRCC                 IMRCCC         OFF         [  0]    ***   
       MULTIPLICTY          IMULTP              1               ***   
       NACOUPLING           IVCOUP         OFF         [  0]    ***   
       NEGEVAL              IDIE           ABORT       [  0]    ***   
       NEWNORM              INEWNO         OFF         [  0]    ***   
       NON-HF               INONHF         OFF         [  0]    ***   
       NTOP_TAMP            ITOPT2             15               ***   
       NUC_MODEL            INUCMO         POINT       [  0]    ***   
       OCCUPATION           IOCCU   ESTIMATED BY SCF 
       OPEN-SHELL           IOPEN          SPIN-ORBITAL[  0]    ***   
       OPTVIB               IOPTVB         OFF         [  0]    ***   
       ORBITALS             IORBTP         STANDARD    [  0]    ***   
       PARALLEL             IPARAL         ON          [  1]    ***   
       PARA_INT             IPINTS         ON          [  1]    ***   
       PARA_PRINT           IPPRIN              0               ***   
       PERT_ORB             IPTORB         STANDARD    [  0]    ***   
       POINTS               IGRDFD              0               ***   
       PRINT                IPRNT               0               ***   
       PROPS                IPROPS         OFF         [  0]    ***   
       PROP_INTEGR          IINTYP         INTERNAL    [  0]    ***   
       PSI                  IPSI           OFF         [  0]    ***   
       QC_ALG               IQCALG         FLM         [  0]    ***   
       QC_LINALG            IQCLIN         TRIDIAG     [  2]    ***   
       QC_MAXCYC            IQCMAX          10D-100           cycles  
       QC_MAXSCFCY          IQCMSC          10D- 15           cycles  
       QC_RTRUST            IQCRTR          10D-  0           x 10-3  
       QC_SKIPSCF           IQCSKI         OFF         [  0]    ***   
       QC_START             IQCSTA          10D-  1             ***   
       QRHFGUESS            IQGUES         OFF         [  0]    ***   
       QUARTIC              IQUART         OFF         [  0]    ***   
       RAMAN_INT            IRAMIN         OFF         [  0]    ***   
       RAMAN_ORB            IRAMRE         UNRELAXED   [  0]    ***   
       RDO                  IRDOFM         OFF         [  0]    ***   
       REDUCE_REPR          REDREP         Ir          [  0]    ***   
       REFERENCE            IREFNC         RHF         [  0]    ***   
       RELATIVIST           IRELAT         OFF         [  0]    ***   
       RELAX_DENS           IRDENS         OFF         [  0]    ***   
       RESET_FLAGS          IRESET         OFF         [  0]    ***   
       RESTART_CC           ICCRES         OFF         [  0]    ***   
       ROT_EVEC             ROTVEC              0               ***   
       SAVE_INTS            ISVINT         OFF         [  0]    ***   
       SCALE_ON             ISTCRT              0               ***   
       SCF_CONV             ISCFCV          10D-  7             ***   
       SCF_DAMPING          IDAMP               0             x 10-3  
       SCF_EXPORDE          IRPPOR              6               ***   
       SCF_EXPSTAR          IRPPLS              8               ***   
       SCF_EXTRAPO          IRPP           ON          [  1]    ***   
       SCF_MAXCYC           ISCFCY            150              cycles 
       SCF_NOSTOP           ISCFST         OFF         [  0]    ***   
       SCF_PRINT            ISCFPR              0               ***   
       SCF_PROG             ISCFPR         SCF         [  0]    ***   
       SD_FIELD             IFINSD              0             x 10-6  
       SOPERT               IPERSO         OFF         [  0]    ***   
       SPHERICAL            IDFGHI         ON          [  1]    ***   
       SPINORBIT            ISOCAL         OFF         [  0]    ***   
       SPINROTATIO          ISRCON         OFF         [  0]    ***   
       SPIN_FLIP            ISPFLP         OFF         [  0]    ***   
       SPIN_ORBIT           ISPORB         OFF         [  0]    ***   
       SPIN_SCAL            ISCSMP         OFF         [  0]    ***   
       STEEPSCALE           ISTPSC              1000          x 10-3  
       SUBGROUP             ISUBGP         DEFAULT     [  0]    ***   
       SUBGRPAXIS           ISBXYZ         X           [  0]    ***   
       SYMMETRY             ISYM           ON          [  0]    ***   
       SYM_CHECK            ISYMCK         OVERRIDE    [  1]    ***   
       T3_EXTRAPOL          IT3EXT         OFF         [  0]    ***   
       T4_EXTRAPOL          IT4EXP         OFF         [  0]    ***   
       TAMP_SUM             IEVERY              5               ***   
       TESTSUITE            ITESTS         OFF         [  0]    ***   
       THERMOCH             ITHERM         OFF         [  0]    ***   
       TOL_CHOLESK          ITOLCH          10D-  4             ***   
       TRANGRAD             IRESRM         OFF         [  0]    ***   
       TRANS_INV            ITRAIN         USE         [  0]    ***   
       TREAT_PERT           ITREAT         SIMULTANEOUS[  0]    ***   
       TRIP_ALGORI          ITRALG         NORMAL      [  0]    ***   
       UIJ_THRESHO          IUIJTH              1               ***   
       UNITS                IUNITS         ANGSTROM    [  0]    ***   
       UNOS                 IUNOS          OFF         [  0]    ***   
       UPDATE_HESS          IHUPDT         ON          [  1]    ***   
       VIBPHASE             ISETPH         STANDARD    [  0]    ***   
       VIBRATION            IVIB           NO          [  0]    ***   
       VIB_ALGORIT          IGEALG         STANDARD    [  0]    ***   
       VNATORB              IVNORB         OFF         [  0]    ***   
       VTRAN                IVTRAN         FULL/PARTIAL[  0]    ***   
       XFIELD               IXEFLD              0             x 10-6  
       XFORM_TOL            IXFTOL          10D- 11             ***   
       YFIELD               IYEFLD              0             x 10-6  
       ZFIELD               IZEFLD              0             x 10-6  
       ZSCALE_EXP           IZEXPS         OFF         [  0]    ***   
    -------------------------------------------------------------------
  @GETXYZ-I,     7 atoms read from ZMAT.
   Rotational constants (in cm-1): 
          0.8536890782             1.0115828612             3.8446598775
   Rotational constants (in MHz): 
      25592.9582983935         30326.4954908657        115260.0196326723
********************************************************************************
   The full molecular point group is C2v .
   The largest Abelian subgroup of the full molecular point group is C2v .
   The computational point group is C2v .
********************************************************************************


 ----------------------------------------------------------------
         Coordinates used in calculation (QCOMP) 
 ----------------------------------------------------------------
 Z-matrix   Atomic            Coordinates (in bohr)
  Symbol    Number           X              Y              Z
 ----------------------------------------------------------------
     C         6        -1.25572327     0.00000000    -0.05365997
     C         6         1.25572327     0.00000000    -0.05365997
     H         1        -2.19034422     1.81857454    -0.05365997
     H         1         2.19034422     1.81857454    -0.05365997
     H         1        -2.19034422    -1.81857454    -0.05365997
     H         1         2.19034422    -1.81857454    -0.05365997
     H         1         0.00000000     0.00000000     1.49247991
 ----------------------------------------------------------------
 
   Interatomic distance matrix (Angstroms) 
 
                 C             C             H             H             H    
                [ 1]        [ 2]        [ 3]        [ 4]        [ 5]
  C    [ 1]     0.00000
  C    [ 2]     1.32900     0.00000
  H    [ 3]     1.08200     2.06193     0.00000
  H    [ 4]     2.06193     1.08200     2.31816     0.00000
  H    [ 5]     1.08200     2.06193     1.92470     3.01303     0.00000
  H    [ 6]     2.06193     1.08200     3.01303     1.92470     2.31816
  H    [ 7]     1.05403     1.05403     1.71435     1.71435     1.71435
 
                 H             H    
                [ 6]        [ 7]
  H    [ 6]     0.00000
  H    [ 7]     1.71435     0.00000
 rotcon2
   Rotational constants (in cm-1): 
          3.8446598775             1.0115828612             0.8536890782
   Rotational constants (in MHz): 
     115260.0196326723         30326.4954908657         25592.9582983935
  ECPDATA file not present.   Using default ECPDATA. 
  There are   57 basis functions.
 @GEOPT-W, Archive file not created for single-point calculation.
 @CHECKOUT-I, Total execution time (CPU/WALL):        0.14/       0.16 seconds.
--executable xjoda finished with status     0 in        0.17 seconds (walltime).
 --invoking executable--
/home/tsommerfeld/zscale/bin/xvmol
 SERIAL VERSION OF MOLECULE STARTED
********************************************************************************
                    INPUT FROM MOL FILE
********************************************************************************
INTGRL        1    0    1    0    0    0    0    0    0                         
         *** CFOUR Program System (Release V0.1) ***                            
h_ethylene                                                                      
    3    2 X  Y       0.10E-08              0    0                              
   9999.00      3.00                                                            
          6.00000000    1    3    1    1    1                                   
C #1  -1.255723272983657   0.000000000000000  -0.053659966332868                
    9    3                                                                      
   6665.00000000000       6.920000000000000E-004 -1.460000000000000E-004        
  0.000000000000000E+000                                                        
   1000.00000000000       5.329000000000000E-003 -1.154000000000000E-003        
  0.000000000000000E+000                                                        
   228.000000000000       2.707700000000000E-002 -5.725000000000000E-003        
  0.000000000000000E+000                                                        
   64.7100000000000       0.101718000000000      -2.331200000000000E-002        
  0.000000000000000E+000                                                        
   21.0600000000000       0.274740000000000      -6.395500000000000E-002        
  0.000000000000000E+000                                                        
   7.49500000000000       0.448564000000000      -0.149981000000000             
  0.000000000000000E+000                                                        
   2.79700000000000       0.285074000000000      -0.127262000000000             
  0.000000000000000E+000                                                        
  0.521500000000000       1.520400000000000E-002  0.544529000000000             
  0.000000000000000E+000                                                        
  0.159600000000000      -3.191000000000000E-003  0.580496000000000             
   1.00000000000000                                                             
    4    2                                                                      
   9.43900000000000       3.810900000000000E-002  0.000000000000000E+000        
   2.00200000000000       0.209480000000000       0.000000000000000E+000        
  0.545600000000000       0.508557000000000       0.000000000000000E+000        
  0.151700000000000       0.468842000000000        1.00000000000000             
    1    1                                                                      
  0.550000000000000        1.00000000000000                                     
          1.00000000    1    2    1    1                                        
H #2  -2.190344215575466   1.818574537711477  -0.053659966332868                
    4    2                                                                      
   13.0100000000000       1.968500000000000E-002  0.000000000000000E+000        
   1.96200000000000       0.137977000000000       0.000000000000000E+000        
  0.444600000000000       0.478148000000000       0.000000000000000E+000        
  0.122000000000000       0.501240000000000        1.00000000000000             
    1    1                                                                      
  0.727000000000000        1.00000000000000                                     
          1.00000000    1    2    1    1                                        
H #3   0.000000000000000   0.000000000000000   1.492479914213396                
    5    3                                                                      
   13.0100000000000       1.968500000000000E-002  0.000000000000000E+000        
  0.000000000000000E+000                                                        
   1.96200000000000       0.137977000000000       0.000000000000000E+000        
  0.000000000000000E+000                                                        
  0.444600000000000       0.478148000000000       0.000000000000000E+000        
  0.000000000000000E+000                                                        
  0.122000000000000       0.501240000000000        1.00000000000000             
  0.000000000000000E+000                                                        
  2.974000000000000E-002  0.000000000000000E+000  0.000000000000000E+000        
   1.00000000000000                                                             
    2    2                                                                      
  0.727000000000000        1.00000000000000       0.000000000000000E+000        
  0.141000000000000       0.000000000000000E+000   1.00000000000000             
FINISH                                                                          
 
********************************************************************************
 ONE- AND TWO-ELECTRON INTEGRALS OVER SYMMETRY-ADAPTED AOS ARE CALCULATED.

  SPHERICAL HARMONICS ARE USED.
  
  INTEGRALS LESS THAN  0.10E-13 ARE NEGLECTED.

  NUCLEAR REPULSION ENERGY :   40.8485230549 A.U.
  @MOLECU-I, ONE ELECTRON INTEGRALS (CPU/WALL):        0.01/       0.01 SECONDS.
  @TWOEL-I,      29572 INTEGRALS OF SYMMETRY TYPE  I I I I
  @TWOEL-I,     102291 INTEGRALS OF SYMMETRY TYPE  I J I J
  @TWOEL-I,      58089 INTEGRALS OF SYMMETRY TYPE  I I J J
  @TWOEL-I,      75480 INTEGRALS OF SYMMETRY TYPE  I J K L
  @TWOEL-I, TOTAL NUMBER OF 2-E INTEGRALS     265432.
  @MOLECU-I, TWO ELECTRON INTEGRALS (CPU/WALL):        0.24/       0.25 SECONDS.
 @CHECKOUT-I, Total execution time (CPU/WALL):        0.27/       0.28 seconds.

Running with 8 threads/proc

--executable xvmol finished with status     0 in        0.30 seconds (walltime).
 --invoking executable--
/home/tsommerfeld/zscale/bin/xvmol2ja
 @GETMEM-I,  Allocated   85830 MB of main memory.
 @CHECKOUT-I, Total execution time (CPU/WALL):        0.02/       0.01 seconds.
--executable xvmol2ja finished with status     0 in        0.03 seconds (walltime).
 --invoking executable--
/home/tsommerfeld/zscale/bin/xvscf
  There are   57 functions in the AO basis.

  There are 4 irreducible representations.

       Irrep        # of functions
         1                 20
         2                 17
         3                 11
         4                  9


  Parameters for SCF calculation: 
        SCF reference function:  RHF  
  Maximum number of iterations:  150
     Full symmetry point group: C2v 
     Computational point group: C2v 
        Initial density matrix: MOREAD                 
     SCF convergence tolerance: 10**(- 7)
  DIIS convergence acceleration:  ON
          Latest start for DIIS:   8
                     DIIS order:   6

  Memory information:     156410 words required.
  Fock matrices are constructed from AO integral file.
 @GETMEM-I,  Allocated       1 MB of main memory.
  Initialization and symmetry analysis required      0.002 seconds.

  @INITGES-I, Occupancies from core Hamiltonian:

          Alpha population by irrep:   3    4    1    1
           Beta population by irrep:   3    4    1    1


 total no. of electrons in initial guess :  0.000000000000000E+000
  --------------------------------------------------------------------
  Iteration         Total Energy            Largest Density Difference
  --------------------------------------------------------------------
       0            40.848523054883174              0.0000000000D+00
   current occupation vector 
     3  4  1  1
     3  4  1  1
       1           -61.791545240246052              0.9346211425D+01
   current occupation vector 
     3  4  1  1
     3  4  1  1
       2           -65.363734885208203              0.5312613912D+02
   current occupation vector 
     4  3  1  1
     4  3  1  1
       3           -72.261647048758874              0.5380984733D+02
   current occupation vector 
     4  3  1  1
     4  3  1  1
       4           -71.408657091703716              0.2218949660D+02
   current occupation vector 
     4  3  1  1
     4  3  1  1
       5           -74.477818473700722              0.2228306938D+02
   current occupation vector 
     4  3  1  1
     4  3  1  1
       6           -73.486416502849409              0.9292138034D+01
   current occupation vector 
     4  3  1  1
     4  3  1  1
       7           -75.410074195890729              0.9328063807D+01
   current occupation vector 
     4  3  1  1
     4  3  1  1
       8           -74.256288992944761              0.7081050125D+01
   current occupation vector 
     4  3  1  1
     4  3  1  1
       9           -78.179751089004256              0.7316053990D+01
   current occupation vector 
     4  3  1  1
     4  3  1  1
      10           -78.288153549640086              0.2664881554D+00
   current occupation vector 
     4  3  1  1
     4  3  1  1
      11           -78.291164851087885              0.1299973386D+00
   current occupation vector 
     4  3  1  1
     4  3  1  1
      12           -78.291881287691311              0.6360334364D-01
   current occupation vector 
     4  3  1  1
     4  3  1  1
      13           -78.292233301080785              0.5774758470D-01
   current occupation vector 
     4  3  1  1
     4  3  1  1
      14           -78.292292170170299              0.2336937380D-01
   current occupation vector 
     4  3  1  1
     4  3  1  1
      15           -78.292293436644371              0.1864156411D-02
   current occupation vector 
     4  3  1  1
     4  3  1  1
      16           -78.292293446999992              0.2221164978D-03
   current occupation vector 
     4  3  1  1
     4  3  1  1
      17           -78.292293447911689              0.1113599050D-03
   current occupation vector 
     4  3  1  1
     4  3  1  1
      18           -78.292293447946477              0.2412403407D-04
   current occupation vector 
     4  3  1  1
     4  3  1  1
      19           -78.292293447949760              0.3407980748D-05
   current occupation vector 
     4  3  1  1
     4  3  1  1
      20           -78.292293447950641              0.1258750410D-05
   current occupation vector 
     4  3  1  1
     4  3  1  1
      21           -78.292293447950470              0.7546687408D-06
   current occupation vector 
     4  3  1  1
     4  3  1  1
      22           -78.292293447950371              0.2808730291D-06
   current occupation vector 
     4  3  1  1
     4  3  1  1
      23           -78.292293447950627              0.1190649909D-06
   current occupation vector 
     4  3  1  1
     4  3  1  1

  SCF has converged.

 Density matrix saved to file den.dat
 total electron number:   18.0000000000000     
     E(SCF)=       -78.292293447950726              0.2774638125D-07


  Final occupancies:

     Alpha population by irrep:   4    3    1    1
      Beta population by irrep:   4    3    1    1


  Eigenvector printing suppressed.

 @PUTMOS-I, Writing converged MOs to NEWMOS. 
 @PUTMOS-I, Symmetry   1 Full Blocks  5 Partial Blocksize   0
 @PUTMOS-I, Symmetry   2 Full Blocks  4 Partial Blocksize   1
 @PUTMOS-I, Symmetry   3 Full Blocks  2 Partial Blocksize   3
 @PUTMOS-I, Symmetry   4 Full Blocks  2 Partial Blocksize   1
 @PUTFOCK-I, Writing converged Fock matrix to NEWFOCK. 
 @PUTFOCK-I, Symmetry   1 Full Blocks  5 Partial Blocksize   0
 @PUTFOCK-I, Symmetry   2 Full Blocks  4 Partial Blocksize   1
 @PUTFOCK-I, Symmetry   3 Full Blocks  2 Partial Blocksize   3
 @PUTFOCK-I, Symmetry   4 Full Blocks  2 Partial Blocksize   1


 
  ORBITAL EIGENVALUES (ALPHA)  (1H = 27.2113834 eV)

       MO #        E(hartree)               E(eV)           FULLSYM    COMPSYM
       ----   --------------------   --------------------   -------   ---------
    1     1         -10.9030590812        -296.6873208915      A1        A1 (1)
    2    21         -10.9016832240        -296.6498819132      B1        B1 (2)
    3     2          -0.8663976817         -23.5758794926      A1        A1 (1)
    4    22          -0.4969366300         -13.5223331633      B1        B1 (2)
    5    38          -0.3786433106         -10.3034082956      B2        B2 (3)
    6     3          -0.3534632354          -9.6182236159      A1        A1 (1)
    7    49          -0.2291463354          -6.2353887865      A2        A2 (4)
    8     4          -0.2270985260          -6.1796650607      A1        A1 (1)
    9    23           0.1109228139           3.0183632178      B1        B1 (2)
  +++++++++++++++++++++++++++++++++++++++++++++++++++++++++++++++++++++++++++++
   10     5           0.2220692426           6.0428113005      A1        A1 (1)
   11    39           0.4357984467          11.8586786183      B2        B2 (3)
   12    24           0.4595048894          12.5037637185      B1        B1 (2)
   13     6           0.4643003774          12.6342555812      A1        A1 (1)
   14    50           0.5081445449          13.8273160347      A2        A2 (4)
   15     7           0.5470213302          14.8852071438      A1        A1 (1)
   16    40           0.5951383897          16.1945388989      B2        B2 (3)
   17    25           0.6653700734          18.1056401712      B1        B1 (2)
   18     8           0.7156754074          19.4745179012      A1        A1 (1)
   19    26           0.7321524293          19.9228804599      B1        B1 (2)
   20     9           0.8009689156          21.7954722530      A1        A1 (1)
   21    10           0.9325791998          25.3767701564      A1        A1 (1)
   22    41           0.9419556656          25.6319167617      B2        B2 (3)
   23    27           0.9814417715          26.7063883303      B1        B1 (2)
   24    42           1.1126713690          30.2773272192      B2        B2 (3)
   25    11           1.1275002856          30.6808425546      A1        A1 (1)
   26    28           1.1434916986          31.1159910252      B1        B1 (2)
   27    51           1.2083915490          32.8820057367      A2        A2 (4)
   28    12           1.2689285104          34.5293002034      A1        A1 (1)
   29    29           1.2710428461          34.5868342041      B1        B1 (2)
   30    13           1.4670643521          39.9208505583      A1        A1 (1)
   31    52           1.5507009758          42.1967187922      A2        A2 (4)
   32    43           1.5766300438          42.9022846028      B2        B2 (3)
   33    53           1.6029809501          43.6193292165      A2        A2 (4)
   34    30           1.7631005308          47.9764045165      B1        B1 (2)
   35    14           1.8306218847          49.8137539651      A1        A1 (1)
   36    54           1.8831435301          51.2429405961      A2        A2 (4)
   37    44           1.9625687530          53.4042107865      B2        B2 (3)
   38    31           2.0747200677          56.4560032095      B1        B1 (2)
   39    45           2.0827120108          56.6734750371      B2        B2 (3)
   40    32           2.2039738802          59.9731782567      B1        B1 (2)
   41    15           2.2118545803          60.1876230105      A1        A1 (1)
   42    46           2.2700813519          61.7720540148      B2        B2 (3)
   43    16           2.2776270108          61.9773818338      A1        A1 (1)
   44    33           2.4405191946          66.4099034982      B1        B1 (2)
   45    17           2.5048247567          68.1597468035      A1        A1 (1)
   46    34           2.5611768624          69.6931655573      B1        B1 (2)
   47    55           2.6809021264          72.9510556182      A2        A2 (4)
   48    18           2.7030368500          73.5533720691      A1        A1 (1)
   49    56           2.7651979200          75.2448607769      A2        A2 (4)
   50    35           2.8568330475          77.7383793653      B1        B1 (2)
   51    47           2.9088045413          79.1525956085      B2        B2 (3)
   52    36           3.0241203380          82.2904979662      B1        B1 (2)
   53    48           3.0849328041          83.9452892947      B2        B2 (3)
   54    19           3.0938835368          84.1888511136      A1        A1 (1)
   55    20           3.2621836459          88.7685299110      A1        A1 (1)
   56    37           3.6016196979          98.0050544619      B1        B1 (2)
   57    57           3.6217067566          98.5516511154      A2        A2 (4)


  VSCF finished.

 @CHECKOUT-I, Total execution time (CPU/WALL):        0.27/       0.12 seconds.
--executable xvscf finished with status     0 in        0.14 seconds (walltime).
 --invoking executable--
/home/tsommerfeld/zscale/bin/xvtran
 @GETMEM-I,  Allocated   85830 MB of main memory.
  Full RHF integral transformation
  Transformation of IIII integrals :
  1 pass through the AO integral file was required.
       29572 AO integrals were read.
       37182 MO integrals were written to HF2.
  Transformation of IIJJ integrals :
  1 pass through the AO integral file was required.
       58089 AO integrals were read.
       75393 MO integrals were written to HF2.
  Transformation of IJIJ integrals :
  1 pass through the AO integral file was required.
      102291 AO integrals were read.
      132879 MO integrals were written to HF2.
  Transformation of IJKL integrals :
  1 pass through the AO integral file was required.
       75480 AO integrals were read.
      100980 MO integrals were written to HF2.
  Summary of active molecular orbitals: 
------------------------------------------------------------------------
 
  Index      Eigenvalue    Symmetry    Index      Eigenvalue    Symmetry
------------------------------------------------------------------------
     1       -10.9030591        1        30         1.1434917        2
     2        -0.8663977        1        31         1.2710428        2
     3        -0.3534632        1        32         1.7631005        2
     4        -0.2270985        1        33         2.0747201        2
     5       -10.9016832        2        34         2.2039739        2
     6        -0.4969366        2        35         2.4405192        2
     7         0.1109228        2        36         2.5611769        2
     8        -0.3786433        3        37         2.8568330        2
     9        -0.2291463        4        38         3.0241203        2
    10         0.2220692        1        39         3.6016197        2
    11         0.4643004        1        40         0.4357984        3
    12         0.5470213        1        41         0.5951384        3
    13         0.7156754        1        42         0.9419557        3
    14         0.8009689        1        43         1.1126714        3
    15         0.9325792        1        44         1.5766300        3
    16         1.1275003        1        45         1.9625688        3
    17         1.2689285        1        46         2.0827120        3
    18         1.4670644        1        47         2.2700814        3
    19         1.8306219        1        48         2.9088045        3
    20         2.2118546        1        49         3.0849328        3
    21         2.2776270        1        50         0.5081445        4
    22         2.5048248        1        51         1.2083915        4
    23         2.7030368        1        52         1.5507010        4
    24         3.0938835        1        53         1.6029810        4
    25         3.2621836        1        54         1.8831435        4
    26         0.4595049        2        55         2.6809021        4
    27         0.6653701        2        56         2.7651979        4
    28         0.7321524        2        57         3.6217068        4
    29         0.9814418        2
------------------------------------------------------------------------
  -10.9030590812037      -0.866397681664683      -0.353463235387850     
 -0.227098526005309       -10.9016832239834      -0.496936629959743     
  0.110922813934984      -0.378643310564038      -0.229146335372461     
  0.222069242553794       0.464300377364021       0.547021330191044     
  0.715675407418170       0.800968915568584       0.932579199793005     
   1.12750028558312        1.26892851038959        1.46706435213116     
   1.83062188470176        2.21185458033381        2.27762701082542     
   2.50482475666912        2.70303684997758        3.09388353675431     
   3.26218364594368       0.459504889357344       0.665370073438597     
  0.732152429263194       0.981441771543784        1.14349169859597     
   1.27104284613973        1.76310053080419        2.07472006768661     
   2.20397388016380        2.44051919455987        2.56117686237499     
   2.85683304750094        3.02412033804150        3.60161969794801     
  0.435798446700220       0.595138389725946       0.941955665573124     
   1.11267136896964        1.57663004383625        1.96256875299139     
   2.08271201078089        2.27008135186388        2.90880454128308     
   3.08493280406820       0.508144544930414        1.20839154898364     
   1.55070097583427        1.60298095011506        1.88314353014894     
   2.68090212635741        2.76519791996049        3.62170675656932     
 @CHECKOUT-I, Total execution time (CPU/WALL):        0.55/       0.09 seconds.
--executable xvtran finished with status     0 in        0.11 seconds (walltime).
 --invoking executable--
/home/tsommerfeld/zscale/bin/xintprc
 @GETMEM-I,  Allocated   85830 MB of main memory.
  Processing integrals for CCSD calculation.
  @GMOIAA-I, Processing MO integrals for spin case AA.
  @GMOIAA-I, Generation of integral list completed.
                      TYPE                NUMBER
                      ----               --------
                      PPPP                174812
                      PPPH                128480
                      PPHH                 23996
                      PHPH                 13708
                      PHHH                  5120
                      HHHH                   318

                     TOTAL                346434

  @FORMT2-I, Second-order MP correlation energies:
            ------------------------------------------------
            E(SCF)                  =    -78.292293447951 a.u.
            E2(AA)                  =     -0.039812476281 a.u.
            E2(AB)                  =     -0.250438491018 a.u.
            E2(TOT)                 =     -0.330063443581 a.u.
            Total MP2 energy        =    -78.622356891532 a.u.
            ------------------------------------------------
   Largest T2 amplitudes for spin case AB:
       _       _                 _       _                 _       _
   i   j   a   b             i   j   a   b             i   j   a   b
-----------------------------------------------------------------------------
[  7   7  29  29]-0.03671 [  7   7  17  17]-0.02240 [  7   7  28  28]-0.02205
[  9   9  42  42]-0.01973 [  4   4  31  31]-0.01824 [  4   7  14  29] 0.01703
[  7   4  29  14] 0.01703 [  8   8  40  40]-0.01687 [  8   7  40  29]-0.01649
[  7   8  29  40]-0.01649 [  8   8  42  42]-0.01642 [  9   9  51  51]-0.01636
[  4   4  14  14]-0.01619 [  9   9  50  50]-0.01566 [  7   7  14  14]-0.01547
-----------------------------------------------------------------------------
   Norm of T2AB vector (    47560 symmetry allowed elements):  0.2948235007.
-----------------------------------------------------------------------------
 @CHECKOUT-I, Total execution time (CPU/WALL):        0.42/       0.10 seconds.
--executable xintprc finished with status     0 in        0.11 seconds (walltime).
  calling xvcc 
 --invoking executable--
/home/tsommerfeld/zscale/bin/xvcc
 @GETMEM-I,  Allocated   85830 MB of main memory.
   CCSD energy will be calculated.
   The total correlation energy is -0.330063443581 a.u.
   The total correlation energy is -0.347456355490 a.u.
  Convergence information after     1 iterations: 
  Largest element of residual vector :  0.10591570E-01.
  Largest element of DIIS residual   :  0.10591570E-01.
   The total correlation energy is -0.354380479788 a.u.
  Convergence information after     2 iterations: 
  Largest element of residual vector : -0.29117416E-02.
  Largest element of DIIS residual   : -0.30812222E-02.
   The total correlation energy is -0.356256311197 a.u.
  Convergence information after     3 iterations: 
  Largest element of residual vector :  0.27955544E-02.
  Largest element of DIIS residual   :  0.22493909E-02.
   The total correlation energy is -0.356822722967 a.u.
  Convergence information after     4 iterations: 
  Largest element of residual vector : -0.93260823E-03.
  Largest element of DIIS residual   : -0.88478023E-03.
   The total correlation energy is -0.356897944230 a.u.
  Convergence information after     5 iterations: 
  Largest element of residual vector :  0.42908658E-03.
  Largest element of DIIS residual   :  0.18001368E-03.
   The total correlation energy is -0.356899154353 a.u.
  Convergence information after     6 iterations: 
  Largest element of residual vector : -0.19446771E-03.
  Largest element of DIIS residual   : -0.13781265E-03.
   The total correlation energy is -0.356896955400 a.u.
  Convergence information after     7 iterations: 
  Largest element of residual vector :  0.43501074E-04.
  Largest element of DIIS residual   :  0.32786452E-04.
   The total correlation energy is -0.356894069727 a.u.
  Convergence information after     8 iterations: 
  Largest element of residual vector : -0.30341007E-04.
  Largest element of DIIS residual   :  0.15602611E-04.
   The total correlation energy is -0.356894859402 a.u.
  Convergence information after     9 iterations: 
  Largest element of residual vector :  0.14460645E-04.
  Largest element of DIIS residual   :  0.12177441E-04.
   The total correlation energy is -0.356895339174 a.u.
  Convergence information after    10 iterations: 
  Largest element of residual vector :  0.79518971E-05.
  Largest element of DIIS residual   :  0.64254376E-05.
   The total correlation energy is -0.356895626828 a.u.
  Convergence information after    11 iterations: 
  Largest element of residual vector :  0.52382373E-05.
  Largest element of DIIS residual   :  0.37160030E-05.
   The total correlation energy is -0.356895727089 a.u.
  Convergence information after    12 iterations: 
  Largest element of residual vector :  0.26702600E-05.
  Largest element of DIIS residual   :  0.16509692E-05.
   The total correlation energy is -0.356895757629 a.u.
  Convergence information after    13 iterations: 
  Largest element of residual vector :  0.12133342E-05.
  Largest element of DIIS residual   :  0.61640864E-06.
   The total correlation energy is -0.356895758261 a.u.
  Convergence information after    14 iterations: 
  Largest element of residual vector :  0.50551150E-06.
  Largest element of DIIS residual   :  0.22956461E-06.
   The total correlation energy is -0.356895745843 a.u.
  Convergence information after    15 iterations: 
  Largest element of residual vector :  0.13803310E-06.
  Largest element of DIIS residual   :  0.10536271E-06.
   The total correlation energy is -0.356895740535 a.u.
  Convergence information after    16 iterations: 
  Largest element of residual vector :  0.58693458E-07.
  Largest element of DIIS residual   :  0.45652652E-07.
  Amplitude equations converged in    16iterations.
   The total correlation energy is -0.356895739547 a.u.
   The CC iterations have converged.

   Largest T1 amplitudes for spin case AA:
   i       a                 i       a                 i       a    
-----------------------------------------------------------------------------
[  4      10    ] 0.01686 [  4      12    ]-0.01051 [  7      29    ] 0.00986
[  8      42    ] 0.00701 [  7      30    ]-0.00654 [  3      12    ] 0.00624
[  8      41    ] 0.00601 [  4      13    ] 0.00577 [  9      51    ] 0.00506
[  8      43    ] 0.00503 [  6      28    ] 0.00500 [  9      56    ] 0.00492
[  7      27    ]-0.00445 [  6      26    ]-0.00432 [  4      11    ] 0.00392
-----------------------------------------------------------------------------
   Norm of T1AA vector (      124 symmetry allowed elements):  0.0334007558.
-----------------------------------------------------------------------------
   Largest T2 amplitudes for spin case AB:
       _       _                 _       _                 _       _
   i   j   a   b             i   j   a   b             i   j   a   b
-----------------------------------------------------------------------------
[  7   7  29  29]-0.03917 [  7   7  11  11]-0.02446 [  9   9  42  42]-0.02443
[  7   7  28  28]-0.02311 [  7   7  17  17]-0.02245 [  7   7  26  26]-0.02003
[  4   4  31  31]-0.01998 [  7   7  14  14]-0.01891 [  8   8  42  42]-0.01885
[  7   7  12  12]-0.01852 [  9   9  51  51]-0.01810 [  8   8  40  40]-0.01806
[  7   4  29  14] 0.01698 [  4   7  14  29] 0.01698 [  9   9  50  50]-0.01695
-----------------------------------------------------------------------------
   Norm of T2AB vector (    47560 symmetry allowed elements):  0.3401625551.
-----------------------------------------------------------------------------
       Summary of iterative solution of CC equations 
      -----------------------------------------------------------
                       Correlation           Total
       Iteration         Energy              Energy
      -----------------------------------------------------------
            0        -0.330063443581     -78.622356891532  DIIS 
            1        -0.347456355490     -78.639749803441  DIIS 
            2        -0.354380479788     -78.646673927739  DIIS 
            3        -0.356256311197     -78.648549759148  DIIS 
            4        -0.356822722967     -78.649116170918  DIIS 
            5        -0.356897944230     -78.649191392181  DIIS 
            6        -0.356899154353     -78.649192602303  DIIS 
            7        -0.356896955400     -78.649190403351  DIIS 
            8        -0.356894069727     -78.649187517677  DIIS 
            9        -0.356894859402     -78.649188307352  DIIS 
           10        -0.356895339174     -78.649188787125  DIIS 
           11        -0.356895626828     -78.649189074779  DIIS 
           12        -0.356895727089     -78.649189175040  DIIS 
           13        -0.356895757629     -78.649189205579  DIIS 
           14        -0.356895758261     -78.649189206211  DIIS 
           15        -0.356895745843     -78.649189193793  DIIS 
           16        -0.356895739547     -78.649189187498  DIIS 
      -----------------------------------------------------------
      A miracle has come to pass. The CC iterations have converged.
      The reference energy is       -78.29229344795073 a.u.
      The correlation energy is      -0.35689573954725 a.u.
      The total energy is           -78.64918918749798 a.u.
 @CHECKOUT-I, Total execution time (CPU/WALL):        5.61/       0.71 seconds.
--executable xvcc finished with status     0 in        0.73 seconds (walltime).
 --invoking executable--
/home/tsommerfeld/zscale/bin/xlambda
 @GETMEM-I,  Allocated   85830 MB of main memory.
 Hbar is calculated for a CCSD wave function.
 Calculation of Hbar completed.
 @CHECKOUT-I, Total execution time (CPU/WALL):        0.85/       0.12 seconds.
--executable xlambda finished with status     0 in        0.13 seconds (walltime).
 --invoking executable--
/home/tsommerfeld/zscale/bin/xvee
 @GETMEM-I,  Allocated   85830 MB of main memory.
  cc2 and ccprog  F                     0
  EOMEE-CCSD excitation energies will be evaluated.
  @SETMET-I, VPROP property integrals are used.
  @SETMET-I, A total of   3 target states will be studied.
  Summary of active alpha molecular orbitals:
------------------------------------------------------------------------------
Orbital      Sym   Eigenvalue  <xx>     <yy>     <zz>     <xy>     <xz>     <yz>
        SCF
  #  position
------------------------------------------------------------------------------
   1      1    1     -10.9031   0.000    0.000    0.000    0.000    0.000    0.000
   2      3    1      -0.8664   0.000    0.000    0.000    0.000    0.000    0.000
   3      6    1      -0.3535   0.000    0.000    0.000    0.000    0.000    0.000
   4      8    1      -0.2271   0.000    0.000    0.000    0.000    0.000    0.000
   5      2    2     -10.9017   0.000    0.000    0.000    0.000    0.000    0.000
   6      4    2      -0.4969   0.000    0.000    0.000    0.000    0.000    0.000
   7      9    2       0.1109   0.000    0.000    0.000    0.000    0.000    0.000
   8      5    3      -0.3786   0.000    0.000    0.000    0.000    0.000    0.000
   9      7    4      -0.2291   0.000    0.000    0.000    0.000    0.000    0.000
  10     10    1       0.2221   0.000    0.000    0.000    0.000    0.000    0.000
  11     13    1       0.4643   0.000    0.000    0.000    0.000    0.000    0.000
  12     15    1       0.5470   0.000    0.000    0.000    0.000    0.000    0.000
  13     18    1       0.7157   0.000    0.000    0.000    0.000    0.000    0.000
  14     20    1       0.8010   0.000    0.000    0.000    0.000    0.000    0.000
  15     21    1       0.9326   0.000    0.000    0.000    0.000    0.000    0.000
  16     25    1       1.1275   0.000    0.000    0.000    0.000    0.000    0.000
  17     28    1       1.2689   0.000    0.000    0.000    0.000    0.000    0.000
  18     30    1       1.4671   0.000    0.000    0.000    0.000    0.000    0.000
  19     35    1       1.8306   0.000    0.000    0.000    0.000    0.000    0.000
  20     41    1       2.2119   0.000    0.000    0.000    0.000    0.000    0.000
  21     43    1       2.2776   0.000    0.000    0.000    0.000    0.000    0.000
  22     45    1       2.5048   0.000    0.000    0.000    0.000    0.000    0.000
  23     48    1       2.7030   0.000    0.000    0.000    0.000    0.000    0.000
  24     54    1       3.0939   0.000    0.000    0.000    0.000    0.000    0.000
  25     55    1       3.2622   0.000    0.000    0.000    0.000    0.000    0.000
  26     12    2       0.4595   0.000    0.000    0.000    0.000    0.000    0.000
  27     17    2       0.6654   0.000    0.000    0.000    0.000    0.000    0.000
  28     19    2       0.7322   0.000    0.000    0.000    0.000    0.000    0.000
  29     23    2       0.9814   0.000    0.000    0.000    0.000    0.000    0.000
  30     26    2       1.1435   0.000    0.000    0.000    0.000    0.000    0.000
  31     29    2       1.2710   0.000    0.000    0.000    0.000    0.000    0.000
  32     34    2       1.7631   0.000    0.000    0.000    0.000    0.000    0.000
  33     38    2       2.0747   0.000    0.000    0.000    0.000    0.000    0.000
  34     40    2       2.2040   0.000    0.000    0.000    0.000    0.000    0.000
  35     44    2       2.4405   0.000    0.000    0.000    0.000    0.000    0.000
  36     46    2       2.5612   0.000    0.000    0.000    0.000    0.000    0.000
  37     50    2       2.8568   0.000    0.000    0.000    0.000    0.000    0.000
  38     52    2       3.0241   0.000    0.000    0.000    0.000    0.000    0.000
  39     56    2       3.6016   0.000    0.000    0.000    0.000    0.000    0.000
  40     11    3       0.4358   0.000    0.000    0.000    0.000    0.000    0.000
  41     16    3       0.5951   0.000    0.000    0.000    0.000    0.000    0.000
  42     22    3       0.9420   0.000    0.000    0.000    0.000    0.000    0.000
  43     24    3       1.1127   0.000    0.000    0.000    0.000    0.000    0.000
  44     32    3       1.5766   0.000    0.000    0.000    0.000    0.000    0.000
  45     37    3       1.9626   0.000    0.000    0.000    0.000    0.000    0.000
  46     39    3       2.0827   0.000    0.000    0.000    0.000    0.000    0.000
  47     42    3       2.2701   0.000    0.000    0.000    0.000    0.000    0.000
  48     51    3       2.9088   0.000    0.000    0.000    0.000    0.000    0.000
  49     53    3       3.0849   0.000    0.000    0.000    0.000    0.000    0.000
  50     14    4       0.5081   0.000    0.000    0.000    0.000    0.000    0.000
  51     27    4       1.2084   0.000    0.000    0.000    0.000    0.000    0.000
  52     31    4       1.5507   0.000    0.000    0.000    0.000    0.000    0.000
  53     33    4       1.6030   0.000    0.000    0.000    0.000    0.000    0.000
  54     36    4       1.8831   0.000    0.000    0.000    0.000    0.000    0.000
  55     47    4       2.6809   0.000    0.000    0.000    0.000    0.000    0.000
  56     49    4       2.7652   0.000    0.000    0.000    0.000    0.000    0.000
  57     57    4       3.6217   0.000    0.000    0.000    0.000    0.000    0.000
------------------------------------------------------------------------------
  @DRVTDA-I, Roots obtained by Davidson method.
  calling tda davidson                       6                     2
  after tda davidson                      6                     6
                     3                     3
  kroot is                      3
__________________________________________________________________________
    Tamm-Dancoff (CIS) Excitation Energies and Transition Moments

                Excitation         Transition Dipole         Oscillator
 Root  Symmetry  Energy         x           y           z     Strength
__________________________________________________________________________
   1       2   -0.05215      0.0000      0.0000      0.0000  .00000000D+00
__________________________________________________________________________
 
__________________________________________________________________________
  TDA excitation ergy:            -0.052146068458 a.u.   -1.4190 eV
  Total TDA electronic energy:   -78.344439516409 a.u.
 
  Dominant contributions: 
  SCF eigenvalue ordering used in list below. 
--------------------------------------------------------------------------------
    I    j    A    b
--------------------------------------------------------------------------------
    9    0   10    0  -0.9877948782 AA  
    9    0   15    0   0.1163375450 AA  
    9    0   13    0   0.0907455073 AA  
    9    0   21    0   0.0251472045 AA  
    8    0   12    0  -0.0234980731 AA  
    6    0   12    0   0.0180651317 AA  
    9    0   18    0  -0.0121221249 AA  
    4    0   10    0   0.0108863389 AA  
    9    0   30    0  -0.0104640434 AA  
    8    0   19    0  -0.0083477766 AA  
    6    0   29    0   0.0080593708 AA  
    9    0   20    0  -0.0075553208 AA  
    9    0   25    0   0.0073536668 AA  
    6    0   19    0   0.0071676085 AA  
    4    0   13    0   0.0066984124 AA  
--------------------------------------------------------------------------------
   2       2    0.11617      0.0000      0.0000      0.0000  .00000000D+00
__________________________________________________________________________
 
__________________________________________________________________________
  TDA excitation ergy:             0.116172782509 a.u.    3.1612 eV
  Total TDA electronic energy:   -78.176120665442 a.u.
 
  Dominant contributions: 
  SCF eigenvalue ordering used in list below. 
--------------------------------------------------------------------------------
    I    j    A    b
--------------------------------------------------------------------------------
    9    0   13    0  -0.9849832415 AA  
    9    0   10    0  -0.0897811081 AA  
    9    0   18    0  -0.0865037345 AA  
    9    0   25    0  -0.0608387688 AA  
    8    0   12    0   0.0514805193 AA  
    9    0   21    0  -0.0386811448 AA  
    8    0   29    0   0.0310174474 AA  
    8    0   17    0  -0.0307537513 AA  
    9    0   15    0   0.0251873883 AA  
    6    0   12    0  -0.0227138595 AA  
    9    0   30    0   0.0210522482 AA  
    8    0   19    0   0.0195393769 AA  
    4    0   13    0   0.0159273190 AA  
    7    0   16    0  -0.0152638198 AA  
    6    0   17    0   0.0150769834 AA  
--------------------------------------------------------------------------------
   3       2    0.18151      0.0000      0.0000      0.0000  .00000000D+00
__________________________________________________________________________
 
__________________________________________________________________________
  TDA excitation ergy:             0.181508493777 a.u.    4.9391 eV
  Total TDA electronic energy:   -78.110784954173 a.u.
 
  Dominant contributions: 
  SCF eigenvalue ordering used in list below. 
--------------------------------------------------------------------------------
    I    j    A    b
--------------------------------------------------------------------------------
    9    0   15    0  -0.9846311463 AA  
    9    0   10    0  -0.1171275415 AA  
    9    0   18    0  -0.0604671022 AA  
    9    0   21    0   0.0510214589 AA  
    9    0   30    0   0.0489082786 AA  
    9    0   28    0   0.0344086595 AA  
    4    0   15    0   0.0282360984 AA  
    4    0   13    0  -0.0257174172 AA  
    6    0   12    0  -0.0234779857 AA  
    9    0   25    0   0.0218445715 AA  
    6    0   19    0  -0.0210999566 AA  
    8    0   29    0  -0.0206388221 AA  
    8    0   12    0   0.0202628818 AA  
    5    0   14    0  -0.0201961008 AA  
    7    0   11    0  -0.0196405942 AA  
--------------------------------------------------------------------------------
__________________________________________________________________________
  @DOEOMEE-I, Excitation energies computed by the EOMEE-CCSD/CCSD-LR method.
  @DOEOMEE-I, right-hand eigenvectors will be computed.
  Beginning symmetry block   2.   3 roots requested.
  @DOEOMEE-I, Matrix dimension for diagonalization:    47674
  Creating initial guess for root
________________________________________________________________________
            Subspace          Eigenvalue           
 Iteration  Dimension   (a.u.)         (eV)       Overlap      Residual
________________________________________________________________________
  @NEWGES-I, Using TDA initial guess.
  1   1  0.1043322015D-01  0.2839023535D+00  0.0000000000D+00  0.3440955845D+00
  2   2 -0.5886293559D-01 -0.1601741908D+01  0.9758654221D+00  0.5545772376D-01
  3   3 -0.6049415263D-01 -0.1646129581D+01  0.9989219519D+00  0.1292624606D-01
  4   4 -0.6055582545D-01 -0.1647807783D+01  0.9999392530D+00  0.6465451317D-02
  5   5 -0.6057515443D-01 -0.1648333752D+01  0.9999769722D+00  0.1093022384D-02
  L-O-C-K-I-N-G O-N R-O-O-T 
  6   6 -0.6057995148D-01 -0.1648464286D+01  0.9999990582D+00  0.5952950737D-03
  7   7 -0.6057995487D-01 -0.1648464378D+01  0.9999997748D+00  0.1449915679D-03
  8   8 -0.6058011834D-01 -0.1648468827D+01  0.9999999857D+00  0.6615774930D-04
  9   9 -0.6058013281D-01 -0.1648469220D+01  0.9999999971D+00  0.1360676245D-04
 10  10 -0.6058014721D-01 -0.1648469612D+01  0.9999999998D+00  0.5258840814D-05
  Converged eigenvalue:  -6.058014720864469E-002  a.u.
   Total EOMEE-CCSD electronic energy      -78.709769334706621 a.u.
  Converged eigenvector 
  SCF eigenvalue ordering used in list below. 
--------------------------------------------------------------------------------
    I    j    A    b
--------------------------------------------------------------------------------
    9    0   10    0   0.6818298410 AA  
    9    0   15    0  -0.0818959286 AA  
    9    0   13    0  -0.0616602858 AA  
    9    9   23   10   0.0487738152 ABAB
    9    9   10   23   0.0487738152 ABAB
    7    9   14   10   0.0339654494 ABAB
    9    7   10   14   0.0339654494 ABAB
    5    9   11   10   0.0312801568 ABAB
    9    5   10   11   0.0312801568 ABAB
    9    8   10   10  -0.0311675564 ABAB
    8    9   10   10  -0.0311675564 ABAB
    9    4   10   12   0.0310148125 ABAB
    4    9   12   10   0.0310148125 ABAB
    9    6   10   13   0.0271429874 ABAB
    6    9   13   10   0.0271429874 ABAB
--------------------------------------------------------------------------------
  Converged eigenvector, normalized to one 
  SCF eigenvalue ordering used in list below. 
--------------------------------------------------------------------------------
    I    j    A    b
--------------------------------------------------------------------------------
    9    0   10    0   0.6818298410 AA  
    9    0   15    0  -0.0818959286 AA  
    9    0   13    0  -0.0616602858 AA  
    9    9   23   10   0.0487738152 ABAB
    9    9   10   23   0.0487738152 ABAB
    7    9   14   10   0.0339654494 ABAB
    9    7   10   14   0.0339654494 ABAB
    5    9   11   10   0.0312801568 ABAB
    9    5   10   11   0.0312801568 ABAB
    9    8   10   10  -0.0311675564 ABAB
    8    9   10   10  -0.0311675564 ABAB
    9    4   10   12   0.0310148125 ABAB
    4    9   12   10   0.0310148125 ABAB
    9    6   10   13   0.0271429874 ABAB
    6    9   13   10   0.0271429874 ABAB
--------------------------------------------------------------------------------

  Eigenvector is saved on CCRE_2_1  

  Adding new vector to expansion space.
  Guess for next eigenvalue   0.116172782508632     
 11  11  0.1128058463D+00  0.3069603132D+01  0.7531253404D+00  0.1121554978D+00
 12  12  0.1063885402D+00  0.2894979358D+01  0.9946060960D+00  0.2375569681D-01
 13  13  0.1058826842D+00  0.2881214316D+01  0.9994039534D+00  0.8965637319D-02
 14  14  0.1058417784D+00  0.2880101212D+01  0.9999029577D+00  0.3333159168D-02
  L-O-C-K-I-N-G O-N R-O-O-T 
 15  15  0.1058359159D+00  0.2879941684D+01  0.9999860241D+00  0.1020453531D-02
 16  16  0.1058355222D+00  0.2879930972D+01  0.9999989400D+00  0.3602078646D-03
 17  17  0.1058353202D+00  0.2879925476D+01  0.9999998879D+00  0.1337412401D-03
 18  18  0.1058354102D+00  0.2879927923D+01  0.9999999881D+00  0.4096988264D-04
 19  19  0.1058353585D+00  0.2879926518D+01  0.9999999990D+00  0.1518134821D-04
 20  20  0.1058353635D+00  0.2879926655D+01  0.9999999999D+00  0.4084342549D-05
  Converged eigenvalue:   0.105835363543077       a.u.
   Total EOMEE-CCSD electronic energy      -78.543353823954902 a.u.
  Converged eigenvector 
  SCF eigenvalue ordering used in list below. 
--------------------------------------------------------------------------------
    I    j    A    b
--------------------------------------------------------------------------------
    9    0   13    0   0.6803584582 AA  
    9    0   10    0   0.0587065337 AA  
    9    0   18    0   0.0542509434 AA  
    9    0   25    0   0.0434589252 AA  
    9    6   13   13   0.0342249067 ABAB
    6    9   13   13   0.0342249067 ABAB
    9    9   23   13   0.0336455562 ABAB
    9    9   13   23   0.0336455562 ABAB
    5    9   11   13   0.0273018080 ABAB
    9    5   13   11   0.0273018080 ABAB
    9    4   13   12   0.0250616002 ABAB
    4    9   12   13   0.0250616002 ABAB
    7    9   14   13   0.0249186048 ABAB
    9    7   13   14   0.0249186048 ABAB
    9    0   21    0   0.0224788359 AA  
--------------------------------------------------------------------------------
  Converged eigenvector, normalized to one 
  SCF eigenvalue ordering used in list below. 
--------------------------------------------------------------------------------
    I    j    A    b
--------------------------------------------------------------------------------
    9    0   13    0   0.6803584582 AA  
    9    0   10    0   0.0587065337 AA  
    9    0   18    0   0.0542509434 AA  
    9    0   25    0   0.0434589252 AA  
    9    6   13   13   0.0342249067 ABAB
    6    9   13   13   0.0342249067 ABAB
    9    9   23   13   0.0336455562 ABAB
    9    9   13   23   0.0336455562 ABAB
    5    9   11   13   0.0273018080 ABAB
    9    5   13   11   0.0273018080 ABAB
    9    4   13   12   0.0250616002 ABAB
    4    9   12   13   0.0250616002 ABAB
    7    9   14   13   0.0249186048 ABAB
    9    7   13   14   0.0249186048 ABAB
    9    0   21    0   0.0224788359 AA  
--------------------------------------------------------------------------------

  Eigenvector is saved on CCRE_2_2  

  Adding new vector to expansion space.
  Guess for next eigenvalue   0.181508493777462     
 21  21  0.1753301972D+00  0.4770977218D+01  0.7372081754D+00  0.1134578646D+00
 22  22  0.1722897982D+00  0.4688243755D+01  0.9978969517D+00  0.1812151004D-01
 23  23  0.1719728835D+00  0.4679620068D+01  0.9998136665D+00  0.7489027052D-02
 24  24  0.1719480563D+00  0.4678944486D+01  0.9999728296D+00  0.2264815800D-02
  L-O-C-K-I-N-G O-N R-O-O-T 
 25  25  0.1719486114D+00  0.4678959589D+01  0.9999959510D+00  0.8005801058D-03
 26  26  0.1719475128D+00  0.4678929696D+01  0.9999995946D+00  0.1954661017D-03
 27  27  0.1719475556D+00  0.4678930859D+01  0.9999999741D+00  0.8160553232D-04
 28  28  0.1719475488D+00  0.4678930676D+01  0.9999999951D+00  0.2418249089D-04
 29  29  0.1719475739D+00  0.4678931358D+01  0.9999999995D+00  0.9962818107D-05
  Converged eigenvalue:   0.171947573890081       a.u.
   Total EOMEE-CCSD electronic energy      -78.477241613607902 a.u.
  Converged eigenvector 
  SCF eigenvalue ordering used in list below. 
--------------------------------------------------------------------------------
    I    j    A    b
--------------------------------------------------------------------------------
    9    0   15    0   0.6799129394 AA  
    9    0   10    0   0.0806630026 AA  
    9    8   15   15   0.0444425800 ABAB
    8    9   15   15   0.0444425800 ABAB
    9    0   18    0   0.0368703857 AA  
    9    9   19   15  -0.0366234324 ABAB
    9    9   15   19  -0.0366234324 ABAB
    9    9   23   15   0.0355982778 ABAB
    9    9   15   23   0.0355982778 ABAB
    9    0   30    0  -0.0317329400 AA  
    9    0   21    0  -0.0316420414 AA  
    9    9   17   15  -0.0281873062 ABAB
    9    9   15   17  -0.0281873062 ABAB
    9    9   19   20   0.0266980292 ABAB
    9    9   20   19   0.0266980292 ABAB
--------------------------------------------------------------------------------
  Converged eigenvector, normalized to one 
  SCF eigenvalue ordering used in list below. 
--------------------------------------------------------------------------------
    I    j    A    b
--------------------------------------------------------------------------------
    9    0   15    0   0.6799129394 AA  
    9    0   10    0   0.0806630026 AA  
    9    8   15   15   0.0444425800 ABAB
    8    9   15   15   0.0444425800 ABAB
    9    0   18    0   0.0368703857 AA  
    9    9   19   15  -0.0366234324 ABAB
    9    9   15   19  -0.0366234324 ABAB
    9    9   23   15   0.0355982778 ABAB
    9    9   15   23   0.0355982778 ABAB
    9    0   30    0  -0.0317329400 AA  
    9    0   21    0  -0.0316420414 AA  
    9    9   17   15  -0.0281873062 ABAB
    9    9   15   17  -0.0281873062 ABAB
    9    9   19   20   0.0266980292 ABAB
    9    9   20   19   0.0266980292 ABAB
--------------------------------------------------------------------------------

  Eigenvector is saved on CCRE_2_3  

  Solution of   3 roots required   29 iterations.
 @CHECKOUT-I, Total execution time (CPU/WALL):       16.81/       2.11 seconds.
--executable xvee finished with status     0 in        2.13 seconds (walltime).
  The final electronic energy is       -78.477241613607902 a.u. 
  This computation required                            3.88 seconds (walltime).
