CFour on node02
 --invoking executable--
/home/tsommerfeld/zscale/bin/xjoda


   *************************************************************************
         <<<     CCCCCC     CCCCCC   |||     CCCCCC     CCCCCC   >>>
       <<<      CCC        CCC       |||    CCC        CCC         >>>
      <<<      CCC        CCC        |||   CCC        CCC            >>>
    <<<        CCC        CCC        |||   CCC        CCC              >>>
      <<<      CCC        CCC        |||   CCC        CCC            >>>
       <<<      CCC        CCC       |||    CCC        CCC         >>>
         <<<     CCCCCC     CCCCCC   |||     CCCCCC     CCCCCC   >>>
   *************************************************************************

     ****************************************************************
     * CFOUR Coupled-Cluster techniques for Computational Chemistry *
     ****************************************************************
 

   Department of Chemistry                Institut fuer Physikalische Chemie
   University of Florida                  Universitaet Mainz
   Gainesville, FL 32611, USA             D-55099 Mainz, Germany

   Department of Chemistry                Department of Chemistry
   Johns Hopkins University               Southern Methodist University
   Baltimore, MD 21218, USA               Dallas, TX 75275, USA

   Institute of Nanotechnology            Department of Physical Chemistry
   Karlsruhe Inst. of Technology          Eotvos Lorand University
   D-76021 Karlsruhe, Germany             H-1053 Budapest, Hungary

 
                       Version 2.1
 
                     node02                                            
                     Fri Apr  1 10:24:16 CST 2022                      
                     integer*8 version is running
 
********************************************************************************
*                          Input from ZMAT file                                *
********************************************************************************
h_ethylene                                                                      
C       0.000000      0.0   -0.664500                                           
C       0.000000      0.0    0.664500                                           
H       0.962348      0.0   -1.159080                                           
H       0.962348      0.0    1.159080                                           
H      -0.962348      0.0   -1.159080                                           
H      -0.962348      0.0    1.159080                                           
H      0.000000      9.0      0.000000                                          
                                                                                
*CFOUR(CALC=CCSD(T)                                                             
#EXCITE=EOMEE                                                                   
#ESTATE_SYM=0/3/0/0                                                             
CC_PROG=VCC                                                                     
CHARGE=-1                                                                       
COORDINATES=CARTESIAN                                                           
BASIS=SPECIAL                                                                   
REFERENCE=RHF                                                                   
MEM_SIZE=90,MEM_UNIT=GB)                                                        
                                                                                
C:cc-pVTZ                                                                       
C:cc-pVTZ                                                                       
H:cc-pVTZ                                                                       
H:cc-pVTZ                                                                       
H:cc-pVTZ                                                                       
H:cc-pVTZ                                                                       
H:aug-cc-pVTZ                                                                   
                                                                                
********************************************************************************
  @GTFLGS-W, Keyword #EXCITE not known and is ignored.
  @GTFLGS-W, Keyword #ESTATE_SYM not known and is ignored.
    -------------------------------------------------------------------
                    CFOUR Control Parameters 
    -------------------------------------------------------------------
        External           Internal           Value            Units
          Name               Name
    -------------------------------------------------------------------
       ABCDTYPE             IABCDT         STANDARD    [  0]    ***   
       ANHARMONIC           IANHAR         OFF         [  0]    ***   
       ANH_ALGORIT          IANALG         STANDARD    [  0]    ***   
       ANH_DERIVAT          IANDER         SECOND      [  1]    ***   
       ANH_MODE             ANHMOD         VIBRATION   [  0]    ***   
       ANH_STEPSIZ          ICUBST             50000          x 10-6  
       ANH_SYMMETR          IANHSM         ABELIAN     [  0]    ***   
       AO_LADDERS           IAOLAD         SINGLEPASS  [  1]    ***   
       AV_SCF               IAVSCF         OFF         [  0]    ***   
       BASIS                IBASIS         SPECIAL     [  0]    ***   
       BOTHVECTORS          BOTHVC         OFF         [  0]    ***   
       BOX_POTENT           IPIAB          OFF         [  0]    ***   
       BREIT                IBREIT         OFF         [  0]    ***   
       BRUCK_CONV           IBRTOL          10D-  4             ***   
       BRUECKNER            IBRKNR         OFF         [  0]    ***   
       BUFFERSIZE           IBUFFS              4096            ***   
       CACHE_RECS           ICHREC             10               ***   
       CALCLEVEL            ICLLVL         CCSD(T)     [ 22]    ***   
       CCORBOPT             ICCORB         OFF         [  0]  x 0.01  
       CC_CONV              ICCCNV          10D-  7             ***   
       CC_EXPORDER          ICCEOR              5               ***   
       CC_EXTRAPOL          ICCEXT         DIIS        [  1]    ***   
       CC_GUESS             ICCGES         MP2         [  0]    ***   
       CC_MAXCYC            ICCCYC            100              cycles 
       CC_PROGRAM           ICCPRO         VCC         [  0]    ***   
       CHARGE               ICHRGE             -1               ***   
       CHOLESKY             ICHOLE         OFF         [  0]    ***   
       CIS_CONV             ICISTL              5               ***   
       COMM_SIZE            IPSIZE            ***               ***   
       CONSTANT             ICONST         OLD         [  1]    ***   
       CONTINUUM            ICONTU         NONE        [  0]    ***   
       CONTRACTION          ICNTYP         GENERAL     [  1]    ***   
       COORDINATES          ICOORD         CARTESIAN   [  1]    ***   
       CPHF_CONVER          ICPHFT          10D- 16             ***   
       CPHF_MAXCYC          ICPHFC             64              cycles 
       CUBIC                ICUBIC         OFF         [  0]    ***   
       CURVILINEAR          ICURVY         OFF         [  0]    ***   
       DBOC                 IDBOC          OFF         [  0]    ***   
       DCT                  IDCT           OFF         [  0]    ***   
       DERIV_LEV            IDRLVL         ZERO        [  0]    ***   
       DEVMEM_SIZE          IDVMEM         *********           MByte  
       DIAG_MRCC            IEOMST          10D-  0             ***   
       DIFF_TYPE            IDIFTY         RELAXED     [  0]    ***   
       DIRECT               IDIRCT         OFF         [  0]    ***   
       DROPMO               IDRPMO      NONE         
       ECP                  IECP           OFF         [  0]    ***   
       EIGENVECTOR          IVEC                1               ***   
       EL_ANHARM            IELANH         OFF         [  0]    ***   
       EOMFOLLOW            IEOMSR         ENERGY      [  0]    ***   
       EOMIP                IEOMIP         OFF         [  0]    ***   
       EOMLEVEL             HBARFM         SAME        [  0]    ***   
       EOM_MRCC             IMRCCE         NEW         [  1]    ***   
       EOM_NONIT            EOMNON         OFF         [  0]    ***   
       EOM_NSING            IEOMSI          10D-  0             ***   
       EOM_NSTATES          IMRCCD         DAVIDSON    [  0]    ***   
       EOM_NTRIP            IEOMTR          10D-  0             ***   
       EOM_ORDER            IEXORD         ENERGY      [  0]    ***   
       EOM_PROPSTA          IEOMST              0               ***   
       ESTATE_CONV          IEXTOL          10D-  5             ***   
       ESTATE_DIAG          IEXDIG         ITERATIVE   [  0]    ***   
       ESTATE_LOCK          IESLOC         ON          [  1]    ***   
       ESTATE_MAXC          IEXMXC             40               ***   
       ESTATE_PROP          IEXPRP         OFF         [  0]    ***   
       EVAL_HESS            IRECAL              0            # of cyc.
       EXCITATION           IEXCIT              0               ***   
       EXCITE               IEXCIT         NONE        [  0]    ***   
       EXTERN_POT           IEXPOT         OFF         [  0]    ***   
       FCGRADNEW            IFCGNW         OFF         [  0]    ***   
       FC_FIELD             IFINFC              0             x 10-6  
       FD_CALTYPE           IFDCAL         GRADONLY    [  0]    ***   
       FD_PROJECT           IFDPRJ         OFF         [  1]    ***   
       FD_STEPSIZE          IDISFD              0            10-4 bohr
       FD_USEGROUP          IFDGRP         FULL        [  0]    ***   
       FILE_RECSIZ          IFLREC              4096           words  
       FINITE_PERT          IFIPER              0             x 10-6  
       FIXGEOM              IFIXGM         OFF         [  0]    ***   
       FOCK                 IFOCK          AO          [  1]    ***   
       FREQ_ALGORI          IVIALG         STANDARD    [  0]    ***   
       FROZEN_CORE          IFROCO         OFF         [  0]    ***   
       GAMMA_ABCD           IGABCD         STORE       [  0]    ***   
       GAMMA_ABCI           IGABCI         STORE       [  0]    ***   
       GENBAS_1             IGNBS1              0               ***   
       GENBAS_2             IGNBS2              0               ***   
       GENBAS_3             IGNBS3              0               ***   
       GENBAS_4             IGNBS4              0               ***   
       GEO_CONV             ICONTL              5              H/bohr 
       GEO_MAXCYC           IOPTCY             50               ***   
       GEO_MAXSTEP          IMXSTP            300            millibohr
       GEO_METHOD           INR            SINGLE_POINT[  5]    ***   
       GIAO                 IGIAO          OFF         [  1]    ***   
       GIMIC                IGIMIC         OFF         [  0]    ***   
       GRID                 IGRID          OFF         [  0]    ***   
       GRID_ALGO            IGALGO         SERIAL      [  0]    ***   
       GUESS                IGUESS         MOREAD      [  0]    ***   
       HBAR                 IHBAR          OFF         [  0]    ***   
       HESS_TYPE            IHESTP         SCF         [  0]    ***   
       HF2_FILE             IHF2Fl         USE         [  1]    ***   
       HFSTABILITY          ISTABL         OFF         [  0]    ***   
       INCORE               INCORE         OFF         [  0]    ***   
       INPUT_MRCC           IMRCC          ON          [  1]    ***   
       INTEGRALS            INTTYP         VMOL        [  1]    ***   
       JODA_PRINT           IJPRNT              0               ***   
       KEYWORD_OUT          IDMPKW         NO          [  0]    ***   
       LINDEP_TOL           ILINDP              8               ***   
       LINEQ_CONV           IZTACN          10D-  7           cycles  
       LINEQ_EXPOR          ILMAXD              5               ***   
       LINEQ_MAXCY          ILMAXC            100               ***   
       LINEQ_TYPE           ILTYPE         DIIS        [  1]    ***   
       LOCK_ORBOCC          ILOCOC         OFF         [  0]    ***   
       MEMORY_SIZE          IMEMSZ         *********           words  
       MEM_UNIT             IMEMU          GB          [  3]    ***   
       MRCC                 IMRCCC         OFF         [  0]    ***   
       MULTIPLICTY          IMULTP              1               ***   
       NACOUPLING           IVCOUP         OFF         [  0]    ***   
       NEGEVAL              IDIE           ABORT       [  0]    ***   
       NEWNORM              INEWNO         OFF         [  0]    ***   
       NON-HF               INONHF         OFF         [  0]    ***   
       NTOP_TAMP            ITOPT2             15               ***   
       NUC_MODEL            INUCMO         POINT       [  0]    ***   
       OCCUPATION           IOCCU   ESTIMATED BY SCF 
       OPEN-SHELL           IOPEN          SPIN-ORBITAL[  0]    ***   
       OPTVIB               IOPTVB         OFF         [  0]    ***   
       ORBITALS             IORBTP         STANDARD    [  0]    ***   
       PARALLEL             IPARAL         ON          [  1]    ***   
       PARA_INT             IPINTS         ON          [  1]    ***   
       PARA_PRINT           IPPRIN              0               ***   
       PERT_ORB             IPTORB         STANDARD    [  0]    ***   
       POINTS               IGRDFD              0               ***   
       PRINT                IPRNT               0               ***   
       PROPS                IPROPS         OFF         [  0]    ***   
       PROP_INTEGR          IINTYP         INTERNAL    [  0]    ***   
       PSI                  IPSI           OFF         [  0]    ***   
       QC_ALG               IQCALG         FLM         [  0]    ***   
       QC_LINALG            IQCLIN         TRIDIAG     [  2]    ***   
       QC_MAXCYC            IQCMAX          10D-100           cycles  
       QC_MAXSCFCY          IQCMSC          10D- 15           cycles  
       QC_RTRUST            IQCRTR          10D-  0           x 10-3  
       QC_SKIPSCF           IQCSKI         OFF         [  0]    ***   
       QC_START             IQCSTA          10D-  1             ***   
       QRHFGUESS            IQGUES         OFF         [  0]    ***   
       QUARTIC              IQUART         OFF         [  0]    ***   
       RAMAN_INT            IRAMIN         OFF         [  0]    ***   
       RAMAN_ORB            IRAMRE         UNRELAXED   [  0]    ***   
       RDO                  IRDOFM         OFF         [  0]    ***   
       REDUCE_REPR          REDREP         Ir          [  0]    ***   
       REFERENCE            IREFNC         RHF         [  0]    ***   
       RELATIVIST           IRELAT         OFF         [  0]    ***   
       RELAX_DENS           IRDENS         OFF         [  0]    ***   
       RESET_FLAGS          IRESET         OFF         [  0]    ***   
       RESTART_CC           ICCRES         OFF         [  0]    ***   
       ROT_EVEC             ROTVEC              0               ***   
       SAVE_INTS            ISVINT         OFF         [  0]    ***   
       SCALE_ON             ISTCRT              0               ***   
       SCF_CONV             ISCFCV          10D-  7             ***   
       SCF_DAMPING          IDAMP               0             x 10-3  
       SCF_EXPORDE          IRPPOR              6               ***   
       SCF_EXPSTAR          IRPPLS              8               ***   
       SCF_EXTRAPO          IRPP           ON          [  1]    ***   
       SCF_MAXCYC           ISCFCY            150              cycles 
       SCF_NOSTOP           ISCFST         OFF         [  0]    ***   
       SCF_PRINT            ISCFPR              0               ***   
       SCF_PROG             ISCFPR         SCF         [  0]    ***   
       SD_FIELD             IFINSD              0             x 10-6  
       SOPERT               IPERSO         OFF         [  0]    ***   
       SPHERICAL            IDFGHI         ON          [  1]    ***   
       SPINORBIT            ISOCAL         OFF         [  0]    ***   
       SPINROTATIO          ISRCON         OFF         [  0]    ***   
       SPIN_FLIP            ISPFLP         OFF         [  0]    ***   
       SPIN_ORBIT           ISPORB         OFF         [  0]    ***   
       SPIN_SCAL            ISCSMP         OFF         [  0]    ***   
       STEEPSCALE           ISTPSC              1000          x 10-3  
       SUBGROUP             ISUBGP         DEFAULT     [  0]    ***   
       SUBGRPAXIS           ISBXYZ         X           [  0]    ***   
       SYMMETRY             ISYM           ON          [  0]    ***   
       SYM_CHECK            ISYMCK         OVERRIDE    [  1]    ***   
       T3_EXTRAPOL          IT3EXT         OFF         [  0]    ***   
       T4_EXTRAPOL          IT4EXP         OFF         [  0]    ***   
       TAMP_SUM             IEVERY              5               ***   
       TESTSUITE            ITESTS         OFF         [  0]    ***   
       THERMOCH             ITHERM         OFF         [  0]    ***   
       TOL_CHOLESK          ITOLCH          10D-  4             ***   
       TRANGRAD             IRESRM         OFF         [  0]    ***   
       TRANS_INV            ITRAIN         USE         [  0]    ***   
       TREAT_PERT           ITREAT         SIMULTANEOUS[  0]    ***   
       TRIP_ALGORI          ITRALG         NORMAL      [  0]    ***   
       UIJ_THRESHO          IUIJTH              1               ***   
       UNITS                IUNITS         ANGSTROM    [  0]    ***   
       UNOS                 IUNOS          OFF         [  0]    ***   
       UPDATE_HESS          IHUPDT         ON          [  1]    ***   
       VIBPHASE             ISETPH         STANDARD    [  0]    ***   
       VIBRATION            IVIB           NO          [  0]    ***   
       VIB_ALGORIT          IGEALG         STANDARD    [  0]    ***   
       VNATORB              IVNORB         OFF         [  0]    ***   
       VTRAN                IVTRAN         FULL/PARTIAL[  0]    ***   
       XFIELD               IXEFLD              0             x 10-6  
       XFORM_TOL            IXFTOL          10D- 11             ***   
       YFIELD               IYEFLD              0             x 10-6  
       ZFIELD               IZEFLD              0             x 10-6  
       ZSCALE_EXP           IZEXPS         OFF         [  0]    ***   
    -------------------------------------------------------------------
  @GETXYZ-I,     7 atoms read from ZMAT.
   Rotational constants (in cm-1): 
          0.1777968112             0.2042504894             0.8536890782
   Rotational constants (in MHz): 
       5330.2150513478          6123.2764831343         25592.9582983935
********************************************************************************
   The full molecular point group is C2v .
   The largest Abelian subgroup of the full molecular point group is C2v .
   The computational point group is C2v .
********************************************************************************


 ----------------------------------------------------------------
         Coordinates used in calculation (QCOMP) 
 ----------------------------------------------------------------
 Z-matrix   Atomic            Coordinates (in bohr)
  Symbol    Number           X              Y              Z
 ----------------------------------------------------------------
     C         6        -1.25572327     0.00000000    -0.59025963
     C         6         1.25572327     0.00000000    -0.59025963
     H         1        -2.19034422     1.81857454    -0.59025963
     H         1         2.19034422     1.81857454    -0.59025963
     H         1        -2.19034422    -1.81857454    -0.59025963
     H         1         2.19034422    -1.81857454    -0.59025963
     H         1         0.00000000     0.00000000    16.41727906
 ----------------------------------------------------------------
 
   Interatomic distance matrix (Angstroms) 
 
                 C             C             H             H             H    
                [ 1]        [ 2]        [ 3]        [ 4]        [ 5]
  C    [ 1]     0.00000
  C    [ 2]     1.32900     0.00000
  H    [ 3]     1.08200     2.06193     0.00000
  H    [ 4]     2.06193     1.08200     2.31816     0.00000
  H    [ 5]     1.08200     2.06193     1.92470     3.01303     0.00000
  H    [ 6]     2.06193     1.08200     3.01303     1.92470     2.31816
  H    [ 7]     9.02450     9.02450     9.12522     9.12522     9.12522
 
                 H             H    
                [ 6]        [ 7]
  H    [ 6]     0.00000
  H    [ 7]     9.12522     0.00000
 rotcon2
   Rotational constants (in cm-1): 
          0.2042504894             0.1777968112             0.8536890782
   Rotational constants (in MHz): 
       6123.2764831343          5330.2150513478         25592.9582983935
  ECPDATA file not present.   Using default ECPDATA. 
  @GTFLGS-W, Keyword #EXCITE not known and is ignored.
  @GTFLGS-W, Keyword #ESTATE_SYM not known and is ignored.
  There are  139 basis functions.
 @GEOPT-W, Archive file not created for single-point calculation.
 @CHECKOUT-I, Total execution time (CPU/WALL):        0.15/       0.17 seconds.
--executable xjoda finished with status     0 in        0.18 seconds (walltime).
 --invoking executable--
/home/tsommerfeld/zscale/bin/xvmol
 SERIAL VERSION OF MOLECULE STARTED
********************************************************************************
                    INPUT FROM MOL FILE
********************************************************************************
INTGRL        1    0    1    0    0    0    0    0    0                         
         *** CFOUR Program System (Release V0.1) ***                            
h_ethylene                                                                      
    3    2 X  Y       0.10E-08              0    0                              
   9999.00      3.00                                                            
          6.00000000    1    4    1    1    1    1                              
C #1  -1.255723272983657   0.000000000000000  -0.590259629661546                
   10    4                                                                      
   8236.00000000000       5.310000000000000E-004  0.000000000000000E+000        
 -1.130000000000000E-004  0.000000000000000E+000                                
   1235.00000000000       4.108000000000000E-003  0.000000000000000E+000        
 -8.780000000000000E-004  0.000000000000000E+000                                
   280.800000000000       2.108700000000000E-002  0.000000000000000E+000        
 -4.540000000000000E-003  0.000000000000000E+000                                
   79.2700000000000       8.185300000000000E-002  0.000000000000000E+000        
 -1.813300000000000E-002  0.000000000000000E+000                                
   25.5900000000000       0.234817000000000       0.000000000000000E+000        
 -5.576000000000000E-002  0.000000000000000E+000                                
   8.99700000000000       0.434401000000000       0.000000000000000E+000        
 -0.126895000000000       0.000000000000000E+000                                
   3.31900000000000       0.346129000000000       0.000000000000000E+000        
 -0.170352000000000       0.000000000000000E+000                                
  0.905900000000000       3.937800000000000E-002   1.00000000000000             
  0.140382000000000       0.000000000000000E+000                                
  0.364300000000000      -8.983000000000000E-003  0.000000000000000E+000        
  0.598684000000000       0.000000000000000E+000                                
  0.128500000000000       2.385000000000000E-003  0.000000000000000E+000        
  0.395389000000000        1.00000000000000                                     
    5    3                                                                      
   18.7100000000000       0.000000000000000E+000  1.403100000000000E-002        
  0.000000000000000E+000                                                        
   4.13300000000000       0.000000000000000E+000  8.686600000000000E-002        
  0.000000000000000E+000                                                        
   1.20000000000000       0.000000000000000E+000  0.290216000000000             
  0.000000000000000E+000                                                        
  0.382700000000000        1.00000000000000       0.501008000000000             
  0.000000000000000E+000                                                        
  0.120900000000000       0.000000000000000E+000  0.343406000000000             
   1.00000000000000                                                             
    2    2                                                                      
   1.09700000000000        1.00000000000000       0.000000000000000E+000        
  0.318000000000000       0.000000000000000E+000   1.00000000000000             
    1    1                                                                      
  0.761000000000000        1.00000000000000                                     
          1.00000000    1    3    1    1    1                                   
H #2  -2.190344215575466   1.818574537711477  -0.590259629661546                
    5    3                                                                      
   33.8700000000000       0.000000000000000E+000  6.068000000000000E-003        
  0.000000000000000E+000                                                        
   5.09500000000000       0.000000000000000E+000  4.530800000000000E-002        
  0.000000000000000E+000                                                        
   1.15900000000000       0.000000000000000E+000  0.202822000000000             
  0.000000000000000E+000                                                        
  0.325800000000000        1.00000000000000       0.503903000000000             
  0.000000000000000E+000                                                        
  0.102700000000000       0.000000000000000E+000  0.383421000000000             
   1.00000000000000                                                             
    2    2                                                                      
   1.40700000000000        1.00000000000000       0.000000000000000E+000        
  0.388000000000000       0.000000000000000E+000   1.00000000000000             
    1    1                                                                      
   1.05700000000000        1.00000000000000                                     
          1.00000000    1    3    1    1    1                                   
H #3   0.000000000000000   0.000000000000000  16.417279056347354                
    6    4                                                                      
   33.8700000000000       0.000000000000000E+000  6.068000000000000E-003        
  0.000000000000000E+000  0.000000000000000E+000                                
   5.09500000000000       0.000000000000000E+000  4.530800000000000E-002        
  0.000000000000000E+000  0.000000000000000E+000                                
   1.15900000000000       0.000000000000000E+000  0.202822000000000             
  0.000000000000000E+000  0.000000000000000E+000                                
  0.325800000000000        1.00000000000000       0.503903000000000             
  0.000000000000000E+000  0.000000000000000E+000                                
  0.102700000000000       0.000000000000000E+000  0.383421000000000             
   1.00000000000000       0.000000000000000E+000                                
  2.526000000000000E-002  0.000000000000000E+000  0.000000000000000E+000        
  0.000000000000000E+000   1.00000000000000                                     
    3    3                                                                      
   1.40700000000000        1.00000000000000       0.000000000000000E+000        
  0.000000000000000E+000                                                        
  0.388000000000000       0.000000000000000E+000   1.00000000000000             
  0.000000000000000E+000                                                        
  0.102000000000000       0.000000000000000E+000  0.000000000000000E+000        
   1.00000000000000                                                             
    2    2                                                                      
   1.05700000000000        1.00000000000000       0.000000000000000E+000        
  0.247000000000000       0.000000000000000E+000   1.00000000000000             
FINISH                                                                          
 
********************************************************************************
 ONE- AND TWO-ELECTRON INTEGRALS OVER SYMMETRY-ADAPTED AOS ARE CALCULATED.

  SPHERICAL HARMONICS ARE USED.
  
  INTEGRALS LESS THAN  0.10E-13 ARE NEGLECTED.

  NUCLEAR REPULSION ENERGY :   34.5248321862 A.U.
  @MOLECU-I, ONE ELECTRON INTEGRALS (CPU/WALL):        0.04/       0.04 SECONDS.
  @TWOEL-I,     436643 INTEGRALS OF SYMMETRY TYPE  I I I I
  @TWOEL-I,    1793507 INTEGRALS OF SYMMETRY TYPE  I J I J
  @TWOEL-I,    1043922 INTEGRALS OF SYMMETRY TYPE  I I J J
  @TWOEL-I,    1567002 INTEGRALS OF SYMMETRY TYPE  I J K L
  @TWOEL-I, TOTAL NUMBER OF 2-E INTEGRALS    4841074.
  @MOLECU-I, TWO ELECTRON INTEGRALS (CPU/WALL):       30.83/       3.54 SECONDS.
 @CHECKOUT-I, Total execution time (CPU/WALL):       30.89/       3.60 seconds.

Running with 12 threads/proc

--executable xvmol finished with status     0 in        3.62 seconds (walltime).
 --invoking executable--
/home/tsommerfeld/zscale/bin/xvmol2ja
 @GETMEM-I,  Allocated   85830 MB of main memory.
 @CHECKOUT-I, Total execution time (CPU/WALL):        0.10/       0.02 seconds.
--executable xvmol2ja finished with status     0 in        0.03 seconds (walltime).
 --invoking executable--
/home/tsommerfeld/zscale/bin/xvscf
  There are  139 functions in the AO basis.

  There are 4 irreducible representations.

       Irrep        # of functions
         1                 45
         2                 39
         3                 29
         4                 26


  Parameters for SCF calculation: 
        SCF reference function:  RHF  
  Maximum number of iterations:  150
     Full symmetry point group: C2v 
     Computational point group: C2v 
        Initial density matrix: MOREAD                 
     SCF convergence tolerance: 10**(- 7)
  DIIS convergence acceleration:  ON
          Latest start for DIIS:   8
                     DIIS order:   6

  Memory information:     823082 words required.
  Fock matrices are constructed from AO integral file.
 @GETMEM-I,  Allocated       6 MB of main memory.
  Initialization and symmetry analysis required      0.001 seconds.

  @INITGES-I, Occupancies from core Hamiltonian:

          Alpha population by irrep:   4    3    1    1
           Beta population by irrep:   4    3    1    1


 total no. of electrons in initial guess :  0.000000000000000E+000
  --------------------------------------------------------------------
  Iteration         Total Energy            Largest Density Difference
  --------------------------------------------------------------------
       0            34.524832186240630              0.0000000000D+00
   current occupation vector 
     4  3  1  1
     4  3  1  1
       1           -51.688135043120880              0.8749604865D+01
   current occupation vector 
     4  3  1  1
     4  3  1  1
       2           -40.627981601196936              0.3173340866D+02
   current occupation vector 
     5  3  1  0
     5  3  1  0
       3           -67.961308349029608              0.3147136797D+02
   current occupation vector 
     4  3  1  1
     4  3  1  1
       4           -42.711032658468511              0.1243468696D+02
   current occupation vector 
     6  2  1  0
     6  2  1  0
       5           -68.619958161971340              0.1243468696D+02
   current occupation vector 
     4  3  1  1
     4  3  1  1
       6           -42.988966013438898              0.1243467020D+02
   current occupation vector 
     6  2  1  0
     6  2  1  0
       7           -68.711883539438702              0.1243467020D+02
   current occupation vector 
     4  3  1  1
     4  3  1  1
       8           -43.026300089259408              0.1243466768D+02
   current occupation vector 
     6  2  1  0
     6  2  1  0
       9           -73.505145761502533              0.1243466772D+02
   current occupation vector 
     4  3  1  1
     4  3  1  1
      10           -75.747845127036456              0.9159658322D+00
   current occupation vector 
     4  3  1  1
     4  3  1  1
      11           -77.537041250189517              0.9047445584D+00
   current occupation vector 
     4  3  1  1
     4  3  1  1
      12           -76.507512740622929              0.2850642857D+01
   current occupation vector 
     5  2  1  1
     5  2  1  1
      13           -78.380315980404220              0.2842060273D+01
   current occupation vector 
     5  2  1  1
     5  2  1  1
      14           -78.422601424206704              0.2671719381D+00
   current occupation vector 
     5  2  1  1
     5  2  1  1
      15           -78.480685537747917              0.2501067333D+00
   current occupation vector 
     5  2  1  1
     5  2  1  1
      16           -78.545119940675690              0.3661128174D+00
   current occupation vector 
     5  2  1  1
     5  2  1  1
      17           -78.546797104880341              0.7691642638D-01
   current occupation vector 
     5  2  1  1
     5  2  1  1
      18           -78.546852037803063              0.1987161009D-01
   current occupation vector 
     5  2  1  1
     5  2  1  1
      19           -78.546852065958220              0.2144978599D-03
   current occupation vector 
     5  2  1  1
     5  2  1  1
      20           -78.546852067778929              0.6126892343D-04
   current occupation vector 
     5  2  1  1
     5  2  1  1
      21           -78.546852067922160              0.1328779927D-04
   current occupation vector 
     5  2  1  1
     5  2  1  1
      22           -78.546852067925727              0.1725939918D-05
   current occupation vector 
     5  2  1  1
     5  2  1  1
      23           -78.546852067926608              0.4878380065D-06
   current occupation vector 
     5  2  1  1
     5  2  1  1
      24           -78.546852067926395              0.1649992981D-06
   current occupation vector 
     5  2  1  1
     5  2  1  1

  SCF has converged.

 Density matrix saved to file den.dat
 total electron number:   18.0000000000000     
     E(SCF)=       -78.546852067926366              0.1145080816D-07


  Final occupancies:

     Alpha population by irrep:   5    2    1    1
      Beta population by irrep:   5    2    1    1


  Eigenvector printing suppressed.

 @PUTMOS-I, Writing converged MOs to NEWMOS. 
 @PUTMOS-I, Symmetry   1 Full Blocks 11 Partial Blocksize   1
 @PUTMOS-I, Symmetry   2 Full Blocks  9 Partial Blocksize   3
 @PUTMOS-I, Symmetry   3 Full Blocks  7 Partial Blocksize   1
 @PUTMOS-I, Symmetry   4 Full Blocks  6 Partial Blocksize   2
 @PUTFOCK-I, Writing converged Fock matrix to NEWFOCK. 
 @PUTFOCK-I, Symmetry   1 Full Blocks 11 Partial Blocksize   1
 @PUTFOCK-I, Symmetry   2 Full Blocks  9 Partial Blocksize   3
 @PUTFOCK-I, Symmetry   3 Full Blocks  7 Partial Blocksize   1
 @PUTFOCK-I, Symmetry   4 Full Blocks  6 Partial Blocksize   2


 
  ORBITAL EIGENVALUES (ALPHA)  (1H = 27.2113834 eV)

       MO #        E(hartree)               E(eV)           FULLSYM    COMPSYM
       ----   --------------------   --------------------   -------   ---------
    1     1         -11.1677236010        -303.8892086114      A1        A1 (1)
    2    46         -11.1659595780        -303.8412071052      B1        B1 (2)
    3     2          -0.9794652932         -26.6526056190      A1        A1 (1)
    4    47          -0.7215271441         -19.6337517528      B1        B1 (2)
    5    85          -0.6008388664         -16.3496567554      B2        B2 (3)
    6     3          -0.5078756835         -13.8199999425      A1        A1 (1)
    7   114          -0.4564127160         -12.4196214041      A2        A2 (4)
    8     4          -0.3180550629          -8.6547182582      A1        A1 (1)
    9     5          -0.0453769770          -1.2347703197      A1        A1 (1)
  +++++++++++++++++++++++++++++++++++++++++++++++++++++++++++++++++++++++++++++
   10    48           0.2133839751           5.8064731575      B1        B1 (2)
   11     6           0.2152762482           5.8579645265      A1        A1 (1)
   12     7           0.2424351925           6.5969969726      A1        A1 (1)
   13    86           0.2426212355           6.6020594596      B2        B2 (3)
   14    49           0.2501562164           6.8070967149      B1        B1 (2)
   15   115           0.2967817397           8.0758417063      A2        A2 (4)
   16    50           0.4128987370          11.2355458389      B1        B1 (2)
   17     8           0.4183446319          11.3837361730      A1        A1 (1)
   18    87           0.4495598668          12.2331458979      E         B2 (3)
   19    51           0.4495633679          12.2332411672      E         B1 (2)
   20     9           0.4496304439          12.2350663963      A1        A1 (1)
   21    10           0.5053890349          13.7523347945      A1        A1 (1)
   22    88           0.5299163940          14.4197581680      B2        B2 (3)
   23    11           0.5385513024          14.6547259710      A1        A1 (1)
   24    52           0.6240219370          16.9805001777      B1        B1 (2)
   25    53           0.6477714604          17.6267575657      B1        B1 (2)
   26    89           0.6549233154          17.8213694325      B2        B2 (3)
   27    12           0.6838065186          18.6073213492      A1        A1 (1)
   28    54           0.6974823702          18.9794601890      B1        B1 (2)
   29    90           0.7259064805          19.7529195540      B2        B2 (3)
   30   116           0.7519392554          20.4613073724      A2        A2 (4)
   31    13           0.7831645460          21.3109907267      A1        A1 (1)
   32    55           0.8433946454          22.9499350526      B1        B1 (2)
   33   117           0.8869149091          24.1341816344      A2        A2 (4)
   34    14           0.9548273992          25.9821744416      A1        A1 (1)
   35   118           0.9624852446          26.1905550067      A2        A2 (4)
   36    15           1.0444784235          28.4217028347      A1        A1 (1)
   37   119           1.0798406448          29.3839577978      A2        A2 (4)
   38    91           1.0957489498          29.8168447833      B2        B2 (3)
   39    16           1.1022706350          29.9943088608      E         A1 (1)
   40   120           1.1022706405          29.9943090098      E         A2 (4)
   41    92           1.1022940821          29.9949468881      E         B2 (3)
   42    56           1.1022955039          29.9949855776      E         B1 (2)
   43    17           1.1023057190          29.9952635433      A1        A1 (1)
   44    18           1.2406053223          33.7585870736      A1        A1 (1)
   45    57           1.2411003532          33.7720575487      B1        B1 (2)
   46    19           1.2874869844          35.0343019543      A1        A1 (1)
   47    93           1.3128806507          35.7252987443      B2        B2 (3)
   48    94           1.3385592342          36.4240485266      E         B2 (3)
   49    58           1.3385605814          36.4240851853      E         B1 (2)
   50    20           1.3385863908          36.4247874942      A1        A1 (1)
   51    59           1.3801336431          37.5553457046      B1        B1 (2)
   52    95           1.4036611273          38.1955610997      B2        B2 (3)
   53    60           1.4227081418          38.7138567141      B1        B1 (2)
   54    96           1.5220095318          41.4159849071      B2        B2 (3)
   55    61           1.5365691394          41.8121719737      B1        B1 (2)
   56    21           1.5657782125          42.6069912596      A1        A1 (1)
   57    62           1.5912933846          43.3012943904      B1        B1 (2)
   58   121           1.6557521694          45.0553070957      A2        A2 (4)
   59   122           1.6946324264          46.1132926762      A2        A2 (4)
   60    63           1.8584153380          50.5700522797      B1        B1 (2)
   61    22           1.9105151796          51.9877610438      A1        A1 (1)
   62   123           2.0288541446          55.2079279915      A2        A2 (4)
   63    23           2.3447998977          63.8052490121      A1        A1 (1)
   64    24           2.4230338909          65.9341041966      A1        A1 (1)
   65    25           2.6064876268          70.9261341415      A1        A1 (1)
   66    64           2.6231655861          71.3799644840      B1        B1 (2)
   67    97           2.6824157940          72.9922446096      B2        B2 (3)
   68    98           2.7673923265          75.3045736155      B2        B2 (3)
   69    65           2.7997410567          76.1848273143      B1        B1 (2)
   70    26           2.8202885272          76.7439524111      A1        A1 (1)
   71   124           2.9001680859          78.9175857104      A2        A2 (4)
   72    99           2.9746126793          80.9433260838      B2        B2 (3)
   73    27           2.9768459012          81.0040951405      A1        A1 (1)
   74   125           3.1232961234          84.9892082861      A2        A2 (4)
   75    28           3.1551974392          85.8572872208      A1        A1 (1)
   76   100           3.1653986469          86.1348761933      B2        B2 (3)
   77    29           3.1676059313          86.1949394556      A1        A1 (1)
   78   101           3.1796165824          86.5217658887      B2        B2 (3)
   79   126           3.2118131957          87.3978802783      A2        A2 (4)
   80    30           3.2372696288          88.0905850372      A1        A1 (1)
   81    66           3.2875654103          89.4592028326      B1        B1 (2)
   82    67           3.3249906397          90.4775950973      B1        B1 (2)
   83   102           3.3966065166          92.4263621819      B2        B2 (3)
   84    68           3.4608416556          94.1742891762      B1        B1 (2)
   85    69           3.4845852713          94.8203858066      B1        B1 (2)
   86   127           3.4852470422          94.8383935085      A2        A2 (4)
   87   128           3.5063359852          95.4122528214      A2        A2 (4)
   88    70           3.5122646482          95.5735799442      B1        B1 (2)
   89    31           3.6092333872          98.2122334799      A1        A1 (1)
   90    32           3.6349601068          98.9122931109      A1        A1 (1)
   91   103           3.7005536141         100.6971831851      B2        B2 (3)
   92   104           3.7814146619         102.8975241600      B2        B2 (3)
   93   129           3.8747972967         105.4385948373      A2        A2 (4)
   94    71           3.9350022697         107.0768554403      B1        B1 (2)
   95   130           3.9708612933         108.0526290790      A2        A2 (4)
   96    72           4.0273031642         109.5884904682      B1        B1 (2)
   97   131           4.0358592271         109.8213127760      A2        A2 (4)
   98    33           4.0658104315         110.6363264846      A1        A1 (1)
   99   105           4.0705527821         110.7653724024      B2        B2 (3)
  100    34           4.1159722951         112.0013001867      A1        A1 (1)
  101    35           4.2163457246         114.7326000578                A1 (1)
  102   132           4.2163457267         114.7326001152                A2 (4)
  103   106           4.2163513871         114.7327541438                B2 (3)
  104    73           4.2163517146         114.7327630561                B1 (2)
  105    36           4.2163539596         114.7328241452                A1 (1)
  106    74           4.2434548744         115.4702775281      B1        B1 (2)
  107   133           4.2503487048         115.6578681891      A2        A2 (4)
  108    37           4.2515922777         115.6917075290      A1        A1 (1)
  109   107           4.2611139791         115.9508061952      B2        B2 (3)
  110    38           4.3883836094         119.4139889022      A1        A1 (1)
  111    75           4.4092364840         119.9814244673      B1        B1 (2)
  112   108           4.4444252990         120.9389608037                B2 (3)
  113    76           4.4444256887         120.9389714068                B1 (2)
  114    39           4.4444331558         120.9391745990                A1 (1)
  115   109           4.5287117549         123.2325118719      B2        B2 (3)
  116    77           4.5648371753         124.2155345345      B1        B1 (2)
  117   134           4.6654245408         126.9526559023      A2        A2 (4)
  118    40           4.7003411291         127.9027845755      A1        A1 (1)
  119    78           4.8167578727         131.0706452199      B1        B1 (2)
  120    79           4.8724633988         132.5864696469      B1        B1 (2)
  121    41           4.9870916700         135.7056634835      A1        A1 (1)
  122    42           5.0330421504         136.9560396226      A1        A1 (1)
  123   135           5.0868866046         138.4212217106      A2        A2 (4)
  124   110           5.1862073989         141.1238779230      B2        B2 (3)
  125   111           5.2756704777         143.5582920604      B2        B2 (3)
  126    43           5.3581921353         145.8038205240      A1        A1 (1)
  127    80           5.3634777165         145.9476485010      B1        B1 (2)
  128   136           5.4857441969         149.2746885750      A2        A2 (4)
  129   137           5.5012504948         149.6966363935      A2        A2 (4)
  130    81           5.5964091299         152.2860344961      B1        B1 (2)
  131    44           5.6217648962         152.9759999765      A1        A1 (1)
  132   112           5.6763635647         154.4617052762      B2        B2 (3)
  133    82           6.0159096813         163.7012248383      B1        B1 (2)
  134   138           6.1517601902         167.3979051207      A2        A2 (4)
  135   113           6.3295282350         172.2352195435      B2        B2 (3)
  136    83           6.5688247955         178.7468099985      B1        B1 (2)
  137   139           6.9322961435         188.6373682027      A2        A2 (4)
  138    45          11.9558097634         325.3341233302      A1        A1 (1)
  139    84          14.8081595321         402.9505064770      B1        B1 (2)


  VSCF finished.

 @CHECKOUT-I, Total execution time (CPU/WALL):       14.51/       1.25 seconds.
--executable xvscf finished with status     0 in        1.27 seconds (walltime).
 --invoking executable--
/home/tsommerfeld/zscale/bin/xvtran
 @GETMEM-I,  Allocated   85830 MB of main memory.
  Full RHF integral transformation
  Transformation of IIII integrals :
  1 pass through the AO integral file was required.
      436643 AO integrals were read.
      996623 MO integrals were written to HF2.
  Transformation of IIJJ integrals :
  1 pass through the AO integral file was required.
     1043922 AO integrals were read.
     2384788 MO integrals were written to HF2.
  Transformation of IJIJ integrals :
  1 pass through the AO integral file was required.
     1793507 AO integrals were read.
     4513758 MO integrals were written to HF2.
  Transformation of IJKL integrals :
  1 pass through the AO integral file was required.
     1567002 AO integrals were read.
     3965545 MO integrals were written to HF2.
  Summary of active molecular orbitals: 
------------------------------------------------------------------------
 
  Index      Eigenvalue    Symmetry    Index      Eigenvalue    Symmetry
------------------------------------------------------------------------
     1       -11.1677236        1        71         3.4845853        2
     2        -0.9794653        1        72         3.5122646        2
     3        -0.5078757        1        73         3.9350023        2
     4        -0.3180551        1        74         4.0273032        2
     5        -0.0453770        1        75         4.2163517        2
     6       -11.1659596        2        76         4.2434549        2
     7        -0.7215271        2        77         4.4092365        2
     8        -0.6008389        3        78         4.4444257        2
     9        -0.4564127        4        79         4.5648372        2
    10         0.2152762        1        80         4.8167579        2
    11         0.2424352        1        81         4.8724634        2
    12         0.4183446        1        82         5.3634777        2
    13         0.4496304        1        83         5.5964091        2
    14         0.5053890        1        84         6.0159097        2
    15         0.5385513        1        85         6.5688248        2
    16         0.6838065        1        86        14.8081595        2
    17         0.7831645        1        87         0.2426212        3
    18         0.9548274        1        88         0.4495599        3
    19         1.0444784        1        89         0.5299164        3
    20         1.1022706        1        90         0.6549233        3
    21         1.1023057        1        91         0.7259065        3
    22         1.2406053        1        92         1.0957489        3
    23         1.2874870        1        93         1.1022941        3
    24         1.3385864        1        94         1.3128807        3
    25         1.5657782        1        95         1.3385592        3
    26         1.9105152        1        96         1.4036611        3
    27         2.3447999        1        97         1.5220095        3
    28         2.4230339        1        98         2.6824158        3
    29         2.6064876        1        99         2.7673923        3
    30         2.8202885        1       100         2.9746127        3
    31         2.9768459        1       101         3.1653986        3
    32         3.1551974        1       102         3.1796166        3
    33         3.1676059        1       103         3.3966065        3
    34         3.2372696        1       104         3.7005536        3
    35         3.6092334        1       105         3.7814147        3
    36         3.6349601        1       106         4.0705528        3
    37         4.0658104        1       107         4.2163514        3
    38         4.1159723        1       108         4.2611140        3
    39         4.2163457        1       109         4.4444253        3
    40         4.2163540        1       110         4.5287118        3
    41         4.2515923        1       111         5.1862074        3
    42         4.3883836        1       112         5.2756705        3
    43         4.4444332        1       113         5.6763636        3
    44         4.7003411        1       114         6.3295282        3
    45         4.9870917        1       115         0.2967817        4
    46         5.0330422        1       116         0.7519393        4
    47         5.3581921        1       117         0.8869149        4
    48         5.6217649        1       118         0.9624852        4
    49        11.9558098        1       119         1.0798406        4
    50         0.2133840        2       120         1.1022706        4
    51         0.2501562        2       121         1.6557522        4
    52         0.4128987        2       122         1.6946324        4
    53         0.4495634        2       123         2.0288541        4
    54         0.6240219        2       124         2.9001681        4
    55         0.6477715        2       125         3.1232961        4
    56         0.6974824        2       126         3.2118132        4
    57         0.8433946        2       127         3.4852470        4
    58         1.1022955        2       128         3.5063360        4
    59         1.2411004        2       129         3.8747973        4
    60         1.3385606        2       130         3.9708613        4
    61         1.3801336        2       131         4.0358592        4
    62         1.4227081        2       132         4.2163457        4
    63         1.5365691        2       133         4.2503487        4
    64         1.5912934        2       134         4.6654245        4
    65         1.8584153        2       135         5.0868866        4
    66         2.6231656        2       136         5.4857442        4
    67         2.7997411        2       137         5.5012505        4
    68         3.2875654        2       138         6.1517602        4
    69         3.3249906        2       139         6.9322961        4
    70         3.4608417        2
------------------------------------------------------------------------
  -11.1677236009773      -0.979465293155407      -0.507875683470710     
 -0.318055062873532      -4.537697703736273E-002  -11.1659595779773     
 -0.721527144143784      -0.600838866407965      -0.456412716015475     
  0.215276248195060       0.242435192493563       0.418344631938876     
  0.449630443865539       0.505389034888798       0.538551302429982     
  0.683806518605322       0.783164546007660       0.954827399241965     
   1.04447842349425        1.10227063504581        1.10230571898287     
   1.24060532231643        1.28748698437361        1.33858639080433     
   1.56577821249741        1.91051517960851        2.34479989768228     
   2.42303389090513        2.60648762684696        2.82028852715694     
   2.97684590120963        3.15519743920025        3.16760593125760     
   3.23726962875234        3.60923338722667        3.63496010683908     
   4.06581043154974        4.11597229513405        4.21634572455289     
   4.21635395961469        4.25159227770174        4.38838360941975     
   4.44443315583128        4.70034112912717        4.98709167000698     
   5.03304215038823        5.35819213528196        5.62176489624861     
   11.9558097634323       0.213383975088117       0.250156216420883     
  0.412898737038077       0.449563367923985       0.624021937000097     
  0.647771460443823       0.697482370154070       0.843394645365878     
   1.10229550393163        1.24110035319648        1.33856058142423     
   1.38013364306197        1.42270814184627        1.53656913943296     
   1.59129338460494        1.85841533803317        2.62316558606202     
   2.79974105669121        3.28756541031441        3.32499063966307     
   3.46084165556071        3.48458527127130        3.51226464819116     
   3.93500226968717        4.02730316416650        4.21635171463278     
   4.24345487440626        4.40923648399727        4.44442568865581     
   4.56483717525737        4.81675787273443        4.87246339878690     
   5.36347771649682        5.59640912986856        6.01590968132484     
   6.56882479552599        14.8081595321243       0.242621235478993     
  0.449559866841800       0.529916394032773       0.654923315383599     
  0.725906480519205        1.09574894980455        1.10229408212033     
   1.31288065068787        1.33855923424216        1.40366112733876     
   1.52200953175861        2.68241579403282        2.76739232653364     
   2.97461267933343        3.16539864685107        3.17961658240020     
   3.39660651659185        3.70055361408264        3.78141466192575     
   4.07055278205373        4.21635138711012        4.26111397905770     
   4.44442529899889        4.52871175494545        5.18620739888427     
   5.27567047768634        5.67636356467619        6.32952823499151     
  0.296781739742636       0.751939255409111       0.886914909089578     
  0.962485244563364        1.07984064484738        1.10227064052325     
   1.65575216935662        1.69463242637676        2.02885414460390     
   2.90016808591996        3.12329612341832        3.21181319573529     
   3.48524704217967        3.50633598515919        3.87479729668281     
   3.97086129325423        4.03585922706288        4.21634572666206     
   4.25034870476614        4.66542454075613        5.08688660461701     
   5.48574419685578        5.50125049480094        6.15176019021038     
   6.93229614348329     
 @CHECKOUT-I, Total execution time (CPU/WALL):       16.48/       1.94 seconds.
--executable xvtran finished with status     0 in        1.96 seconds (walltime).
 --invoking executable--
/home/tsommerfeld/zscale/bin/xintprc
 @GETMEM-I,  Allocated   85830 MB of main memory.
  @GMOIAA-I, Processing MO integrals for spin case AA.
  @GMOIAA-I, Generation of integral list completed.
                      TYPE                NUMBER
                      ----               --------
                      PPPP               9076174
                      PPPH               2499442
                      PPHH                173426
                      PHPH                 97627
                      PHHH                 13713
                      HHHH                   332

                     TOTAL              11860714

  @FORMT2-I, Second-order MP correlation energies:
            ------------------------------------------------
            E(SCF)                  =    -78.546852067926 a.u.
            E2(AA)                  =     -0.037950738405 a.u.
            E2(AB)                  =     -0.319234154436 a.u.
            E2(TOT)                 =     -0.395135631247 a.u.
            Total MP2 energy        =    -78.941987699173 a.u.
            ------------------------------------------------
   Largest T2 amplitudes for spin case AB:
       _       _                 _       _                 _       _
   i   j   a   b             i   j   a   b             i   j   a   b
-----------------------------------------------------------------------------
[  4   4  50  50]-0.08270 [  5   5  11  11]-0.08213 [  5   5  17  17]-0.04763
[  5   5  17  11] 0.04319 [  5   5  11  17] 0.04319 [  5   5  88  88]-0.04090
[  5   5  53  53]-0.04090 [  5   5  13  13]-0.04089 [  4   4  54  50]-0.03711
[  4   4  50  54]-0.03711 [  4   4  14  14]-0.03056 [  4   4  15  15]-0.02690
[  4   4  54  54]-0.02657 [  4   3  50  57] 0.02650 [  3   4  57  50] 0.02650
-----------------------------------------------------------------------------
   Norm of T2AB vector (   345906 symmetry allowed elements):  0.3321429318.
-----------------------------------------------------------------------------
 @CHECKOUT-I, Total execution time (CPU/WALL):        5.09/       2.83 seconds.
--executable xintprc finished with status     0 in        2.85 seconds (walltime).
  calling xvcc 
 --invoking executable--
/home/tsommerfeld/zscale/bin/xvcc
 @GETMEM-I,  Allocated   85830 MB of main memory.
   CCSD(T) energy will be calculated.
   The total correlation energy is -0.395135631247 a.u.
   The total correlation energy is -0.415035179071 a.u.
  Convergence information after     1 iterations: 
  Largest element of residual vector : -0.28812891E-01.
  Largest element of DIIS residual   : -0.28812891E-01.
   The total correlation energy is -0.426194774542 a.u.
  Convergence information after     2 iterations: 
  Largest element of residual vector : -0.13426110E-01.
  Largest element of DIIS residual   : -0.10650615E-01.
   The total correlation energy is -0.429096987180 a.u.
  Convergence information after     3 iterations: 
  Largest element of residual vector : -0.71695612E-02.
  Largest element of DIIS residual   : -0.58598281E-02.
   The total correlation energy is -0.430719686178 a.u.
  Convergence information after     4 iterations: 
  Largest element of residual vector : -0.35186402E-02.
  Largest element of DIIS residual   : -0.21117865E-02.
   The total correlation energy is -0.430892943708 a.u.
  Convergence information after     5 iterations: 
  Largest element of residual vector : -0.10429646E-02.
  Largest element of DIIS residual   : -0.38522541E-03.
   The total correlation energy is -0.430898067803 a.u.
  Convergence information after     6 iterations: 
  Largest element of residual vector :  0.24388179E-03.
  Largest element of DIIS residual   :  0.18540980E-03.
   The total correlation energy is -0.430888578703 a.u.
  Convergence information after     7 iterations: 
  Largest element of residual vector :  0.81766545E-04.
  Largest element of DIIS residual   : -0.40312752E-04.
   The total correlation energy is -0.430886185632 a.u.
  Convergence information after     8 iterations: 
  Largest element of residual vector :  0.32606402E-04.
  Largest element of DIIS residual   : -0.22733339E-04.
   The total correlation energy is -0.430886259474 a.u.
  Convergence information after     9 iterations: 
  Largest element of residual vector :  0.28662235E-04.
  Largest element of DIIS residual   : -0.70890198E-05.
   The total correlation energy is -0.430886167267 a.u.
  Convergence information after    10 iterations: 
  Largest element of residual vector : -0.80010321E-05.
  Largest element of DIIS residual   : -0.35465372E-05.
   The total correlation energy is -0.430886460154 a.u.
  Convergence information after    11 iterations: 
  Largest element of residual vector :  0.33736520E-05.
  Largest element of DIIS residual   : -0.19741422E-05.
   The total correlation energy is -0.430886575643 a.u.
  Convergence information after    12 iterations: 
  Largest element of residual vector : -0.19143568E-05.
  Largest element of DIIS residual   : -0.10377624E-05.
   The total correlation energy is -0.430886750922 a.u.
  Convergence information after    13 iterations: 
  Largest element of residual vector : -0.71270288E-06.
  Largest element of DIIS residual   : -0.42544180E-06.
   The total correlation energy is -0.430886809165 a.u.
  Convergence information after    14 iterations: 
  Largest element of residual vector : -0.29105555E-06.
  Largest element of DIIS residual   : -0.21768573E-06.
   The total correlation energy is -0.430886831532 a.u.
  Convergence information after    15 iterations: 
  Largest element of residual vector :  0.16012793E-06.
  Largest element of DIIS residual   :  0.96783438E-07.
   The total correlation energy is -0.430886836252 a.u.
  Convergence information after    16 iterations: 
  Largest element of residual vector : -0.10975796E-06.
  Largest element of DIIS residual   :  0.39505167E-07.
   The total correlation energy is -0.430886837602 a.u.
  Convergence information after    17 iterations: 
  Largest element of residual vector :  0.45992956E-07.
  Largest element of DIIS residual   : -0.24930378E-07.
  Amplitude equations converged in    17iterations.
   The total correlation energy is -0.430886838944 a.u.
   The CC iterations have converged.

   Largest T1 amplitudes for spin case AA:
   i       a                 i       a                 i       a    
-----------------------------------------------------------------------------
[  5      11    ]-0.02767 [  4      14    ] 0.02431 [  5      17    ]-0.01560
[  4      18    ]-0.01481 [  4      22    ]-0.00980 [  4      28    ]-0.00946
[  8      89    ]-0.00790 [  8      90    ] 0.00618 [  3      12    ] 0.00554
[  5      31    ]-0.00493 [  9     121    ]-0.00447 [  8      97    ]-0.00433
[  7      56    ] 0.00397 [  4      30    ]-0.00395 [  3      16    ]-0.00379
-----------------------------------------------------------------------------
   Norm of T1AA vector (      327 symmetry allowed elements):  0.0494024825.
-----------------------------------------------------------------------------
   Largest T2 amplitudes for spin case AB:
       _       _                 _       _                 _       _
   i   j   a   b             i   j   a   b             i   j   a   b
-----------------------------------------------------------------------------
[  5   5  11  11]-0.14987 [  4   4  50  50]-0.11612 [  5   5  17  11] 0.08565
[  5   5  11  17] 0.08565 [  5   5  17  17]-0.06426 [  5   5  88  88]-0.05420
[  5   5  53  53]-0.05420 [  5   5  13  13]-0.05418 [  4   4  54  50]-0.05150
[  4   4  50  54]-0.05150 [  4   4  54  54]-0.02940 [  4   4  15  15]-0.02626
[  4   4  14  14]-0.02556 [  4   3  50  57] 0.02554 [  3   4  57  50] 0.02554
-----------------------------------------------------------------------------
   Norm of T2AB vector (   345906 symmetry allowed elements):  0.4178269781.
-----------------------------------------------------------------------------
       Summary of iterative solution of CC equations 
      -----------------------------------------------------------
                       Correlation           Total
       Iteration         Energy              Energy
      -----------------------------------------------------------
            0        -0.395135631247     -78.941987699173  DIIS 
            1        -0.415035179071     -78.961887246997  DIIS 
            2        -0.426194774542     -78.973046842468  DIIS 
            3        -0.429096987180     -78.975949055106  DIIS 
            4        -0.430719686178     -78.977571754104  DIIS 
            5        -0.430892943708     -78.977745011635  DIIS 
            6        -0.430898067803     -78.977750135729  DIIS 
            7        -0.430888578703     -78.977740646630  DIIS 
            8        -0.430886185632     -78.977738253558  DIIS 
            9        -0.430886259474     -78.977738327400  DIIS 
           10        -0.430886167267     -78.977738235193  DIIS 
           11        -0.430886460154     -78.977738528080  DIIS 
           12        -0.430886575643     -78.977738643569  DIIS 
           13        -0.430886750922     -78.977738818848  DIIS 
           14        -0.430886809165     -78.977738877092  DIIS 
           15        -0.430886831532     -78.977738899458  DIIS 
           16        -0.430886836252     -78.977738904179  DIIS 
           17        -0.430886838944     -78.977738906870  DIIS 
      -----------------------------------------------------------
      A miracle has come to pass. The CC iterations have converged.
        E(CCSD)           =     -78.977738906870
        E(CCSD + T(CCSD)) =     -78.993540982071
        E(CCSD(T))        =     -78.993120643272
 @CHECKOUT-I, Total execution time (CPU/WALL):      203.15/      16.94 seconds.
--executable xvcc finished with status     0 in       16.97 seconds (walltime).
  The final electronic energy is       -78.993120643271880 a.u. 
  This computation required                           26.91 seconds (walltime).
