CFour on node01
 --invoking executable--
/home/tsommerfeld/zscale/bin/xjoda


   *************************************************************************
         <<<     CCCCCC     CCCCCC   |||     CCCCCC     CCCCCC   >>>
       <<<      CCC        CCC       |||    CCC        CCC         >>>
      <<<      CCC        CCC        |||   CCC        CCC            >>>
    <<<        CCC        CCC        |||   CCC        CCC              >>>
      <<<      CCC        CCC        |||   CCC        CCC            >>>
       <<<      CCC        CCC       |||    CCC        CCC         >>>
         <<<     CCCCCC     CCCCCC   |||     CCCCCC     CCCCCC   >>>
   *************************************************************************

     ****************************************************************
     * CFOUR Coupled-Cluster techniques for Computational Chemistry *
     ****************************************************************
 

   Department of Chemistry                Institut fuer Physikalische Chemie
   University of Florida                  Universitaet Mainz
   Gainesville, FL 32611, USA             D-55099 Mainz, Germany

   Department of Chemistry                Department of Chemistry
   Johns Hopkins University               Southern Methodist University
   Baltimore, MD 21218, USA               Dallas, TX 75275, USA

   Institute of Nanotechnology            Department of Physical Chemistry
   Karlsruhe Inst. of Technology          Eotvos Lorand University
   D-76021 Karlsruhe, Germany             H-1053 Budapest, Hungary

 
                       Version 2.1
 
                     node01                                            
                     Tue May  3 11:08:10 CDT 2022                      
                     integer*8 version is running
 
********************************************************************************
*                          Input from ZMAT file                                *
********************************************************************************
h_ethylene                                                                      
C       0.000000      0.0   -0.664500                                           
C       0.000000      0.0    0.664500                                           
H       0.962348      0.0   -1.159080                                           
H       0.962348      0.0    1.159080                                           
H      -0.962348      0.0   -1.159080                                           
H      -0.962348      0.0    1.159080                                           
H      0.000000      4.733333333333333      0.000000                            
                                                                                
*CFOUR(CALC=CCSD(T)                                                             
#EXCITE=EOMEE                                                                   
#ESTATE_SYM=0/3/0/0                                                             
CC_PROG=VCC                                                                     
CHARGE=-1                                                                       
COORDINATES=CARTESIAN                                                           
BASIS=SPECIAL                                                                   
REFERENCE=RHF                                                                   
MEM_SIZE=90,MEM_UNIT=GB)                                                        
                                                                                
C:cc-pVTZ                                                                       
C:cc-pVTZ                                                                       
H:cc-pVTZ                                                                       
H:cc-pVTZ                                                                       
H:cc-pVTZ                                                                       
H:cc-pVTZ                                                                       
H:aug-cc-pVTZ                                                                   
                                                                                
********************************************************************************
  @GTFLGS-W, Keyword #EXCITE not known and is ignored.
  @GTFLGS-W, Keyword #ESTATE_SYM not known and is ignored.
    -------------------------------------------------------------------
                    CFOUR Control Parameters 
    -------------------------------------------------------------------
        External           Internal           Value            Units
          Name               Name
    -------------------------------------------------------------------
       ABCDTYPE             IABCDT         STANDARD    [  0]    ***   
       ANHARMONIC           IANHAR         OFF         [  0]    ***   
       ANH_ALGORIT          IANALG         STANDARD    [  0]    ***   
       ANH_DERIVAT          IANDER         SECOND      [  1]    ***   
       ANH_MODE             ANHMOD         VIBRATION   [  0]    ***   
       ANH_STEPSIZ          ICUBST             50000          x 10-6  
       ANH_SYMMETR          IANHSM         ABELIAN     [  0]    ***   
       AO_LADDERS           IAOLAD         SINGLEPASS  [  1]    ***   
       AV_SCF               IAVSCF         OFF         [  0]    ***   
       BASIS                IBASIS         SPECIAL     [  0]    ***   
       BOTHVECTORS          BOTHVC         OFF         [  0]    ***   
       BOX_POTENT           IPIAB          OFF         [  0]    ***   
       BREIT                IBREIT         OFF         [  0]    ***   
       BRUCK_CONV           IBRTOL          10D-  4             ***   
       BRUECKNER            IBRKNR         OFF         [  0]    ***   
       BUFFERSIZE           IBUFFS              4096            ***   
       CACHE_RECS           ICHREC             10               ***   
       CALCLEVEL            ICLLVL         CCSD(T)     [ 22]    ***   
       CCORBOPT             ICCORB         OFF         [  0]  x 0.01  
       CC_CONV              ICCCNV          10D-  7             ***   
       CC_EXPORDER          ICCEOR              5               ***   
       CC_EXTRAPOL          ICCEXT         DIIS        [  1]    ***   
       CC_GUESS             ICCGES         MP2         [  0]    ***   
       CC_MAXCYC            ICCCYC            100              cycles 
       CC_PROGRAM           ICCPRO         VCC         [  0]    ***   
       CHARGE               ICHRGE             -1               ***   
       CHOLESKY             ICHOLE         OFF         [  0]    ***   
       CIS_CONV             ICISTL              5               ***   
       COMM_SIZE            IPSIZE            ***               ***   
       CONSTANT             ICONST         OLD         [  1]    ***   
       CONTINUUM            ICONTU         NONE        [  0]    ***   
       CONTRACTION          ICNTYP         GENERAL     [  1]    ***   
       COORDINATES          ICOORD         CARTESIAN   [  1]    ***   
       CPHF_CONVER          ICPHFT          10D- 16             ***   
       CPHF_MAXCYC          ICPHFC             64              cycles 
       CUBIC                ICUBIC         OFF         [  0]    ***   
       CURVILINEAR          ICURVY         OFF         [  0]    ***   
       DBOC                 IDBOC          OFF         [  0]    ***   
       DCT                  IDCT           OFF         [  0]    ***   
       DERIV_LEV            IDRLVL         ZERO        [  0]    ***   
       DEVMEM_SIZE          IDVMEM         *********           MByte  
       DIAG_MRCC            IEOMST          10D-  0             ***   
       DIFF_TYPE            IDIFTY         RELAXED     [  0]    ***   
       DIRECT               IDIRCT         OFF         [  0]    ***   
       DROPMO               IDRPMO      NONE         
       ECP                  IECP           OFF         [  0]    ***   
       EIGENVECTOR          IVEC                1               ***   
       EL_ANHARM            IELANH         OFF         [  0]    ***   
       EOMFOLLOW            IEOMSR         ENERGY      [  0]    ***   
       EOMIP                IEOMIP         OFF         [  0]    ***   
       EOMLEVEL             HBARFM         SAME        [  0]    ***   
       EOM_MRCC             IMRCCE         NEW         [  1]    ***   
       EOM_NONIT            EOMNON         OFF         [  0]    ***   
       EOM_NSING            IEOMSI          10D-  0             ***   
       EOM_NSTATES          IMRCCD         DAVIDSON    [  0]    ***   
       EOM_NTRIP            IEOMTR          10D-  0             ***   
       EOM_ORDER            IEXORD         ENERGY      [  0]    ***   
       EOM_PROPSTA          IEOMST              0               ***   
       ESTATE_CONV          IEXTOL          10D-  5             ***   
       ESTATE_DIAG          IEXDIG         ITERATIVE   [  0]    ***   
       ESTATE_LOCK          IESLOC         ON          [  1]    ***   
       ESTATE_MAXC          IEXMXC             40               ***   
       ESTATE_PROP          IEXPRP         OFF         [  0]    ***   
       EVAL_HESS            IRECAL              0            # of cyc.
       EXCITATION           IEXCIT              0               ***   
       EXCITE               IEXCIT         NONE        [  0]    ***   
       EXTERN_POT           IEXPOT         OFF         [  0]    ***   
       FCGRADNEW            IFCGNW         OFF         [  0]    ***   
       FC_FIELD             IFINFC              0             x 10-6  
       FD_CALTYPE           IFDCAL         GRADONLY    [  0]    ***   
       FD_PROJECT           IFDPRJ         OFF         [  1]    ***   
       FD_STEPSIZE          IDISFD              0            10-4 bohr
       FD_USEGROUP          IFDGRP         FULL        [  0]    ***   
       FILE_RECSIZ          IFLREC              4096           words  
       FINITE_PERT          IFIPER              0             x 10-6  
       FIXGEOM              IFIXGM         OFF         [  0]    ***   
       FOCK                 IFOCK          AO          [  1]    ***   
       FREQ_ALGORI          IVIALG         STANDARD    [  0]    ***   
       FROZEN_CORE          IFROCO         OFF         [  0]    ***   
       GAMMA_ABCD           IGABCD         STORE       [  0]    ***   
       GAMMA_ABCI           IGABCI         STORE       [  0]    ***   
       GENBAS_1             IGNBS1              0               ***   
       GENBAS_2             IGNBS2              0               ***   
       GENBAS_3             IGNBS3              0               ***   
       GENBAS_4             IGNBS4              0               ***   
       GEO_CONV             ICONTL              5              H/bohr 
       GEO_MAXCYC           IOPTCY             50               ***   
       GEO_MAXSTEP          IMXSTP            300            millibohr
       GEO_METHOD           INR            SINGLE_POINT[  5]    ***   
       GIAO                 IGIAO          OFF         [  1]    ***   
       GIMIC                IGIMIC         OFF         [  0]    ***   
       GRID                 IGRID          OFF         [  0]    ***   
       GRID_ALGO            IGALGO         SERIAL      [  0]    ***   
       GUESS                IGUESS         MOREAD      [  0]    ***   
       HBAR                 IHBAR          OFF         [  0]    ***   
       HESS_TYPE            IHESTP         SCF         [  0]    ***   
       HF2_FILE             IHF2Fl         USE         [  1]    ***   
       HFSTABILITY          ISTABL         OFF         [  0]    ***   
       INCORE               INCORE         OFF         [  0]    ***   
       INPUT_MRCC           IMRCC          ON          [  1]    ***   
       INTEGRALS            INTTYP         VMOL        [  1]    ***   
       JODA_PRINT           IJPRNT              0               ***   
       KEYWORD_OUT          IDMPKW         NO          [  0]    ***   
       LINDEP_TOL           ILINDP              8               ***   
       LINEQ_CONV           IZTACN          10D-  7           cycles  
       LINEQ_EXPOR          ILMAXD              5               ***   
       LINEQ_MAXCY          ILMAXC            100               ***   
       LINEQ_TYPE           ILTYPE         DIIS        [  1]    ***   
       LOCK_ORBOCC          ILOCOC         OFF         [  0]    ***   
       MEMORY_SIZE          IMEMSZ         *********           words  
       MEM_UNIT             IMEMU          GB          [  3]    ***   
       MRCC                 IMRCCC         OFF         [  0]    ***   
       MULTIPLICTY          IMULTP              1               ***   
       NACOUPLING           IVCOUP         OFF         [  0]    ***   
       NEGEVAL              IDIE           ABORT       [  0]    ***   
       NEWNORM              INEWNO         OFF         [  0]    ***   
       NON-HF               INONHF         OFF         [  0]    ***   
       NTOP_TAMP            ITOPT2             15               ***   
       NUC_MODEL            INUCMO         POINT       [  0]    ***   
       OCCUPATION           IOCCU   ESTIMATED BY SCF 
       OPEN-SHELL           IOPEN          SPIN-ORBITAL[  0]    ***   
       OPTVIB               IOPTVB         OFF         [  0]    ***   
       ORBITALS             IORBTP         STANDARD    [  0]    ***   
       PARALLEL             IPARAL         ON          [  1]    ***   
       PARA_INT             IPINTS         ON          [  1]    ***   
       PARA_PRINT           IPPRIN              0               ***   
       PERT_ORB             IPTORB         STANDARD    [  0]    ***   
       POINTS               IGRDFD              0               ***   
       PRINT                IPRNT               0               ***   
       PROPS                IPROPS         OFF         [  0]    ***   
       PROP_INTEGR          IINTYP         INTERNAL    [  0]    ***   
       PSI                  IPSI           OFF         [  0]    ***   
       QC_ALG               IQCALG         FLM         [  0]    ***   
       QC_LINALG            IQCLIN         TRIDIAG     [  2]    ***   
       QC_MAXCYC            IQCMAX          10D-100           cycles  
       QC_MAXSCFCY          IQCMSC          10D- 15           cycles  
       QC_RTRUST            IQCRTR          10D-  0           x 10-3  
       QC_SKIPSCF           IQCSKI         OFF         [  0]    ***   
       QC_START             IQCSTA          10D-  1             ***   
       QRHFGUESS            IQGUES         OFF         [  0]    ***   
       QUARTIC              IQUART         OFF         [  0]    ***   
       RAMAN_INT            IRAMIN         OFF         [  0]    ***   
       RAMAN_ORB            IRAMRE         UNRELAXED   [  0]    ***   
       RDO                  IRDOFM         OFF         [  0]    ***   
       REDUCE_REPR          REDREP         Ir          [  0]    ***   
       REFERENCE            IREFNC         RHF         [  0]    ***   
       RELATIVIST           IRELAT         OFF         [  0]    ***   
       RELAX_DENS           IRDENS         OFF         [  0]    ***   
       RESET_FLAGS          IRESET         OFF         [  0]    ***   
       RESTART_CC           ICCRES         OFF         [  0]    ***   
       ROT_EVEC             ROTVEC              0               ***   
       SAVE_INTS            ISVINT         OFF         [  0]    ***   
       SCALE_ON             ISTCRT              0               ***   
       SCF_CONV             ISCFCV          10D-  7             ***   
       SCF_DAMPING          IDAMP               0             x 10-3  
       SCF_EXPORDE          IRPPOR              6               ***   
       SCF_EXPSTAR          IRPPLS              8               ***   
       SCF_EXTRAPO          IRPP           ON          [  1]    ***   
       SCF_MAXCYC           ISCFCY            150              cycles 
       SCF_NOSTOP           ISCFST         OFF         [  0]    ***   
       SCF_PRINT            ISCFPR              0               ***   
       SCF_PROG             ISCFPR         SCF         [  0]    ***   
       SD_FIELD             IFINSD              0             x 10-6  
       SOPERT               IPERSO         OFF         [  0]    ***   
       SPHERICAL            IDFGHI         ON          [  1]    ***   
       SPINORBIT            ISOCAL         OFF         [  0]    ***   
       SPINROTATIO          ISRCON         OFF         [  0]    ***   
       SPIN_FLIP            ISPFLP         OFF         [  0]    ***   
       SPIN_ORBIT           ISPORB         OFF         [  0]    ***   
       SPIN_SCAL            ISCSMP         OFF         [  0]    ***   
       STEEPSCALE           ISTPSC              1000          x 10-3  
       SUBGROUP             ISUBGP         DEFAULT     [  0]    ***   
       SUBGRPAXIS           ISBXYZ         X           [  0]    ***   
       SYMMETRY             ISYM           ON          [  0]    ***   
       SYM_CHECK            ISYMCK         OVERRIDE    [  1]    ***   
       T3_EXTRAPOL          IT3EXT         OFF         [  0]    ***   
       T4_EXTRAPOL          IT4EXP         OFF         [  0]    ***   
       TAMP_SUM             IEVERY              5               ***   
       TESTSUITE            ITESTS         OFF         [  0]    ***   
       THERMOCH             ITHERM         OFF         [  0]    ***   
       TOL_CHOLESK          ITOLCH          10D-  4             ***   
       TRANGRAD             IRESRM         OFF         [  0]    ***   
       TRANS_INV            ITRAIN         USE         [  0]    ***   
       TREAT_PERT           ITREAT         SIMULTANEOUS[  0]    ***   
       TRIP_ALGORI          ITRALG         NORMAL      [  0]    ***   
       UIJ_THRESHO          IUIJTH              1               ***   
       UNITS                IUNITS         ANGSTROM    [  0]    ***   
       UNOS                 IUNOS          OFF         [  0]    ***   
       UPDATE_HESS          IHUPDT         ON          [  1]    ***   
       VIBPHASE             ISETPH         STANDARD    [  0]    ***   
       VIBRATION            IVIB           NO          [  0]    ***   
       VIB_ALGORIT          IGEALG         STANDARD    [  0]    ***   
       VNATORB              IVNORB         OFF         [  0]    ***   
       VTRAN                IVTRAN         FULL/PARTIAL[  0]    ***   
       XFIELD               IXEFLD              0             x 10-6  
       XFORM_TOL            IXFTOL          10D- 11             ***   
       YFIELD               IYEFLD              0             x 10-6  
       ZFIELD               IZEFLD              0             x 10-6  
       ZSCALE_EXP           IZEXPS         OFF         [  0]    ***   
    -------------------------------------------------------------------
  @GETXYZ-I,     7 atoms read from ZMAT.
   Rotational constants (in cm-1): 
          0.4458573312             0.6603182816             0.8536890782
   Rotational constants (in MHz): 
      13366.4683971269         19795.8468432797         25592.9582983936
********************************************************************************
   The full molecular point group is C2v .
   The largest Abelian subgroup of the full molecular point group is C2v .
   The computational point group is C2v .
********************************************************************************


 ----------------------------------------------------------------
         Coordinates used in calculation (QCOMP) 
 ----------------------------------------------------------------
 Z-matrix   Atomic            Coordinates (in bohr)
  Symbol    Number           X              Y              Z
 ----------------------------------------------------------------
     C         6        -1.25572327     0.00000000    -0.31043284
     C         6         1.25572327     0.00000000    -0.31043284
     H         1        -2.19034422     1.81857454    -0.31043284
     H         1         2.19034422     1.81857454    -0.31043284
     H         1        -2.19034422    -1.81857454    -0.31043284
     H         1         2.19034422    -1.81857454    -0.31043284
     H         1         0.00000000     0.00000000     8.63427269
 ----------------------------------------------------------------
 
   Interatomic distance matrix (Angstroms) 
 
                 C             C             H             H             H    
                [ 1]        [ 2]        [ 3]        [ 4]        [ 5]
  C    [ 1]     0.00000
  C    [ 2]     1.32900     0.00000
  H    [ 3]     1.08200     2.06193     0.00000
  H    [ 4]     2.06193     1.08200     2.31816     0.00000
  H    [ 5]     1.08200     2.06193     1.92470     3.01303     0.00000
  H    [ 6]     2.06193     1.08200     3.01303     1.92470     2.31816
  H    [ 7]     4.77975     4.77975     4.96730     4.96730     4.96730
 
                 H             H    
                [ 6]        [ 7]
  H    [ 6]     0.00000
  H    [ 7]     4.96730     0.00000
 rotcon2
   Rotational constants (in cm-1): 
          0.6603182816             0.4458573312             0.8536890782
   Rotational constants (in MHz): 
      19795.8468432797         13366.4683971269         25592.9582983935
  ECPDATA file not present.   Using default ECPDATA. 
  @GTFLGS-W, Keyword #EXCITE not known and is ignored.
  @GTFLGS-W, Keyword #ESTATE_SYM not known and is ignored.
  There are  139 basis functions.
 @GEOPT-W, Archive file not created for single-point calculation.
 @CHECKOUT-I, Total execution time (CPU/WALL):        0.15/       0.17 seconds.
--executable xjoda finished with status     0 in        0.19 seconds (walltime).
 --invoking executable--
/home/tsommerfeld/zscale/bin/xvmol
 SERIAL VERSION OF MOLECULE STARTED
********************************************************************************
                    INPUT FROM MOL FILE
********************************************************************************
INTGRL        1    0    1    0    0    0    0    0    0                         
         *** CFOUR Program System (Release V0.1) ***                            
h_ethylene                                                                      
    3    2 X  Y       0.10E-08              0    0                              
   9999.00      3.00                                                            
          6.00000000    1    4    1    1    1    1                              
C #1  -1.255723272983657   0.000000000000000  -0.310432842266443                
   10    4                                                                      
   8236.00000000000       5.310000000000000E-004  0.000000000000000E+000        
 -1.130000000000000E-004  0.000000000000000E+000                                
   1235.00000000000       4.108000000000000E-003  0.000000000000000E+000        
 -8.780000000000000E-004  0.000000000000000E+000                                
   280.800000000000       2.108700000000000E-002  0.000000000000000E+000        
 -4.540000000000000E-003  0.000000000000000E+000                                
   79.2700000000000       8.185300000000000E-002  0.000000000000000E+000        
 -1.813300000000000E-002  0.000000000000000E+000                                
   25.5900000000000       0.234817000000000       0.000000000000000E+000        
 -5.576000000000000E-002  0.000000000000000E+000                                
   8.99700000000000       0.434401000000000       0.000000000000000E+000        
 -0.126895000000000       0.000000000000000E+000                                
   3.31900000000000       0.346129000000000       0.000000000000000E+000        
 -0.170352000000000       0.000000000000000E+000                                
  0.905900000000000       3.937800000000000E-002   1.00000000000000             
  0.140382000000000       0.000000000000000E+000                                
  0.364300000000000      -8.983000000000000E-003  0.000000000000000E+000        
  0.598684000000000       0.000000000000000E+000                                
  0.128500000000000       2.385000000000000E-003  0.000000000000000E+000        
  0.395389000000000        1.00000000000000                                     
    5    3                                                                      
   18.7100000000000       0.000000000000000E+000  1.403100000000000E-002        
  0.000000000000000E+000                                                        
   4.13300000000000       0.000000000000000E+000  8.686600000000000E-002        
  0.000000000000000E+000                                                        
   1.20000000000000       0.000000000000000E+000  0.290216000000000             
  0.000000000000000E+000                                                        
  0.382700000000000        1.00000000000000       0.501008000000000             
  0.000000000000000E+000                                                        
  0.120900000000000       0.000000000000000E+000  0.343406000000000             
   1.00000000000000                                                             
    2    2                                                                      
   1.09700000000000        1.00000000000000       0.000000000000000E+000        
  0.318000000000000       0.000000000000000E+000   1.00000000000000             
    1    1                                                                      
  0.761000000000000        1.00000000000000                                     
          1.00000000    1    3    1    1    1                                   
H #2  -2.190344215575466   1.818574537711477  -0.310432842266443                
    5    3                                                                      
   33.8700000000000       0.000000000000000E+000  6.068000000000000E-003        
  0.000000000000000E+000                                                        
   5.09500000000000       0.000000000000000E+000  4.530800000000000E-002        
  0.000000000000000E+000                                                        
   1.15900000000000       0.000000000000000E+000  0.202822000000000             
  0.000000000000000E+000                                                        
  0.325800000000000        1.00000000000000       0.503903000000000             
  0.000000000000000E+000                                                        
  0.102700000000000       0.000000000000000E+000  0.383421000000000             
   1.00000000000000                                                             
    2    2                                                                      
   1.40700000000000        1.00000000000000       0.000000000000000E+000        
  0.388000000000000       0.000000000000000E+000   1.00000000000000             
    1    1                                                                      
   1.05700000000000        1.00000000000000                                     
          1.00000000    1    3    1    1    1                                   
H #3   0.000000000000000   0.000000000000000   8.634272688893795                
    6    4                                                                      
   33.8700000000000       0.000000000000000E+000  6.068000000000000E-003        
  0.000000000000000E+000  0.000000000000000E+000                                
   5.09500000000000       0.000000000000000E+000  4.530800000000000E-002        
  0.000000000000000E+000  0.000000000000000E+000                                
   1.15900000000000       0.000000000000000E+000  0.202822000000000             
  0.000000000000000E+000  0.000000000000000E+000                                
  0.325800000000000        1.00000000000000       0.503903000000000             
  0.000000000000000E+000  0.000000000000000E+000                                
  0.102700000000000       0.000000000000000E+000  0.383421000000000             
   1.00000000000000       0.000000000000000E+000                                
  2.526000000000000E-002  0.000000000000000E+000  0.000000000000000E+000        
  0.000000000000000E+000   1.00000000000000                                     
    3    3                                                                      
   1.40700000000000        1.00000000000000       0.000000000000000E+000        
  0.000000000000000E+000                                                        
  0.388000000000000       0.000000000000000E+000   1.00000000000000             
  0.000000000000000E+000                                                        
  0.102000000000000       0.000000000000000E+000  0.000000000000000E+000        
   1.00000000000000                                                             
    2    2                                                                      
   1.05700000000000        1.00000000000000       0.000000000000000E+000        
  0.247000000000000       0.000000000000000E+000   1.00000000000000             
FINISH                                                                          
 
********************************************************************************
 ONE- AND TWO-ELECTRON INTEGRALS OVER SYMMETRY-ADAPTED AOS ARE CALCULATED.

  SPHERICAL HARMONICS ARE USED.
  
  INTEGRALS LESS THAN  0.10E-13 ARE NEGLECTED.

  NUCLEAR REPULSION ENERGY :   35.3438921776 A.U.
  @MOLECU-I, ONE ELECTRON INTEGRALS (CPU/WALL):        0.04/       0.04 SECONDS.
  @TWOEL-I,     683736 INTEGRALS OF SYMMETRY TYPE  I I I I
  @TWOEL-I,    2942071 INTEGRALS OF SYMMETRY TYPE  I J I J
  @TWOEL-I,    1591999 INTEGRALS OF SYMMETRY TYPE  I I J J
  @TWOEL-I,    2534427 INTEGRALS OF SYMMETRY TYPE  I J K L
  @TWOEL-I, TOTAL NUMBER OF 2-E INTEGRALS    7752233.
  @MOLECU-I, TWO ELECTRON INTEGRALS (CPU/WALL):       41.88/       4.56 SECONDS.
 @CHECKOUT-I, Total execution time (CPU/WALL):       41.93/       4.62 seconds.

Running with 12 threads/proc

--executable xvmol finished with status     0 in        4.65 seconds (walltime).
 --invoking executable--
/home/tsommerfeld/zscale/bin/xvmol2ja
 @GETMEM-I,  Allocated   85830 MB of main memory.
 @CHECKOUT-I, Total execution time (CPU/WALL):        0.11/       0.02 seconds.
--executable xvmol2ja finished with status     0 in        0.05 seconds (walltime).
 --invoking executable--
/home/tsommerfeld/zscale/bin/xvscf
  There are  139 functions in the AO basis.

  There are 4 irreducible representations.

       Irrep        # of functions
         1                 45
         2                 39
         3                 29
         4                 26


  Parameters for SCF calculation: 
        SCF reference function:  RHF  
  Maximum number of iterations:  150
     Full symmetry point group: C2v 
     Computational point group: C2v 
        Initial density matrix: MOREAD                 
     SCF convergence tolerance: 10**(- 7)
  DIIS convergence acceleration:  ON
          Latest start for DIIS:   8
                     DIIS order:   6

  Memory information:     823082 words required.
  Fock matrices are constructed from AO integral file.
 @GETMEM-I,  Allocated       6 MB of main memory.
  Initialization and symmetry analysis required      0.002 seconds.

  @INITGES-I, Occupancies from core Hamiltonian:

          Alpha population by irrep:   4    3    1    1
           Beta population by irrep:   4    3    1    1


 total no. of electrons in initial guess :  0.000000000000000E+000
  --------------------------------------------------------------------
  Iteration         Total Energy            Largest Density Difference
  --------------------------------------------------------------------
       0            35.343892177550188              0.0000000000D+00
   current occupation vector 
     4  3  1  1
     4  3  1  1
       1           -51.808096937672403              0.8750434497D+01
   current occupation vector 
     4  3  1  1
     4  3  1  1
       2           -46.154501167606057              0.3000273366D+02
   current occupation vector 
     5  3  1  0
     5  3  1  0
       3           -68.201004729682822              0.2974730717D+02
   current occupation vector 
     4  3  1  1
     4  3  1  1
       4           -54.657938894713197              0.1305849535D+02
   current occupation vector 
     5  3  1  0
     5  3  1  0
       5           -69.280619501807593              0.1302082769D+02
   current occupation vector 
     4  3  1  1
     4  3  1  1
       6           -55.694448269205338              0.8799271271D+01
   current occupation vector 
     5  3  1  0
     5  3  1  0
       7           -69.590459553095499              0.8811630435D+01
   current occupation vector 
     4  3  1  1
     4  3  1  1
       8           -55.936117585546370              0.7714261052D+01
   current occupation vector 
     5  3  1  0
     5  3  1  0
       9           -75.808076959812425              0.7842834902D+01
   current occupation vector 
     4  3  1  1
     4  3  1  1
      10           -77.555607977333679              0.9062710049D+00
   current occupation vector 
     4  3  1  1
     4  3  1  1
      11           -78.309114075782887              0.1889216129D+01
   current occupation vector 
     5  2  1  1
     5  2  1  1
      12           -78.433771749898185              0.4699421391D+00
   current occupation vector 
     5  2  1  1
     5  2  1  1
      13           -78.528661982260488              0.4106018856D+00
   current occupation vector 
     5  2  1  1
     5  2  1  1
      14           -78.544421580372415              0.1553829754D+00
   current occupation vector 
     5  2  1  1
     5  2  1  1
      15           -78.544656210323254              0.3363749595D-01
   current occupation vector 
     5  2  1  1
     5  2  1  1
      16           -78.544666298622474              0.7191462292D-02
   current occupation vector 
     5  2  1  1
     5  2  1  1
      17           -78.544666421274954              0.6132521895D-03
   current occupation vector 
     5  2  1  1
     5  2  1  1
      18           -78.544666425227106              0.1269186278D-03
   current occupation vector 
     5  2  1  1
     5  2  1  1
      19           -78.544666425445385              0.2220125972D-04
   current occupation vector 
     5  2  1  1
     5  2  1  1
      20           -78.544666425455731              0.2164237765D-05
   current occupation vector 
     5  2  1  1
     5  2  1  1
      21           -78.544666425455944              0.1279880307D-05
   current occupation vector 
     5  2  1  1
     5  2  1  1
      22           -78.544666425456697              0.2370814560D-06
   current occupation vector 
     5  2  1  1
     5  2  1  1

  SCF has converged.

 Density matrix saved to file den.dat
 total electron number:   18.0000000000001     
     E(SCF)=       -78.544666425456029              0.2820794401D-07


  Final occupancies:

     Alpha population by irrep:   5    2    1    1
      Beta population by irrep:   5    2    1    1


  Eigenvector printing suppressed.

 @PUTMOS-I, Writing converged MOs to NEWMOS. 
 @PUTMOS-I, Symmetry   1 Full Blocks 11 Partial Blocksize   1
 @PUTMOS-I, Symmetry   2 Full Blocks  9 Partial Blocksize   3
 @PUTMOS-I, Symmetry   3 Full Blocks  7 Partial Blocksize   1
 @PUTMOS-I, Symmetry   4 Full Blocks  6 Partial Blocksize   2
 @PUTFOCK-I, Writing converged Fock matrix to NEWFOCK. 
 @PUTFOCK-I, Symmetry   1 Full Blocks 11 Partial Blocksize   1
 @PUTFOCK-I, Symmetry   2 Full Blocks  9 Partial Blocksize   3
 @PUTFOCK-I, Symmetry   3 Full Blocks  7 Partial Blocksize   1
 @PUTFOCK-I, Symmetry   4 Full Blocks  6 Partial Blocksize   2


 
  ORBITAL EIGENVALUES (ALPHA)  (1H = 27.2113834 eV)

       MO #        E(hartree)               E(eV)           FULLSYM    COMPSYM
       ----   --------------------   --------------------   -------   ---------
    1     1         -11.1193844615        -302.5738337531      A1        A1 (1)
    2    46         -11.1176202521        -302.5258271768      B1        B1 (2)
    3     2          -0.9303871481         -25.3171213974      A1        A1 (1)
    4    47          -0.6735496690         -18.3282182813      B1        B1 (2)
    5    85          -0.5526152573         -15.0374256379      B2        B2 (3)
    6     3          -0.4598376943         -12.5128198001      A1        A1 (1)
    7   114          -0.4088142070         -11.1244001248      A2        A2 (4)
    8     4          -0.2677815968          -7.2867076985      A1        A1 (1)
    9     5          -0.0436919313          -1.1889178941      A1        A1 (1)
  +++++++++++++++++++++++++++++++++++++++++++++++++++++++++++++++++++++++++++++
   10     6           0.2389142936           6.5011884439      A1        A1 (1)
   11    48           0.2627500428           7.1497921517      B1        B1 (2)
   12     7           0.2720682116           7.4033524178      A1        A1 (1)
   13    86           0.2845465172           7.7429043756      B2        B2 (3)
   14    49           0.2918924742           7.9427980283      B1        B1 (2)
   15   115           0.3370422509           9.1713859110      A2        A2 (4)
   16     8           0.4369141825          11.8890393331      A1        A1 (1)
   17    50           0.4500484586          12.2464411564      B1        B1 (2)
   18    87           0.4505290428          12.2595185162      B2        B2 (3)
   19    51           0.4568187341          12.4306697173      B1        B1 (2)
   20     9           0.4664195330          12.6919207377      A1        A1 (1)
   21    10           0.5621424143          15.2966727619      A1        A1 (1)
   22    88           0.5787741566          15.7492454769      B2        B2 (3)
   23    11           0.6292810474          17.1236078484      A1        A1 (1)
   24    52           0.6704323006          18.2433903754      B1        B1 (2)
   25    89           0.7005244564          19.0622395648      B2        B2 (3)
   26    53           0.7061813320          19.2161709760      B1        B1 (2)
   27    12           0.7286958135          19.8288211621      A1        A1 (1)
   28    54           0.7446503109          20.2629651075      B1        B1 (2)
   29    90           0.7755354948          21.1033936881      B2        B2 (3)
   30    13           0.7909572731          21.5230416117      A1        A1 (1)
   31   116           0.7975831971          21.7033421695      A2        A2 (4)
   32    55           0.8903216666          24.2268842184      B1        B1 (2)
   33   117           0.9348944894          25.4397723905      A2        A2 (4)
   34    14           1.0059069218          27.3721189135      A1        A1 (1)
   35   118           1.0112104632          27.5164356122      A2        A2 (4)
   36    15           1.0919013398          29.7121459924      A1        A1 (1)
   37    91           1.1026271999          30.0040114835      B2        B2 (3)
   38   119           1.1039080565          30.0388653649      A2        A2 (4)
   39    16           1.1039549576          30.0401416078      A1        A1 (1)
   40    56           1.1044865529          30.0546070520      B1        B1 (2)
   41    17           1.1071958474          30.1283307027      A1        A1 (1)
   42   120           1.1256354012          30.6300964716      A2        A2 (4)
   43    92           1.1456356041          31.1743296585      B2        B2 (3)
   44    18           1.2874528526          35.0333731828      A1        A1 (1)
   45    57           1.2886972560          35.0672351190      B1        B1 (2)
   46    19           1.3292193099          36.1698962635      A1        A1 (1)
   47    93           1.3411158089          36.4936164592      B2        B2 (3)
   48    58           1.3439696868          36.5712744245      B1        B1 (2)
   49    94           1.3615991195          37.0509956786      B2        B2 (3)
   50    20           1.3748629447          37.4119227119      A1        A1 (1)
   51    59           1.4274447418          38.8427461525      B1        B1 (2)
   52    95           1.4507610293          39.4772145898      B2        B2 (3)
   53    60           1.4733935637          40.0930771603      B1        B1 (2)
   54    96           1.5680990179          42.6701435855      B2        B2 (3)
   55    61           1.5830546235          43.0771063036      B1        B1 (2)
   56    21           1.6173762127          44.0110442268      A1        A1 (1)
   57    62           1.6434141797          44.7195733292      B1        B1 (2)
   58   121           1.7012243871          46.2926690457      A2        A2 (4)
   59   122           1.7435575563          47.4446131455      A2        A2 (4)
   60    63           1.9066798110          51.8833953571      B1        B1 (2)
   61    22           1.9582011280          53.2853616679      A1        A1 (1)
   62   123           2.0758908608          56.4878621088      A2        A2 (4)
   63    23           2.4056042110          65.4598184938      A1        A1 (1)
   64    24           2.4888262214          67.7244045264      A1        A1 (1)
   65    25           2.6560644227          72.2751873421      A1        A1 (1)
   66    64           2.6732474217          72.7427605155      B1        B1 (2)
   67    97           2.7314571709          74.3267283192      B2        B2 (3)
   68    98           2.8163236515          76.6360626584      B2        B2 (3)
   69    65           2.8480359914          77.4989993001      B1        B1 (2)
   70    26           2.8693118041          78.0779435963      A1        A1 (1)
   71   124           2.9487003831          80.2382166561      A2        A2 (4)
   72    27           2.9850941398          81.2285411235      A1        A1 (1)
   73    99           3.0229048939          82.2574240506      B2        B2 (3)
   74   125           3.1713552690          86.2969641212      A2        A2 (4)
   75    28           3.2064214487          87.2511633833      A1        A1 (1)
   76   100           3.2151679627          87.4891681285      B2        B2 (3)
   77    29           3.2175425019          87.5537826254      A1        A1 (1)
   78   101           3.2279381121          87.8366615586      B2        B2 (3)
   79   126           3.2601951437          88.7144200144      A2        A2 (4)
   80    30           3.2871646980          89.4482988950      A1        A1 (1)
   81    66           3.3372328610          90.8107228762      B1        B1 (2)
   82    67           3.3722190387          91.7627451711      B1        B1 (2)
   83   102           3.4443866703          93.7265262635      B2        B2 (3)
   84    68           3.5097499113          95.5051504753      B1        B1 (2)
   85    69           3.5336685576          96.1560099284      B1        B1 (2)
   86   127           3.5340974754          96.1676813768      A2        A2 (4)
   87   128           3.5535533247          96.6971019503      A2        A2 (4)
   88    70           3.5610965325          96.9023630701      B1        B1 (2)
   89    31           3.6584896138          99.5525635460      A1        A1 (1)
   90    32           3.6847628540         100.2674947581      A1        A1 (1)
   91   103           3.7480768706         101.9903567372      B2        B2 (3)
   92   104           3.8284709953         104.1779920897      B2        B2 (3)
   93   129           3.9223739743         106.7332220541      A2        A2 (4)
   94    71           3.9835384900         108.3975931397      B1        B1 (2)
   95   130           4.0182508280         109.3421638789      A2        A2 (4)
   96    72           4.0749192750         110.8841907174      B1        B1 (2)
   97   131           4.0835936528         111.1202325369      A2        A2 (4)
   98    33           4.1137819629         111.9416982171      A1        A1 (1)
   99   105           4.1179880501         112.0561516680      B2        B2 (3)
  100    34           4.1643077816         113.3165756406      A1        A1 (1)
  101    35           4.2189245332         114.8027730096      A1        A1 (1)
  102   132           4.2189469011         114.8033816692      A2        A2 (4)
  103   106           4.2191199659         114.8080910025      B2        B2 (3)
  104    73           4.2201239019         114.8354094892      B1        B1 (2)
  105    36           4.2217183273         114.8787960105      A1        A1 (1)
  106    74           4.2906610578         116.7548230831      B1        B1 (2)
  107   133           4.2976714811         116.9455864005      A2        A2 (4)
  108    37           4.3007824154         117.0302392264      A1        A1 (1)
  109   107           4.3084779372         117.2396450184      B2        B2 (3)
  110    38           4.4327662583         120.6217021760      A1        A1 (1)
  111    75           4.4465320446         120.9962882659      B1        B1 (2)
  112   108           4.4475590379         121.0242341747      B2        B2 (3)
  113    76           4.4596764376         121.3539653842      B1        B1 (2)
  114    39           4.4659947767         121.5258961312      A1        A1 (1)
  115   109           4.5756620718         124.5100949459      B2        B2 (3)
  116    77           4.6115841462         125.4875842849      B1        B1 (2)
  117   134           4.7132428494         128.2538582312      A2        A2 (4)
  118    40           4.7490719371         129.2288172750      A1        A1 (1)
  119    78           4.8652602563         132.3904621738      B1        B1 (2)
  120    79           4.9216976483         133.9262016868      B1        B1 (2)
  121    41           5.0353339350         137.0184022514      A1        A1 (1)
  122    42           5.0814615299         138.2735979229      A1        A1 (1)
  123   135           5.1340288945         139.7040286342      A2        A2 (4)
  124   110           5.2335343122         142.4117087063      B2        B2 (3)
  125   111           5.3237051239         144.8653812358      B2        B2 (3)
  126    43           5.4066780728         147.1231899595      A1        A1 (1)
  127    80           5.4106988522         147.2326009298      B1        B1 (2)
  128   136           5.5337594511         150.5812500671      A2        A2 (4)
  129   137           5.5486125657         150.9854238635      A2        A2 (4)
  130    81           5.6446734104         153.5993723382      B1        B1 (2)
  131    44           5.6704274464         154.3001752869      A1        A1 (1)
  132   112           5.7245029796         155.7716453525      B2        B2 (3)
  133    82           6.0638819353         165.0066162351      B1        B1 (2)
  134   138           6.1991086136         168.6863212219      A2        A2 (4)
  135   113           6.3771183302         173.5302118699      B2        B2 (3)
  136    83           6.6167141661         180.0499460214      B1        B1 (2)
  137   139           6.9800260485         189.9361649488      A2        A2 (4)
  138    45          12.0337051129         327.4537635496      A1        A1 (1)
  139    84          14.8589042559         404.3313406101      B1        B1 (2)


  VSCF finished.

 @CHECKOUT-I, Total execution time (CPU/WALL):       22.20/       1.87 seconds.
--executable xvscf finished with status     0 in        1.89 seconds (walltime).
 --invoking executable--
/home/tsommerfeld/zscale/bin/xvtran
 @GETMEM-I,  Allocated   85830 MB of main memory.
  Full RHF integral transformation
  Transformation of IIII integrals :
  1 pass through the AO integral file was required.
      683736 AO integrals were read.
      997326 MO integrals were written to HF2.
  Transformation of IIJJ integrals :
  1 pass through the AO integral file was required.
     1591999 AO integrals were read.
     2386575 MO integrals were written to HF2.
  Transformation of IJIJ integrals :
  1 pass through the AO integral file was required.
     2942071 AO integrals were read.
     4517476 MO integrals were written to HF2.
  Transformation of IJKL integrals :
  1 pass through the AO integral file was required.
     2534427 AO integrals were read.
     3969810 MO integrals were written to HF2.
  Summary of active molecular orbitals: 
------------------------------------------------------------------------
 
  Index      Eigenvalue    Symmetry    Index      Eigenvalue    Symmetry
------------------------------------------------------------------------
     1       -11.1193845        1        71         3.5336686        2
     2        -0.9303871        1        72         3.5610965        2
     3        -0.4598377        1        73         3.9835385        2
     4        -0.2677816        1        74         4.0749193        2
     5        -0.0436919        1        75         4.2201239        2
     6       -11.1176203        2        76         4.2906611        2
     7        -0.6735497        2        77         4.4465320        2
     8        -0.5526153        3        78         4.4596764        2
     9        -0.4088142        4        79         4.6115841        2
    10         0.2389143        1        80         4.8652603        2
    11         0.2720682        1        81         4.9216976        2
    12         0.4369142        1        82         5.4106989        2
    13         0.4664195        1        83         5.6446734        2
    14         0.5621424        1        84         6.0638819        2
    15         0.6292810        1        85         6.6167142        2
    16         0.7286958        1        86        14.8589043        2
    17         0.7909573        1        87         0.2845465        3
    18         1.0059069        1        88         0.4505290        3
    19         1.0919013        1        89         0.5787742        3
    20         1.1039550        1        90         0.7005245        3
    21         1.1071958        1        91         0.7755355        3
    22         1.2874529        1        92         1.1026272        3
    23         1.3292193        1        93         1.1456356        3
    24         1.3748629        1        94         1.3411158        3
    25         1.6173762        1        95         1.3615991        3
    26         1.9582011        1        96         1.4507610        3
    27         2.4056042        1        97         1.5680990        3
    28         2.4888262        1        98         2.7314572        3
    29         2.6560644        1        99         2.8163237        3
    30         2.8693118        1       100         3.0229049        3
    31         2.9850941        1       101         3.2151680        3
    32         3.2064214        1       102         3.2279381        3
    33         3.2175425        1       103         3.4443867        3
    34         3.2871647        1       104         3.7480769        3
    35         3.6584896        1       105         3.8284710        3
    36         3.6847629        1       106         4.1179881        3
    37         4.1137820        1       107         4.2191200        3
    38         4.1643078        1       108         4.3084779        3
    39         4.2189245        1       109         4.4475590        3
    40         4.2217183        1       110         4.5756621        3
    41         4.3007824        1       111         5.2335343        3
    42         4.4327663        1       112         5.3237051        3
    43         4.4659948        1       113         5.7245030        3
    44         4.7490719        1       114         6.3771183        3
    45         5.0353339        1       115         0.3370423        4
    46         5.0814615        1       116         0.7975832        4
    47         5.4066781        1       117         0.9348945        4
    48         5.6704274        1       118         1.0112105        4
    49        12.0337051        1       119         1.1039081        4
    50         0.2627500        2       120         1.1256354        4
    51         0.2918925        2       121         1.7012244        4
    52         0.4500485        2       122         1.7435576        4
    53         0.4568187        2       123         2.0758909        4
    54         0.6704323        2       124         2.9487004        4
    55         0.7061813        2       125         3.1713553        4
    56         0.7446503        2       126         3.2601951        4
    57         0.8903217        2       127         3.5340975        4
    58         1.1044866        2       128         3.5535533        4
    59         1.2886973        2       129         3.9223740        4
    60         1.3439697        2       130         4.0182508        4
    61         1.4274447        2       131         4.0835937        4
    62         1.4733936        2       132         4.2189469        4
    63         1.5830546        2       133         4.2976715        4
    64         1.6434142        2       134         4.7132428        4
    65         1.9066798        2       135         5.1340289        4
    66         2.6732474        2       136         5.5337595        4
    67         2.8480360        2       137         5.5486126        4
    68         3.3372329        2       138         6.1991086        4
    69         3.3722190        2       139         6.9800260        4
    70         3.5097499        2
------------------------------------------------------------------------
  -11.1193844614698      -0.930387148101019      -0.459837694251849     
 -0.267781596820384      -4.369193129869459E-002  -11.1176202521491     
 -0.673549668968903      -0.552615257255758      -0.408814206954189     
  0.238914293638180       0.272068211636893       0.436914182508355     
  0.466419532997869       0.562142414334334       0.629281047446978     
  0.728695813460664       0.790957273111753        1.00590692178691     
   1.09190133980607        1.10395495760937        1.10719584740900     
   1.28745285264613        1.32921930986959        1.37486294474285     
   1.61737621273675        1.95820112798598        2.40560421098476     
   2.48882622139638        2.65606442273439        2.86931180412736     
   2.98509413981107        3.20642144872900        3.21754250191489     
   3.28716469795466        3.65848961379982        3.68476285399280     
   4.11378196292383        4.16430778159681        4.21892453323671     
   4.22171832728458        4.30078241543454        4.43276625825628     
   4.46599477670175        4.74907193711306        5.03533393496554     
   5.08146152991513        5.40667807280444        5.67042744643942     
   12.0337051128994       0.262750042753587       0.291892474246281     
  0.450048458630114       0.456818734078425       0.670432300600894     
  0.706181332036705       0.744650310852715       0.890321666570988     
   1.10448655293145        1.28869725598096        1.34396968676301     
   1.42744474183998        1.47339356367745        1.58305462351448     
   1.64341417971417        1.90667981096259        2.67324742171904     
   2.84803599144107        3.33723286101529        3.37221903870896     
   3.50974991132968        3.53366855756297        3.56109653249473     
   3.98353848998580        4.07491927504823        4.22012390186840     
   4.29066105779551        4.44653204459607        4.45967643762533     
   4.61158414624771        4.86526025625897        4.92169764830295     
   5.41069885222365        5.64467341039901        6.06388193534992     
   6.61671416607934        14.8589042558618       0.284546517236219     
  0.450529042791839       0.578774156587427       0.700524456421060     
  0.775535494756200        1.10262719989207        1.14563560405146     
   1.34111580887830        1.36159911952739        1.45076102928973     
   1.56809901790817        2.73145717094126        2.81632365146060     
   3.02290489393366        3.21516796270319        3.22793811205453     
   3.44438667030566        3.74807687055119        3.82847099532920     
   4.11798805010251        4.21911996589313        4.30847793715449     
   4.44755903790891        4.57566207184763        5.23353431219779     
   5.32370512392946        5.72450297960684        6.37711833018665     
  0.337042250892191       0.797583197094469       0.934894489431091     
   1.01121046319907        1.10390805654072        1.12563540123273     
   1.70122438706083        1.74355755633689        2.07589086076241     
   2.94870038309456        3.17135526895602        3.26019514371154     
   3.53409747542534        3.55355332468504        3.92237397434684     
   4.01825082803158        4.08359365282675        4.21894690106799     
   4.29767148113904        4.71324284935911        5.13402889447539     
   5.53375945109251        5.54861256570634        6.19910861356154     
   6.98002604853858     
 @CHECKOUT-I, Total execution time (CPU/WALL):       17.39/       2.38 seconds.
--executable xvtran finished with status     0 in        2.40 seconds (walltime).
 --invoking executable--
/home/tsommerfeld/zscale/bin/xintprc
 @GETMEM-I,  Allocated   85830 MB of main memory.
  @GMOIAA-I, Processing MO integrals for spin case AA.
  @GMOIAA-I, Generation of integral list completed.
                      TYPE                NUMBER
                      ----               --------
                      PPPP               9084376
                      PPPH               2501601
                      PPHH                173538
                      PHPH                 97627
                      PHHH                 13713
                      HHHH                   332

                     TOTAL              11871187

  @FORMT2-I, Second-order MP correlation energies:
            ------------------------------------------------
            E(SCF)                  =    -78.544666425456 a.u.
            E2(AA)                  =     -0.038073043158 a.u.
            E2(AB)                  =     -0.319725360107 a.u.
            E2(TOT)                 =     -0.395871446423 a.u.
            Total MP2 energy        =    -78.940537871879 a.u.
            ------------------------------------------------
   Largest T2 amplitudes for spin case AB:
       _       _                 _       _                 _       _
   i   j   a   b             i   j   a   b             i   j   a   b
-----------------------------------------------------------------------------
[  4   4  50  50]-0.08175 [  5   5  10  10]-0.05911 [  5   5  17  17]-0.04527
[  5   5  88  88]-0.04085 [  5   5  52  52]-0.03996 [  5   5  11  10] 0.03565
[  5   5  10  11] 0.03565 [  5   5  17  10] 0.03515 [  5   5  10  17] 0.03515
[  5   5  12  12]-0.03454 [  4   4  50  54]-0.03421 [  4   4  54  50]-0.03421
[  4   4  14  14]-0.02908 [  4   3  50  57] 0.02633 [  3   4  57  50] 0.02633
-----------------------------------------------------------------------------
   Norm of T2AB vector (   345906 symmetry allowed elements):  0.3323986581.
-----------------------------------------------------------------------------
 @CHECKOUT-I, Total execution time (CPU/WALL):        5.65/       2.76 seconds.
--executable xintprc finished with status     0 in        2.78 seconds (walltime).
  calling xvcc 
 --invoking executable--
/home/tsommerfeld/zscale/bin/xvcc
 @GETMEM-I,  Allocated   85830 MB of main memory.
   CCSD(T) energy will be calculated.
   The total correlation energy is -0.395871446423 a.u.
   The total correlation energy is -0.415626875212 a.u.
  Convergence information after     1 iterations: 
  Largest element of residual vector : -0.19763800E-01.
  Largest element of DIIS residual   : -0.19763800E-01.
   The total correlation energy is -0.426787123603 a.u.
  Convergence information after     2 iterations: 
  Largest element of residual vector : -0.10807006E-01.
  Largest element of DIIS residual   : -0.10566889E-01.
   The total correlation energy is -0.429666583945 a.u.
  Convergence information after     3 iterations: 
  Largest element of residual vector :  0.53393288E-02.
  Largest element of DIIS residual   :  0.53992729E-02.
   The total correlation energy is -0.431282713858 a.u.
  Convergence information after     4 iterations: 
  Largest element of residual vector :  0.30869649E-02.
  Largest element of DIIS residual   : -0.18691221E-02.
   The total correlation energy is -0.431452915325 a.u.
  Convergence information after     5 iterations: 
  Largest element of residual vector :  0.11268159E-02.
  Largest element of DIIS residual   :  0.55672932E-03.
   The total correlation energy is -0.431458755181 a.u.
  Convergence information after     6 iterations: 
  Largest element of residual vector : -0.34211987E-03.
  Largest element of DIIS residual   :  0.26279148E-03.
   The total correlation energy is -0.431453233791 a.u.
  Convergence information after     7 iterations: 
  Largest element of residual vector :  0.14927034E-03.
  Largest element of DIIS residual   :  0.85594762E-04.
   The total correlation energy is -0.431445182478 a.u.
  Convergence information after     8 iterations: 
  Largest element of residual vector :  0.52188574E-04.
  Largest element of DIIS residual   :  0.31291672E-04.
   The total correlation energy is -0.431444966429 a.u.
  Convergence information after     9 iterations: 
  Largest element of residual vector :  0.21847376E-04.
  Largest element of DIIS residual   : -0.15727275E-04.
   The total correlation energy is -0.431445609731 a.u.
  Convergence information after    10 iterations: 
  Largest element of residual vector :  0.76449145E-05.
  Largest element of DIIS residual   : -0.81384803E-05.
   The total correlation energy is -0.431446493579 a.u.
  Convergence information after    11 iterations: 
  Largest element of residual vector :  0.57241013E-05.
  Largest element of DIIS residual   :  0.56151385E-05.
   The total correlation energy is -0.431447044227 a.u.
  Convergence information after    12 iterations: 
  Largest element of residual vector :  0.28970336E-05.
  Largest element of DIIS residual   : -0.26044784E-05.
   The total correlation energy is -0.431447398401 a.u.
  Convergence information after    13 iterations: 
  Largest element of residual vector :  0.19711806E-05.
  Largest element of DIIS residual   :  0.11009028E-05.
   The total correlation energy is -0.431447521074 a.u.
  Convergence information after    14 iterations: 
  Largest element of residual vector : -0.59926540E-06.
  Largest element of DIIS residual   : -0.47117756E-06.
   The total correlation energy is -0.431447519904 a.u.
  Convergence information after    15 iterations: 
  Largest element of residual vector :  0.31644815E-06.
  Largest element of DIIS residual   :  0.20516619E-06.
   The total correlation energy is -0.431447505678 a.u.
  Convergence information after    16 iterations: 
  Largest element of residual vector : -0.11532836E-06.
  Largest element of DIIS residual   :  0.79497108E-07.
   The total correlation energy is -0.431447500524 a.u.
  Convergence information after    17 iterations: 
  Largest element of residual vector :  0.51322525E-07.
  Largest element of DIIS residual   : -0.30682632E-07.
  Amplitude equations converged in    17iterations.
   The total correlation energy is -0.431447495816 a.u.
   The CC iterations have converged.

   Largest T1 amplitudes for spin case AA:
   i       a                 i       a                 i       a    
-----------------------------------------------------------------------------
[  5      10    ] 0.02766 [  4      14    ] 0.01880 [  5      17    ] 0.01506
[  4      18    ]-0.01476 [  4      15    ]-0.01113 [  4      22    ]-0.00950
[  4      28    ]-0.00917 [  5      11    ]-0.00872 [  4      12    ] 0.00833
[  8      89    ]-0.00798 [  8      90    ] 0.00619 [  3      13    ] 0.00528
[  5      31    ] 0.00487 [  9     121    ]-0.00451 [  8      97    ]-0.00435
-----------------------------------------------------------------------------
   Norm of T1AA vector (      327 symmetry allowed elements):  0.0499429352.
-----------------------------------------------------------------------------
   Largest T2 amplitudes for spin case AB:
       _       _                 _       _                 _       _
   i   j   a   b             i   j   a   b             i   j   a   b
-----------------------------------------------------------------------------
[  4   4  50  50]-0.11481 [  5   5  10  10]-0.10773 [  5   5  17  10] 0.07033
[  5   5  10  17] 0.07033 [  5   5  11  10] 0.06501 [  5   5  10  11] 0.06501
[  5   5  17  17]-0.06091 [  5   5  88  88]-0.05407 [  5   5  52  52]-0.05283
[  4   4  54  50]-0.04755 [  4   4  50  54]-0.04755 [  5   5  12  12]-0.04532
[  5   5  17  11]-0.04327 [  5   5  11  17]-0.04327 [  5   5  11  11]-0.04030
-----------------------------------------------------------------------------
   Norm of T2AB vector (   345906 symmetry allowed elements):  0.4170891782.
-----------------------------------------------------------------------------
       Summary of iterative solution of CC equations 
      -----------------------------------------------------------
                       Correlation           Total
       Iteration         Energy              Energy
      -----------------------------------------------------------
            0        -0.395871446423     -78.940537871879  DIIS 
            1        -0.415626875212     -78.960293300668  DIIS 
            2        -0.426787123603     -78.971453549059  DIIS 
            3        -0.429666583945     -78.974333009401  DIIS 
            4        -0.431282713858     -78.975949139314  DIIS 
            5        -0.431452915325     -78.976119340781  DIIS 
            6        -0.431458755181     -78.976125180637  DIIS 
            7        -0.431453233791     -78.976119659247  DIIS 
            8        -0.431445182478     -78.976111607934  DIIS 
            9        -0.431444966429     -78.976111391885  DIIS 
           10        -0.431445609731     -78.976112035187  DIIS 
           11        -0.431446493579     -78.976112919035  DIIS 
           12        -0.431447044227     -78.976113469683  DIIS 
           13        -0.431447398401     -78.976113823857  DIIS 
           14        -0.431447521074     -78.976113946530  DIIS 
           15        -0.431447519904     -78.976113945360  DIIS 
           16        -0.431447505678     -78.976113931134  DIIS 
           17        -0.431447495816     -78.976113921272  DIIS 
      -----------------------------------------------------------
      A miracle has come to pass. The CC iterations have converged.
        E(CCSD)           =     -78.976113921272
        E(CCSD + T(CCSD)) =     -78.992094641594
        E(CCSD(T))        =     -78.991666621883
 @CHECKOUT-I, Total execution time (CPU/WALL):      210.09/      17.54 seconds.
--executable xvcc finished with status     0 in       17.57 seconds (walltime).
  The final electronic energy is       -78.991666621882757 a.u. 
  This computation required                           29.55 seconds (walltime).
