CFour on node02
 --invoking executable--
/home/tsommerfeld/zscale/bin/xjoda


   *************************************************************************
         <<<     CCCCCC     CCCCCC   |||     CCCCCC     CCCCCC   >>>
       <<<      CCC        CCC       |||    CCC        CCC         >>>
      <<<      CCC        CCC        |||   CCC        CCC            >>>
    <<<        CCC        CCC        |||   CCC        CCC              >>>
      <<<      CCC        CCC        |||   CCC        CCC            >>>
       <<<      CCC        CCC       |||    CCC        CCC         >>>
         <<<     CCCCCC     CCCCCC   |||     CCCCCC     CCCCCC   >>>
   *************************************************************************

     ****************************************************************
     * CFOUR Coupled-Cluster techniques for Computational Chemistry *
     ****************************************************************
 

   Department of Chemistry                Institut fuer Physikalische Chemie
   University of Florida                  Universitaet Mainz
   Gainesville, FL 32611, USA             D-55099 Mainz, Germany

   Department of Chemistry                Department of Chemistry
   Johns Hopkins University               Southern Methodist University
   Baltimore, MD 21218, USA               Dallas, TX 75275, USA

   Institute of Nanotechnology            Department of Physical Chemistry
   Karlsruhe Inst. of Technology          Eotvos Lorand University
   D-76021 Karlsruhe, Germany             H-1053 Budapest, Hungary

 
                       Version 2.1
 
                     node02                                            
                     Tue Mar 29 16:02:36 CST 2022                      
                     integer*8 version is running
 
********************************************************************************
*                          Input from ZMAT file                                *
********************************************************************************
h_ethylene                                                                      
C       0.000000      0.0   -0.664500                                           
C       0.000000      0.0    0.664500                                           
H       0.962348      0.0   -1.159080                                           
H       0.962348      0.0    1.159080                                           
H      -0.962348      0.0   -1.159080                                           
H      -0.962348      0.0    1.159080                                           
H      0.000000      1.1363636363636362      0.000000                           
                                                                                
*CFOUR(CALC=CCSD                                                                
EXCITE=EOMEE                                                                    
ESTATE_SYM=0/3/0/0                                                              
CC_PROG=VCC                                                                     
CHARGE=-1                                                                       
COORDINATES=CARTESIAN                                                           
BASIS=SPECIAL                                                                   
REFERENCE=RHF                                                                   
MEM_SIZE=90,MEM_UNIT=GB)                                                        
                                                                                
C:CC-PVDZ                                                                       
C:CC-PVDZ                                                                       
H:CC-PVDZ                                                                       
H:CC-PVDZ                                                                       
H:CC-PVDZ                                                                       
H:CC-PVDZ                                                                       
H:AUG-CC-PVDZ                                                                   
                                                                                
********************************************************************************
    -------------------------------------------------------------------
                    CFOUR Control Parameters 
    -------------------------------------------------------------------
        External           Internal           Value            Units
          Name               Name
    -------------------------------------------------------------------
       ABCDTYPE             IABCDT         STANDARD    [  0]    ***   
       ANHARMONIC           IANHAR         OFF         [  0]    ***   
       ANH_ALGORIT          IANALG         STANDARD    [  0]    ***   
       ANH_DERIVAT          IANDER         SECOND      [  1]    ***   
       ANH_MODE             ANHMOD         VIBRATION   [  0]    ***   
       ANH_STEPSIZ          ICUBST             50000          x 10-6  
       ANH_SYMMETR          IANHSM         ABELIAN     [  0]    ***   
       AO_LADDERS           IAOLAD         SINGLEPASS  [  1]    ***   
       AV_SCF               IAVSCF         OFF         [  0]    ***   
       BASIS                IBASIS         SPECIAL     [  0]    ***   
       BOTHVECTORS          BOTHVC         OFF         [  0]    ***   
       BOX_POTENT           IPIAB          OFF         [  0]    ***   
       BREIT                IBREIT         OFF         [  0]    ***   
       BRUCK_CONV           IBRTOL          10D-  4             ***   
       BRUECKNER            IBRKNR         OFF         [  0]    ***   
       BUFFERSIZE           IBUFFS              4096            ***   
       CACHE_RECS           ICHREC             10               ***   
       CALCLEVEL            ICLLVL         CCSD        [ 10]    ***   
       CCORBOPT             ICCORB         OFF         [  0]  x 0.01  
       CC_CONV              ICCCNV          10D-  7             ***   
       CC_EXPORDER          ICCEOR              5               ***   
       CC_EXTRAPOL          ICCEXT         DIIS        [  1]    ***   
       CC_GUESS             ICCGES         MP2         [  0]    ***   
       CC_MAXCYC            ICCCYC            100              cycles 
       CC_PROGRAM           ICCPRO         VCC         [  0]    ***   
       CHARGE               ICHRGE             -1               ***   
       CHOLESKY             ICHOLE         OFF         [  0]    ***   
       CIS_CONV             ICISTL              5               ***   
       COMM_SIZE            IPSIZE            ***               ***   
       CONSTANT             ICONST         OLD         [  1]    ***   
       CONTINUUM            ICONTU         NONE        [  0]    ***   
       CONTRACTION          ICNTYP         GENERAL     [  1]    ***   
       COORDINATES          ICOORD         CARTESIAN   [  1]    ***   
       CPHF_CONVER          ICPHFT          10D- 16             ***   
       CPHF_MAXCYC          ICPHFC             64              cycles 
       CUBIC                ICUBIC         OFF         [  0]    ***   
       CURVILINEAR          ICURVY         OFF         [  0]    ***   
       DBOC                 IDBOC          OFF         [  0]    ***   
       DCT                  IDCT           OFF         [  0]    ***   
       DERIV_LEV            IDRLVL         ZERO        [  0]    ***   
       DEVMEM_SIZE          IDVMEM         *********           MByte  
       DIAG_MRCC            IEOMST          10D-  0             ***   
       DIFF_TYPE            IDIFTY         RELAXED     [  0]    ***   
       DIRECT               IDIRCT         OFF         [  0]    ***   
       DROPMO               IDRPMO      NONE         
       ECP                  IECP           OFF         [  0]    ***   
       EIGENVECTOR          IVEC                1               ***   
       EL_ANHARM            IELANH         OFF         [  0]    ***   
       EOMFOLLOW            IEOMSR         ENERGY      [  0]    ***   
       EOMIP                IEOMIP         OFF         [  0]    ***   
       EOMLEVEL             HBARFM         SAME        [  0]    ***   
       EOM_MRCC             IMRCCE         NEW         [  1]    ***   
       EOM_NONIT            EOMNON         OFF         [  0]    ***   
       EOM_NSING            IEOMSI          10D-  0             ***   
       EOM_NSTATES          IMRCCD         DAVIDSON    [  0]    ***   
       EOM_NTRIP            IEOMTR          10D-  0             ***   
       EOM_ORDER            IEXORD         ENERGY      [  0]    ***   
       EOM_PROPSTA          IEOMST              0               ***   
       ESTATE_CONV          IEXTOL          10D-  5             ***   
       ESTATE_DIAG          IEXDIG         ITERATIVE   [  0]    ***   
       ESTATE_LOCK          IESLOC         ON          [  1]    ***   
       ESTATE_MAXC          IEXMXC             40               ***   
       ESTATE_PROP          IEXPRP         OFF         [  0]    ***   
       ESTATE_SYM           IEXSYM   0,  3,  0,  0,
       EVAL_HESS            IRECAL              0            # of cyc.
       EXCITATION           IEXCIT              0               ***   
       EXCITE               IEXCIT         EOMEE       [  3]    ***   
       EXTERN_POT           IEXPOT         OFF         [  0]    ***   
       FCGRADNEW            IFCGNW         OFF         [  0]    ***   
       FC_FIELD             IFINFC              0             x 10-6  
       FD_CALTYPE           IFDCAL         GRADONLY    [  0]    ***   
       FD_PROJECT           IFDPRJ         OFF         [  1]    ***   
       FD_STEPSIZE          IDISFD              0            10-4 bohr
       FD_USEGROUP          IFDGRP         FULL        [  0]    ***   
       FILE_RECSIZ          IFLREC              4096           words  
       FINITE_PERT          IFIPER              0             x 10-6  
       FIXGEOM              IFIXGM         OFF         [  0]    ***   
       FOCK                 IFOCK          AO          [  1]    ***   
       FREQ_ALGORI          IVIALG         STANDARD    [  0]    ***   
       FROZEN_CORE          IFROCO         OFF         [  0]    ***   
       GAMMA_ABCD           IGABCD         STORE       [  0]    ***   
       GAMMA_ABCI           IGABCI         STORE       [  0]    ***   
       GENBAS_1             IGNBS1              0               ***   
       GENBAS_2             IGNBS2              0               ***   
       GENBAS_3             IGNBS3              0               ***   
       GENBAS_4             IGNBS4              0               ***   
       GEO_CONV             ICONTL              5              H/bohr 
       GEO_MAXCYC           IOPTCY             50               ***   
       GEO_MAXSTEP          IMXSTP            300            millibohr
       GEO_METHOD           INR            SINGLE_POINT[  5]    ***   
       GIAO                 IGIAO          OFF         [  1]    ***   
       GIMIC                IGIMIC         OFF         [  0]    ***   
       GRID                 IGRID          OFF         [  0]    ***   
       GRID_ALGO            IGALGO         SERIAL      [  0]    ***   
       GUESS                IGUESS         MOREAD      [  0]    ***   
       HBAR                 IHBAR          ON          [  1]    ***   
       HESS_TYPE            IHESTP         SCF         [  0]    ***   
       HF2_FILE             IHF2Fl         USE         [  1]    ***   
       HFSTABILITY          ISTABL         OFF         [  0]    ***   
       INCORE               INCORE         OFF         [  0]    ***   
       INPUT_MRCC           IMRCC          ON          [  1]    ***   
       INTEGRALS            INTTYP         VMOL        [  1]    ***   
       JODA_PRINT           IJPRNT              0               ***   
       KEYWORD_OUT          IDMPKW         NO          [  0]    ***   
       LINDEP_TOL           ILINDP              8               ***   
       LINEQ_CONV           IZTACN          10D-  7           cycles  
       LINEQ_EXPOR          ILMAXD              5               ***   
       LINEQ_MAXCY          ILMAXC            100               ***   
       LINEQ_TYPE           ILTYPE         DIIS        [  1]    ***   
       LOCK_ORBOCC          ILOCOC         OFF         [  0]    ***   
       MEMORY_SIZE          IMEMSZ         *********           words  
       MEM_UNIT             IMEMU          GB          [  3]    ***   
       MRCC                 IMRCCC         OFF         [  0]    ***   
       MULTIPLICTY          IMULTP              1               ***   
       NACOUPLING           IVCOUP         OFF         [  0]    ***   
       NEGEVAL              IDIE           ABORT       [  0]    ***   
       NEWNORM              INEWNO         OFF         [  0]    ***   
       NON-HF               INONHF         OFF         [  0]    ***   
       NTOP_TAMP            ITOPT2             15               ***   
       NUC_MODEL            INUCMO         POINT       [  0]    ***   
       OCCUPATION           IOCCU   ESTIMATED BY SCF 
       OPEN-SHELL           IOPEN          SPIN-ORBITAL[  0]    ***   
       OPTVIB               IOPTVB         OFF         [  0]    ***   
       ORBITALS             IORBTP         STANDARD    [  0]    ***   
       PARALLEL             IPARAL         ON          [  1]    ***   
       PARA_INT             IPINTS         ON          [  1]    ***   
       PARA_PRINT           IPPRIN              0               ***   
       PERT_ORB             IPTORB         STANDARD    [  0]    ***   
       POINTS               IGRDFD              0               ***   
       PRINT                IPRNT               0               ***   
       PROPS                IPROPS         OFF         [  0]    ***   
       PROP_INTEGR          IINTYP         INTERNAL    [  0]    ***   
       PSI                  IPSI           OFF         [  0]    ***   
       QC_ALG               IQCALG         FLM         [  0]    ***   
       QC_LINALG            IQCLIN         TRIDIAG     [  2]    ***   
       QC_MAXCYC            IQCMAX          10D-100           cycles  
       QC_MAXSCFCY          IQCMSC          10D- 15           cycles  
       QC_RTRUST            IQCRTR          10D-  0           x 10-3  
       QC_SKIPSCF           IQCSKI         OFF         [  0]    ***   
       QC_START             IQCSTA          10D-  1             ***   
       QRHFGUESS            IQGUES         OFF         [  0]    ***   
       QUARTIC              IQUART         OFF         [  0]    ***   
       RAMAN_INT            IRAMIN         OFF         [  0]    ***   
       RAMAN_ORB            IRAMRE         UNRELAXED   [  0]    ***   
       RDO                  IRDOFM         OFF         [  0]    ***   
       REDUCE_REPR          REDREP         Ir          [  0]    ***   
       REFERENCE            IREFNC         RHF         [  0]    ***   
       RELATIVIST           IRELAT         OFF         [  0]    ***   
       RELAX_DENS           IRDENS         OFF         [  0]    ***   
       RESET_FLAGS          IRESET         OFF         [  0]    ***   
       RESTART_CC           ICCRES         OFF         [  0]    ***   
       ROT_EVEC             ROTVEC              0               ***   
       SAVE_INTS            ISVINT         OFF         [  0]    ***   
       SCALE_ON             ISTCRT              0               ***   
       SCF_CONV             ISCFCV          10D-  7             ***   
       SCF_DAMPING          IDAMP               0             x 10-3  
       SCF_EXPORDE          IRPPOR              6               ***   
       SCF_EXPSTAR          IRPPLS              8               ***   
       SCF_EXTRAPO          IRPP           ON          [  1]    ***   
       SCF_MAXCYC           ISCFCY            150              cycles 
       SCF_NOSTOP           ISCFST         OFF         [  0]    ***   
       SCF_PRINT            ISCFPR              0               ***   
       SCF_PROG             ISCFPR         SCF         [  0]    ***   
       SD_FIELD             IFINSD              0             x 10-6  
       SOPERT               IPERSO         OFF         [  0]    ***   
       SPHERICAL            IDFGHI         ON          [  1]    ***   
       SPINORBIT            ISOCAL         OFF         [  0]    ***   
       SPINROTATIO          ISRCON         OFF         [  0]    ***   
       SPIN_FLIP            ISPFLP         OFF         [  0]    ***   
       SPIN_ORBIT           ISPORB         OFF         [  0]    ***   
       SPIN_SCAL            ISCSMP         OFF         [  0]    ***   
       STEEPSCALE           ISTPSC              1000          x 10-3  
       SUBGROUP             ISUBGP         DEFAULT     [  0]    ***   
       SUBGRPAXIS           ISBXYZ         X           [  0]    ***   
       SYMMETRY             ISYM           ON          [  0]    ***   
       SYM_CHECK            ISYMCK         OVERRIDE    [  1]    ***   
       T3_EXTRAPOL          IT3EXT         OFF         [  0]    ***   
       T4_EXTRAPOL          IT4EXP         OFF         [  0]    ***   
       TAMP_SUM             IEVERY              5               ***   
       TESTSUITE            ITESTS         OFF         [  0]    ***   
       THERMOCH             ITHERM         OFF         [  0]    ***   
       TOL_CHOLESK          ITOLCH          10D-  4             ***   
       TRANGRAD             IRESRM         OFF         [  0]    ***   
       TRANS_INV            ITRAIN         USE         [  0]    ***   
       TREAT_PERT           ITREAT         SIMULTANEOUS[  0]    ***   
       TRIP_ALGORI          ITRALG         NORMAL      [  0]    ***   
       UIJ_THRESHO          IUIJTH              1               ***   
       UNITS                IUNITS         ANGSTROM    [  0]    ***   
       UNOS                 IUNOS          OFF         [  0]    ***   
       UPDATE_HESS          IHUPDT         ON          [  1]    ***   
       VIBPHASE             ISETPH         STANDARD    [  0]    ***   
       VIBRATION            IVIB           NO          [  0]    ***   
       VIB_ALGORIT          IGEALG         STANDARD    [  0]    ***   
       VNATORB              IVNORB         OFF         [  0]    ***   
       VTRAN                IVTRAN         FULL/PARTIAL[  0]    ***   
       XFIELD               IXEFLD              0             x 10-6  
       XFORM_TOL            IXFTOL          10D- 11             ***   
       YFIELD               IYEFLD              0             x 10-6  
       ZFIELD               IZEFLD              0             x 10-6  
       ZSCALE_EXP           IZEXPS         OFF         [  0]    ***   
    -------------------------------------------------------------------
  @GETXYZ-I,     7 atoms read from ZMAT.
   Rotational constants (in cm-1): 
          0.8536890782             0.9761436041             3.3784845388
   Rotational constants (in MHz): 
      25592.9582983935         29264.0531420096        101284.4326087176
********************************************************************************
   The full molecular point group is C2v .
   The largest Abelian subgroup of the full molecular point group is C2v .
   The computational point group is C2v .
********************************************************************************


 ----------------------------------------------------------------
         Coordinates used in calculation (QCOMP) 
 ----------------------------------------------------------------
 Z-matrix   Atomic            Coordinates (in bohr)
  Symbol    Number           X              Y              Z
 ----------------------------------------------------------------
     C         6        -1.25572327     0.00000000    -0.07452773
     C         6         1.25572327     0.00000000    -0.07452773
     H         1        -2.19034422     1.81857454    -0.07452773
     H         1         2.19034422     1.81857454    -0.07452773
     H         1        -2.19034422    -1.81857454    -0.07452773
     H         1         2.19034422    -1.81857454    -0.07452773
     H         1         0.00000000     0.00000000     2.07288877
 ----------------------------------------------------------------
 
   Interatomic distance matrix (Angstroms) 
 
                 C             C             H             H             H    
                [ 1]        [ 2]        [ 3]        [ 4]        [ 5]
  C    [ 1]     0.00000
  C    [ 2]     1.32900     0.00000
  H    [ 3]     1.08200     2.06193     0.00000
  H    [ 4]     2.06193     1.08200     2.31816     0.00000
  H    [ 5]     1.08200     2.06193     1.92470     3.01303     0.00000
  H    [ 6]     2.06193     1.08200     3.01303     1.92470     2.31816
  H    [ 7]     1.31639     1.31639     1.88704     1.88704     1.88704
 
                 H             H    
                [ 6]        [ 7]
  H    [ 6]     0.00000
  H    [ 7]     1.88704     0.00000
 rotcon2
   Rotational constants (in cm-1): 
          3.3784845388             0.9761436041             0.8536890782
   Rotational constants (in MHz): 
     101284.4326087176         29264.0531420096         25592.9582983935
  ECPDATA file not present.   Using default ECPDATA. 
  There are   57 basis functions.
 @GEOPT-W, Archive file not created for single-point calculation.
 @CHECKOUT-I, Total execution time (CPU/WALL):        0.12/       0.13 seconds.
--executable xjoda finished with status     0 in        0.15 seconds (walltime).
 --invoking executable--
/home/tsommerfeld/zscale/bin/xvmol
 SERIAL VERSION OF MOLECULE STARTED
********************************************************************************
                    INPUT FROM MOL FILE
********************************************************************************
INTGRL        1    0    1    0    0    0    0    0    0                         
         *** CFOUR Program System (Release V0.1) ***                            
h_ethylene                                                                      
    3    2 X  Y       0.10E-08              0    0                              
   9999.00      3.00                                                            
          6.00000000    1    3    1    1    1                                   
C #1  -1.255723272983657   0.000000000000000  -0.074527731017872                
    9    3                                                                      
   6665.00000000000       6.920000000000000E-004 -1.460000000000000E-004        
  0.000000000000000E+000                                                        
   1000.00000000000       5.329000000000000E-003 -1.154000000000000E-003        
  0.000000000000000E+000                                                        
   228.000000000000       2.707700000000000E-002 -5.725000000000000E-003        
  0.000000000000000E+000                                                        
   64.7100000000000       0.101718000000000      -2.331200000000000E-002        
  0.000000000000000E+000                                                        
   21.0600000000000       0.274740000000000      -6.395500000000000E-002        
  0.000000000000000E+000                                                        
   7.49500000000000       0.448564000000000      -0.149981000000000             
  0.000000000000000E+000                                                        
   2.79700000000000       0.285074000000000      -0.127262000000000             
  0.000000000000000E+000                                                        
  0.521500000000000       1.520400000000000E-002  0.544529000000000             
  0.000000000000000E+000                                                        
  0.159600000000000      -3.191000000000000E-003  0.580496000000000             
   1.00000000000000                                                             
    4    2                                                                      
   9.43900000000000       3.810900000000000E-002  0.000000000000000E+000        
   2.00200000000000       0.209480000000000       0.000000000000000E+000        
  0.545600000000000       0.508557000000000       0.000000000000000E+000        
  0.151700000000000       0.468842000000000        1.00000000000000             
    1    1                                                                      
  0.550000000000000        1.00000000000000                                     
          1.00000000    1    2    1    1                                        
H #2  -2.190344215575466   1.818574537711477  -0.074527731017872                
    4    2                                                                      
   13.0100000000000       1.968500000000000E-002  0.000000000000000E+000        
   1.96200000000000       0.137977000000000       0.000000000000000E+000        
  0.444600000000000       0.478148000000000       0.000000000000000E+000        
  0.122000000000000       0.501240000000000        1.00000000000000             
    1    1                                                                      
  0.727000000000000        1.00000000000000                                     
          1.00000000    1    2    1    1                                        
H #3   0.000000000000000   0.000000000000000   2.072888769740828                
    5    3                                                                      
   13.0100000000000       1.968500000000000E-002  0.000000000000000E+000        
  0.000000000000000E+000                                                        
   1.96200000000000       0.137977000000000       0.000000000000000E+000        
  0.000000000000000E+000                                                        
  0.444600000000000       0.478148000000000       0.000000000000000E+000        
  0.000000000000000E+000                                                        
  0.122000000000000       0.501240000000000        1.00000000000000             
  0.000000000000000E+000                                                        
  2.974000000000000E-002  0.000000000000000E+000  0.000000000000000E+000        
   1.00000000000000                                                             
    2    2                                                                      
  0.727000000000000        1.00000000000000       0.000000000000000E+000        
  0.141000000000000       0.000000000000000E+000   1.00000000000000             
FINISH                                                                          
 
********************************************************************************
 ONE- AND TWO-ELECTRON INTEGRALS OVER SYMMETRY-ADAPTED AOS ARE CALCULATED.

  SPHERICAL HARMONICS ARE USED.
  
  INTEGRALS LESS THAN  0.10E-13 ARE NEGLECTED.

  NUCLEAR REPULSION ENERGY :   39.5348201808 A.U.
  @MOLECU-I, ONE ELECTRON INTEGRALS (CPU/WALL):        0.01/       0.01 SECONDS.
  @TWOEL-I,      29572 INTEGRALS OF SYMMETRY TYPE  I I I I
  @TWOEL-I,     102291 INTEGRALS OF SYMMETRY TYPE  I J I J
  @TWOEL-I,      58089 INTEGRALS OF SYMMETRY TYPE  I I J J
  @TWOEL-I,      75480 INTEGRALS OF SYMMETRY TYPE  I J K L
  @TWOEL-I, TOTAL NUMBER OF 2-E INTEGRALS     265432.
  @MOLECU-I, TWO ELECTRON INTEGRALS (CPU/WALL):        0.22/       0.23 SECONDS.
 @CHECKOUT-I, Total execution time (CPU/WALL):        0.24/       0.25 seconds.

Running with 8 threads/proc

--executable xvmol finished with status     0 in        0.27 seconds (walltime).
 --invoking executable--
/home/tsommerfeld/zscale/bin/xvmol2ja
 @GETMEM-I,  Allocated   85830 MB of main memory.
 @CHECKOUT-I, Total execution time (CPU/WALL):        0.02/       0.01 seconds.
--executable xvmol2ja finished with status     0 in        0.03 seconds (walltime).
 --invoking executable--
/home/tsommerfeld/zscale/bin/xvscf
  There are   57 functions in the AO basis.

  There are 4 irreducible representations.

       Irrep        # of functions
         1                 20
         2                 17
         3                 11
         4                  9


  Parameters for SCF calculation: 
        SCF reference function:  RHF  
  Maximum number of iterations:  150
     Full symmetry point group: C2v 
     Computational point group: C2v 
        Initial density matrix: MOREAD                 
     SCF convergence tolerance: 10**(- 7)
  DIIS convergence acceleration:  ON
          Latest start for DIIS:   8
                     DIIS order:   6

  Memory information:     156410 words required.
  Fock matrices are constructed from AO integral file.
 @GETMEM-I,  Allocated       1 MB of main memory.
  Initialization and symmetry analysis required      0.002 seconds.

  @INITGES-I, Occupancies from core Hamiltonian:

          Alpha population by irrep:   3    4    1    1
           Beta population by irrep:   3    4    1    1


 total no. of electrons in initial guess :  0.000000000000000E+000
  --------------------------------------------------------------------
  Iteration         Total Energy            Largest Density Difference
  --------------------------------------------------------------------
       0            39.534820180752547              0.0000000000D+00
   current occupation vector 
     3  4  1  1
     3  4  1  1
       1           -61.612500345775359              0.9073155050D+01
   current occupation vector 
     3  4  1  1
     3  4  1  1
       2           -65.013232980215591              0.8929934892D+01
   current occupation vector 
     4  3  1  1
     4  3  1  1
       3           -71.805387986708368              0.7817379203D+01
   current occupation vector 
     4  3  1  1
     4  3  1  1
       4           -70.935497787359182              0.6696735079D+01
   current occupation vector 
     4  3  1  1
     4  3  1  1
       5           -73.947748941028507              0.6696669680D+01
   current occupation vector 
     4  3  1  1
     4  3  1  1
       6           -72.813837493593780              0.8005806456D+01
   current occupation vector 
     4  3  1  1
     4  3  1  1
       7           -74.822504893778657              0.8214800427D+01
   current occupation vector 
     4  3  1  1
     4  3  1  1
       8           -73.542073061564338              0.8200607273D+01
   current occupation vector 
     4  3  1  1
     4  3  1  1
       9           -78.179160552993849              0.8516809085D+01
   current occupation vector 
     4  3  1  1
     4  3  1  1
      10           -78.316896292582186              0.3308664652D+00
   current occupation vector 
     4  3  1  1
     4  3  1  1
      11           -78.319676257239109              0.1002101673D+00
   current occupation vector 
     4  3  1  1
     4  3  1  1
      12           -78.320247202184859              0.5187343277D-01
   current occupation vector 
     4  3  1  1
     4  3  1  1
      13           -78.320543730088517              0.4854205431D-01
   current occupation vector 
     4  3  1  1
     4  3  1  1
      14           -78.320602080707602              0.2296708404D-01
   current occupation vector 
     4  3  1  1
     4  3  1  1
      15           -78.320605054388537              0.3523295902D-02
   current occupation vector 
     4  3  1  1
     4  3  1  1
      16           -78.320605110585589              0.2971987084D-03
   current occupation vector 
     4  3  1  1
     4  3  1  1
      17           -78.320605112229458              0.6230238814D-04
   current occupation vector 
     4  3  1  1
     4  3  1  1
      18           -78.320605112280603              0.1181243191D-04
   current occupation vector 
     4  3  1  1
     4  3  1  1
      19           -78.320605112281811              0.1906605329D-05
   current occupation vector 
     4  3  1  1
     4  3  1  1
      20           -78.320605112281655              0.4769241732D-06
   current occupation vector 
     4  3  1  1
     4  3  1  1
      21           -78.320605112281456              0.1117291497D-06
   current occupation vector 
     4  3  1  1
     4  3  1  1

  SCF has converged.

 Density matrix saved to file den.dat
 total electron number:   18.0000000000000     
     E(SCF)=       -78.320605112281470              0.4259730658D-07


  Final occupancies:

     Alpha population by irrep:   4    3    1    1
      Beta population by irrep:   4    3    1    1


  Eigenvector printing suppressed.

 @PUTMOS-I, Writing converged MOs to NEWMOS. 
 @PUTMOS-I, Symmetry   1 Full Blocks  5 Partial Blocksize   0
 @PUTMOS-I, Symmetry   2 Full Blocks  4 Partial Blocksize   1
 @PUTMOS-I, Symmetry   3 Full Blocks  2 Partial Blocksize   3
 @PUTMOS-I, Symmetry   4 Full Blocks  2 Partial Blocksize   1
 @PUTFOCK-I, Writing converged Fock matrix to NEWFOCK. 
 @PUTFOCK-I, Symmetry   1 Full Blocks  5 Partial Blocksize   0
 @PUTFOCK-I, Symmetry   2 Full Blocks  4 Partial Blocksize   1
 @PUTFOCK-I, Symmetry   3 Full Blocks  2 Partial Blocksize   3
 @PUTFOCK-I, Symmetry   4 Full Blocks  2 Partial Blocksize   1


 
  ORBITAL EIGENVALUES (ALPHA)  (1H = 27.2113834 eV)

       MO #        E(hartree)               E(eV)           FULLSYM    COMPSYM
       ----   --------------------   --------------------   -------   ---------
    1     1         -10.9128995523        -296.9550937225      A1        A1 (1)
    2    21         -10.9115521886        -296.9184300940      B1        B1 (2)
    3     2          -0.7989020498         -21.7392299769      A1        A1 (1)
    4    22          -0.4983618078         -13.5611142228      B1        B1 (2)
    5    38          -0.3768868263         -10.2556119285      B2        B2 (3)
    6     3          -0.3061115388          -8.3297184455      A1        A1 (1)
    7     4          -0.2389232944          -6.5014333660      A1        A1 (1)
    8    49          -0.2307820634          -6.2798992085      A2        A2 (4)
    9    23           0.1197878296           3.2595925574      B1        B1 (2)
  +++++++++++++++++++++++++++++++++++++++++++++++++++++++++++++++++++++++++++++
   10     5           0.2171483261           5.9089063555      A1        A1 (1)
   11    39           0.4372545913          11.8983023275      B2        B2 (3)
   12     6           0.4491743422          12.2226552397      A1        A1 (1)
   13    24           0.4587443599          12.4830686596      B1        B1 (2)
   14     7           0.4825158661          13.1299242286      A1        A1 (1)
   15    50           0.5082742675          13.8308459647      A2        A2 (4)
   16    40           0.5718947845          15.5620482452      B2        B2 (3)
   17    25           0.6532108409          17.7747706327      B1        B1 (2)
   18     8           0.6990602099          19.0223953913      A1        A1 (1)
   19    26           0.7106672023          19.3382377125      B1        B1 (2)
   20     9           0.8009884454          21.7960036866      A1        A1 (1)
   21    41           0.9400839655          25.5809852133      B2        B2 (3)
   22    10           0.9695427079          26.3825983468      A1        A1 (1)
   23    27           1.0069548910          27.4006356052      B1        B1 (2)
   24    11           1.0596212424          28.8337598864      A1        A1 (1)
   25    42           1.1197481944          30.4698974301      B2        B2 (3)
   26    28           1.1494471009          31.2780457593      B1        B1 (2)
   27    12           1.1734302187          31.9306595740      A1        A1 (1)
   28    51           1.2074660458          32.8568215144      A2        A2 (4)
   29    29           1.2682078487          34.5096900011      B1        B1 (2)
   30    13           1.4914371436          40.5840679316      A1        A1 (1)
   31    43           1.5233691406          41.4529817452      B2        B2 (3)
   32    52           1.5509763010          42.2042107714      A2        A2 (4)
   33    53           1.6004215928          43.5496855644      A2        A2 (4)
   34    30           1.6945616762          46.1113674662      B1        B1 (2)
   35    14           1.7788866439          48.4059664911      A1        A1 (1)
   36    54           1.8816834667          51.2032102491      A2        A2 (4)
   37    44           1.9195111553          52.2325539885      B2        B2 (3)
   38    31           2.0290500301          55.2132583072      B1        B1 (2)
   39    45           2.0576416745          55.9912765058      B2        B2 (3)
   40    15           2.0664969941          56.2322420018      A1        A1 (1)
   41    32           2.1929622973          59.6735378522      B1        B1 (2)
   42    16           2.2567177168          61.4084110162      A1        A1 (1)
   43    46           2.2667432781          61.6812204087      B2        B2 (3)
   44    17           2.3087754775          62.8249747033      A1        A1 (1)
   45    33           2.4086288945          65.5421243168      B1        B1 (2)
   46    34           2.5081038527          68.2489755419      B1        B1 (2)
   47    47           2.6707787067          72.6755833643      B2        B2 (3)
   48    18           2.6725961751          72.7250391948      A1        A1 (1)
   49    55           2.6846100269          73.0519527212      A2        A2 (4)
   50    35           2.7005320099          73.4852119058      B1        B1 (2)
   51    56           2.7650387083          75.2405284085      A2        A2 (4)
   52    19           2.8217011260          76.7823911790      A1        A1 (1)
   53    36           2.8904717133          78.6537339987      B1        B1 (2)
   54    48           3.0829835044          83.8922461546      B2        B2 (3)
   55    20           3.0871121370          84.0045919581      A1        A1 (1)
   56    37           3.5762428648          97.3145157261      B1        B1 (2)
   57    57           3.6220010555          98.5596593977      A2        A2 (4)


  VSCF finished.

 @CHECKOUT-I, Total execution time (CPU/WALL):        0.25/       0.11 seconds.
--executable xvscf finished with status     0 in        0.12 seconds (walltime).
 --invoking executable--
/home/tsommerfeld/zscale/bin/xvtran
 @GETMEM-I,  Allocated   85830 MB of main memory.
  Full RHF integral transformation
  Transformation of IIII integrals :
  1 pass through the AO integral file was required.
       29572 AO integrals were read.
       37182 MO integrals were written to HF2.
  Transformation of IIJJ integrals :
  1 pass through the AO integral file was required.
       58089 AO integrals were read.
       75393 MO integrals were written to HF2.
  Transformation of IJIJ integrals :
  1 pass through the AO integral file was required.
      102291 AO integrals were read.
      132879 MO integrals were written to HF2.
  Transformation of IJKL integrals :
  1 pass through the AO integral file was required.
       75480 AO integrals were read.
      100980 MO integrals were written to HF2.
  Summary of active molecular orbitals: 
------------------------------------------------------------------------
 
  Index      Eigenvalue    Symmetry    Index      Eigenvalue    Symmetry
------------------------------------------------------------------------
     1       -10.9128996        1        30         1.1494471        2
     2        -0.7989020        1        31         1.2682078        2
     3        -0.3061115        1        32         1.6945617        2
     4        -0.2389233        1        33         2.0290500        2
     5       -10.9115522        2        34         2.1929623        2
     6        -0.4983618        2        35         2.4086289        2
     7         0.1197878        2        36         2.5081039        2
     8        -0.3768868        3        37         2.7005320        2
     9        -0.2307821        4        38         2.8904717        2
    10         0.2171483        1        39         3.5762429        2
    11         0.4491743        1        40         0.4372546        3
    12         0.4825159        1        41         0.5718948        3
    13         0.6990602        1        42         0.9400840        3
    14         0.8009884        1        43         1.1197482        3
    15         0.9695427        1        44         1.5233691        3
    16         1.0596212        1        45         1.9195112        3
    17         1.1734302        1        46         2.0576417        3
    18         1.4914371        1        47         2.2667433        3
    19         1.7788866        1        48         2.6707787        3
    20         2.0664970        1        49         3.0829835        3
    21         2.2567177        1        50         0.5082743        4
    22         2.3087755        1        51         1.2074660        4
    23         2.6725962        1        52         1.5509763        4
    24         2.8217011        1        53         1.6004216        4
    25         3.0871121        1        54         1.8816835        4
    26         0.4587444        2        55         2.6846100        4
    27         0.6532108        2        56         2.7650387        4
    28         0.7106672        2        57         3.6220011        4
    29         1.0069549        2
------------------------------------------------------------------------
  -10.9128995522684      -0.798902049825990      -0.306111538803410     
 -0.238923294357896       -10.9115521886339      -0.498361807757596     
  0.119787829579963      -0.376886826288575      -0.230782063380277     
  0.217148326075422       0.449174342223491       0.482515866082698     
  0.699060209899845       0.800988445394475       0.969542707879834     
   1.05962124242589        1.17343021869330        1.49143714360231     
   1.77888664385674        2.06649699411352        2.25671771675454     
   2.30877547751766        2.67259617512854        2.82170112597202     
   3.08711213697954       0.458744359892875       0.653210840897676     
  0.710667202334725        1.00695489098900        1.14944710085105     
   1.26820784867091        1.69456167620719        2.02905003011282     
   2.19296229725115        2.40862889451063        2.50810385266444     
   2.70053200991764        2.89047171334601        3.57624286482000     
  0.437254591307880       0.571894784491093       0.940083965496212     
   1.11974819443085        1.52336914062054        1.91951115534008     
   2.05764167454199        2.26674327806113        2.67077870668878     
   3.08298350441680       0.508274267479594        1.20746604578819     
   1.55097630101944        1.60042159284134        1.88168346667376     
   2.68461002688943        2.76503870834171        3.62200105554608     
 @CHECKOUT-I, Total execution time (CPU/WALL):        0.54/       0.09 seconds.
--executable xvtran finished with status     0 in        0.11 seconds (walltime).
 --invoking executable--
/home/tsommerfeld/zscale/bin/xintprc
 @GETMEM-I,  Allocated   85830 MB of main memory.
  Processing integrals for CCSD calculation.
  @GMOIAA-I, Processing MO integrals for spin case AA.
  @GMOIAA-I, Generation of integral list completed.
                      TYPE                NUMBER
                      ----               --------
                      PPPP                174812
                      PPPH                128480
                      PPHH                 23996
                      PHPH                 13708
                      PHHH                  5120
                      HHHH                   318

                     TOTAL                346434

  @FORMT2-I, Second-order MP correlation energies:
            ------------------------------------------------
            E(SCF)                  =    -78.320605112281 a.u.
            E2(AA)                  =     -0.040079007362 a.u.
            E2(AB)                  =     -0.255638541546 a.u.
            E2(TOT)                 =     -0.335796556269 a.u.
            Total MP2 energy        =    -78.656401668551 a.u.
            ------------------------------------------------
   Largest T2 amplitudes for spin case AB:
       _       _                 _       _                 _       _
   i   j   a   b             i   j   a   b             i   j   a   b
-----------------------------------------------------------------------------
[  7   7  29  29]-0.03372 [  7   7  27  27]-0.02444 [  7   7  11  11]-0.02425
[  9   9  42  42]-0.01982 [  7   7  12  12]-0.01945 [  3   3  11  11]-0.01811
[  7   7  16  16]-0.01782 [  7   7  28  28]-0.01762 [  4   4  12  12]-0.01691
[  8   8  40  40]-0.01666 [  4   4  31  31]-0.01654 [  8   8  42  42]-0.01640
[  9   9  51  51]-0.01631 [  9   9  50  50]-0.01556 [  8   7  40  29]-0.01481
-----------------------------------------------------------------------------
   Norm of T2AB vector (    47560 symmetry allowed elements):  0.3066967241.
-----------------------------------------------------------------------------
 @CHECKOUT-I, Total execution time (CPU/WALL):        0.41/       0.10 seconds.
--executable xintprc finished with status     0 in        0.11 seconds (walltime).
  calling xvcc 
 --invoking executable--
/home/tsommerfeld/zscale/bin/xvcc
 @GETMEM-I,  Allocated   85830 MB of main memory.
   CCSD energy will be calculated.
   The total correlation energy is -0.335796556269 a.u.
   The total correlation energy is -0.352386382568 a.u.
  Convergence information after     1 iterations: 
  Largest element of residual vector :  0.12331144E-01.
  Largest element of DIIS residual   :  0.12331144E-01.
   The total correlation energy is -0.360174558045 a.u.
  Convergence information after     2 iterations: 
  Largest element of residual vector : -0.54984477E-02.
  Largest element of DIIS residual   : -0.61096577E-02.
   The total correlation energy is -0.362300643346 a.u.
  Convergence information after     3 iterations: 
  Largest element of residual vector :  0.35717369E-02.
  Largest element of DIIS residual   :  0.31357759E-02.
   The total correlation energy is -0.363239707812 a.u.
  Convergence information after     4 iterations: 
  Largest element of residual vector : -0.26638728E-02.
  Largest element of DIIS residual   : -0.23711015E-02.
   The total correlation energy is -0.363408420725 a.u.
  Convergence information after     5 iterations: 
  Largest element of residual vector :  0.12994701E-02.
  Largest element of DIIS residual   :  0.82412513E-03.
   The total correlation energy is -0.363421555964 a.u.
  Convergence information after     6 iterations: 
  Largest element of residual vector : -0.75223416E-03.
  Largest element of DIIS residual   : -0.41345288E-03.
   The total correlation energy is -0.363416649063 a.u.
  Convergence information after     7 iterations: 
  Largest element of residual vector :  0.21775658E-03.
  Largest element of DIIS residual   :  0.14686893E-03.
   The total correlation energy is -0.363407007253 a.u.
  Convergence information after     8 iterations: 
  Largest element of residual vector :  0.11144916E-03.
  Largest element of DIIS residual   :  0.82777724E-04.
   The total correlation energy is -0.363411951441 a.u.
  Convergence information after     9 iterations: 
  Largest element of residual vector :  0.52587448E-04.
  Largest element of DIIS residual   :  0.24890195E-04.
   The total correlation energy is -0.363414191010 a.u.
  Convergence information after    10 iterations: 
  Largest element of residual vector :  0.18023395E-04.
  Largest element of DIIS residual   :  0.13522441E-04.
   The total correlation energy is -0.363415801126 a.u.
  Convergence information after    11 iterations: 
  Largest element of residual vector : -0.14339923E-04.
  Largest element of DIIS residual   : -0.10835765E-04.
   The total correlation energy is -0.363416207420 a.u.
  Convergence information after    12 iterations: 
  Largest element of residual vector :  0.54166059E-05.
  Largest element of DIIS residual   :  0.54978422E-05.
   The total correlation energy is -0.363416352772 a.u.
  Convergence information after    13 iterations: 
  Largest element of residual vector : -0.54606916E-05.
  Largest element of DIIS residual   : -0.21804326E-05.
   The total correlation energy is -0.363416424965 a.u.
  Convergence information after    14 iterations: 
  Largest element of residual vector : -0.17187884E-05.
  Largest element of DIIS residual   :  0.14611351E-05.
   The total correlation energy is -0.363416443042 a.u.
  Convergence information after    15 iterations: 
  Largest element of residual vector : -0.12622333E-05.
  Largest element of DIIS residual   : -0.40481564E-06.
   The total correlation energy is -0.363416482406 a.u.
  Convergence information after    16 iterations: 
  Largest element of residual vector : -0.27698905E-06.
  Largest element of DIIS residual   :  0.28422877E-06.
   The total correlation energy is -0.363416490843 a.u.
  Convergence information after    17 iterations: 
  Largest element of residual vector :  0.18611168E-06.
  Largest element of DIIS residual   :  0.14114879E-06.
   The total correlation energy is -0.363416493972 a.u.
  Convergence information after    18 iterations: 
  Largest element of residual vector : -0.10791177E-06.
  Largest element of DIIS residual   : -0.77072963E-07.
   The total correlation energy is -0.363416495709 a.u.
  Convergence information after    19 iterations: 
  Largest element of residual vector : -0.61881797E-07.
  Largest element of DIIS residual   : -0.48999171E-07.
  Amplitude equations converged in    19iterations.
   The total correlation energy is -0.363416495809 a.u.
   The CC iterations have converged.

   Largest T1 amplitudes for spin case AA:
   i       a                 i       a                 i       a    
-----------------------------------------------------------------------------
[  4      10    ] 0.02160 [  7      29    ] 0.01483 [  4      12    ]-0.01425
[  7      30    ]-0.01109 [  4      11    ] 0.01002 [  3      12    ] 0.00704
[  8      42    ] 0.00665 [  7      32    ] 0.00646 [  3      11    ]-0.00593
[  8      41    ] 0.00574 [  7      27    ]-0.00557 [  3      17    ]-0.00514
[  4      14    ]-0.00508 [  6      28    ]-0.00495 [  8      43    ] 0.00489
-----------------------------------------------------------------------------
   Norm of T1AA vector (      124 symmetry allowed elements):  0.0426091526.
-----------------------------------------------------------------------------
   Largest T2 amplitudes for spin case AB:
       _       _                 _       _                 _       _
   i   j   a   b             i   j   a   b             i   j   a   b
-----------------------------------------------------------------------------
[  7   7  11  11]-0.04404 [  7   7  12  12]-0.03567 [  7   7  29  29]-0.03495
[  7   7  12  10] 0.03148 [  7   7  10  12] 0.03148 [  7   7  10  10]-0.02952
[  9   9  42  42]-0.02442 [  7   7  27  27]-0.02408 [  7   7  12  11] 0.02130
[  7   7  11  12] 0.02130 [  4   4  12  12]-0.02116 [  3   3  11  11]-0.02053
[  7   7  16  11]-0.01917 [  7   7  11  16]-0.01917 [  7   7  16  16]-0.01896
-----------------------------------------------------------------------------
   Norm of T2AB vector (    47560 symmetry allowed elements):  0.3627210849.
-----------------------------------------------------------------------------
       Summary of iterative solution of CC equations 
      -----------------------------------------------------------
                       Correlation           Total
       Iteration         Energy              Energy
      -----------------------------------------------------------
            0        -0.335796556269     -78.656401668551  DIIS 
            1        -0.352386382568     -78.672991494849  DIIS 
            2        -0.360174558045     -78.680779670326  DIIS 
            3        -0.362300643346     -78.682905755627  DIIS 
            4        -0.363239707812     -78.683844820093  DIIS 
            5        -0.363408420725     -78.684013533007  DIIS 
            6        -0.363421555964     -78.684026668246  DIIS 
            7        -0.363416649063     -78.684021761345  DIIS 
            8        -0.363407007253     -78.684012119535  DIIS 
            9        -0.363411951441     -78.684017063723  DIIS 
           10        -0.363414191010     -78.684019303291  DIIS 
           11        -0.363415801126     -78.684020913407  DIIS 
           12        -0.363416207420     -78.684021319701  DIIS 
           13        -0.363416352772     -78.684021465054  DIIS 
           14        -0.363416424965     -78.684021537246  DIIS 
           15        -0.363416443042     -78.684021555324  DIIS 
           16        -0.363416482406     -78.684021594688  DIIS 
           17        -0.363416490843     -78.684021603124  DIIS 
           18        -0.363416493972     -78.684021606254  DIIS 
           19        -0.363416495809     -78.684021608091  DIIS 
      -----------------------------------------------------------
      A miracle has come to pass. The CC iterations have converged.
      The reference energy is       -78.32060511228147 a.u.
      The correlation energy is      -0.36341649580941 a.u.
      The total energy is           -78.68402160809089 a.u.
 @CHECKOUT-I, Total execution time (CPU/WALL):        6.57/       0.83 seconds.
--executable xvcc finished with status     0 in        0.85 seconds (walltime).
 --invoking executable--
/home/tsommerfeld/zscale/bin/xlambda
 @GETMEM-I,  Allocated   85830 MB of main memory.
 Hbar is calculated for a CCSD wave function.
 Calculation of Hbar completed.
 @CHECKOUT-I, Total execution time (CPU/WALL):        0.82/       0.11 seconds.
--executable xlambda finished with status     0 in        0.13 seconds (walltime).
 --invoking executable--
/home/tsommerfeld/zscale/bin/xvee
 @GETMEM-I,  Allocated   85830 MB of main memory.
  cc2 and ccprog  F                     0
  EOMEE-CCSD excitation energies will be evaluated.
  @SETMET-I, VPROP property integrals are used.
  @SETMET-I, A total of   3 target states will be studied.
  Summary of active alpha molecular orbitals:
------------------------------------------------------------------------------
Orbital      Sym   Eigenvalue  <xx>     <yy>     <zz>     <xy>     <xz>     <yz>
        SCF
  #  position
------------------------------------------------------------------------------
   1      1    1     -10.9129   0.000    0.000    0.000    0.000    0.000    0.000
   2      3    1      -0.7989   0.000    0.000    0.000    0.000    0.000    0.000
   3      6    1      -0.3061   0.000    0.000    0.000    0.000    0.000    0.000
   4      7    1      -0.2389   0.000    0.000    0.000    0.000    0.000    0.000
   5      2    2     -10.9116   0.000    0.000    0.000    0.000    0.000    0.000
   6      4    2      -0.4984   0.000    0.000    0.000    0.000    0.000    0.000
   7      9    2       0.1198   0.000    0.000    0.000    0.000    0.000    0.000
   8      5    3      -0.3769   0.000    0.000    0.000    0.000    0.000    0.000
   9      8    4      -0.2308   0.000    0.000    0.000    0.000    0.000    0.000
  10     10    1       0.2171   0.000    0.000    0.000    0.000    0.000    0.000
  11     12    1       0.4492   0.000    0.000    0.000    0.000    0.000    0.000
  12     14    1       0.4825   0.000    0.000    0.000    0.000    0.000    0.000
  13     18    1       0.6991   0.000    0.000    0.000    0.000    0.000    0.000
  14     20    1       0.8010   0.000    0.000    0.000    0.000    0.000    0.000
  15     22    1       0.9695   0.000    0.000    0.000    0.000    0.000    0.000
  16     24    1       1.0596   0.000    0.000    0.000    0.000    0.000    0.000
  17     27    1       1.1734   0.000    0.000    0.000    0.000    0.000    0.000
  18     30    1       1.4914   0.000    0.000    0.000    0.000    0.000    0.000
  19     35    1       1.7789   0.000    0.000    0.000    0.000    0.000    0.000
  20     40    1       2.0665   0.000    0.000    0.000    0.000    0.000    0.000
  21     42    1       2.2567   0.000    0.000    0.000    0.000    0.000    0.000
  22     44    1       2.3088   0.000    0.000    0.000    0.000    0.000    0.000
  23     48    1       2.6726   0.000    0.000    0.000    0.000    0.000    0.000
  24     52    1       2.8217   0.000    0.000    0.000    0.000    0.000    0.000
  25     55    1       3.0871   0.000    0.000    0.000    0.000    0.000    0.000
  26     13    2       0.4587   0.000    0.000    0.000    0.000    0.000    0.000
  27     17    2       0.6532   0.000    0.000    0.000    0.000    0.000    0.000
  28     19    2       0.7107   0.000    0.000    0.000    0.000    0.000    0.000
  29     23    2       1.0070   0.000    0.000    0.000    0.000    0.000    0.000
  30     26    2       1.1494   0.000    0.000    0.000    0.000    0.000    0.000
  31     29    2       1.2682   0.000    0.000    0.000    0.000    0.000    0.000
  32     34    2       1.6946   0.000    0.000    0.000    0.000    0.000    0.000
  33     38    2       2.0291   0.000    0.000    0.000    0.000    0.000    0.000
  34     41    2       2.1930   0.000    0.000    0.000    0.000    0.000    0.000
  35     45    2       2.4086   0.000    0.000    0.000    0.000    0.000    0.000
  36     46    2       2.5081   0.000    0.000    0.000    0.000    0.000    0.000
  37     50    2       2.7005   0.000    0.000    0.000    0.000    0.000    0.000
  38     53    2       2.8905   0.000    0.000    0.000    0.000    0.000    0.000
  39     56    2       3.5762   0.000    0.000    0.000    0.000    0.000    0.000
  40     11    3       0.4373   0.000    0.000    0.000    0.000    0.000    0.000
  41     16    3       0.5719   0.000    0.000    0.000    0.000    0.000    0.000
  42     21    3       0.9401   0.000    0.000    0.000    0.000    0.000    0.000
  43     25    3       1.1197   0.000    0.000    0.000    0.000    0.000    0.000
  44     31    3       1.5234   0.000    0.000    0.000    0.000    0.000    0.000
  45     37    3       1.9195   0.000    0.000    0.000    0.000    0.000    0.000
  46     39    3       2.0576   0.000    0.000    0.000    0.000    0.000    0.000
  47     43    3       2.2667   0.000    0.000    0.000    0.000    0.000    0.000
  48     47    3       2.6708   0.000    0.000    0.000    0.000    0.000    0.000
  49     54    3       3.0830   0.000    0.000    0.000    0.000    0.000    0.000
  50     15    4       0.5083   0.000    0.000    0.000    0.000    0.000    0.000
  51     28    4       1.2075   0.000    0.000    0.000    0.000    0.000    0.000
  52     32    4       1.5510   0.000    0.000    0.000    0.000    0.000    0.000
  53     33    4       1.6004   0.000    0.000    0.000    0.000    0.000    0.000
  54     36    4       1.8817   0.000    0.000    0.000    0.000    0.000    0.000
  55     49    4       2.6846   0.000    0.000    0.000    0.000    0.000    0.000
  56     51    4       2.7650   0.000    0.000    0.000    0.000    0.000    0.000
  57     57    4       3.6220   0.000    0.000    0.000    0.000    0.000    0.000
------------------------------------------------------------------------------
  @DRVTDA-I, Roots obtained by Davidson method.
  calling tda davidson                       6                     2
  after tda davidson                      6                     6
                     3                     3
  kroot is                      3
__________________________________________________________________________
    Tamm-Dancoff (CIS) Excitation Energies and Transition Moments

                Excitation         Transition Dipole         Oscillator
 Root  Symmetry  Energy         x           y           z     Strength
__________________________________________________________________________
   1       2   -0.06424      0.0000      0.0000      0.0000  .00000000D+00
__________________________________________________________________________
 
__________________________________________________________________________
  TDA excitation ergy:            -0.064238943512 a.u.   -1.7480 eV
  Total TDA electronic energy:   -78.384844055793 a.u.
 
  Dominant contributions: 
  SCF eigenvalue ordering used in list below. 
--------------------------------------------------------------------------------
    I    j    A    b
--------------------------------------------------------------------------------
    9    0   10    0  -0.9849214705 AA  
    9    0   14    0   0.1651299684 AA  
    9    0   22    0   0.0224146945 AA  
    7    0   13    0  -0.0210966558 AA  
    6    0   13    0   0.0182986757 AA  
    9    0   18    0  -0.0114391004 AA  
    9    0   30    0  -0.0112251374 AA  
    4    0   10    0   0.0111149065 AA  
    6    0   29    0   0.0107106689 AA  
    4    0   12    0   0.0103949404 AA  
    9    0   20    0   0.0103257668 AA  
    9    0   12    0   0.0101702139 AA  
    8    0   11    0   0.0088322230 AA  
    5    0   15    0   0.0080843399 AA  
    6    0   19    0  -0.0077850794 AA  
--------------------------------------------------------------------------------
   2       2    0.08230      0.0000      0.0000      0.0000  .00000000D+00
__________________________________________________________________________
 
__________________________________________________________________________
  TDA excitation ergy:             0.082301934888 a.u.    2.2395 eV
  Total TDA electronic energy:   -78.238303177394 a.u.
 
  Dominant contributions: 
  SCF eigenvalue ordering used in list below. 
--------------------------------------------------------------------------------
    I    j    A    b
--------------------------------------------------------------------------------
    9    0   12    0  -0.9545106593 AA  
    9    0   14    0   0.2629242098 AA  
    9    0   24    0  -0.0633177543 AA  
    9    0   18    0   0.0494614577 AA  
    7    0   29    0   0.0416582757 AA  
    4    0   12    0   0.0390007257 AA  
    9    0   22    0  -0.0388545155 AA  
    9    0   10    0   0.0334705135 AA  
    9    0   27    0   0.0300505735 AA  
    7    0   19    0  -0.0291165832 AA  
    7    0   13    0   0.0272873045 AA  
    7    0   17    0  -0.0244137938 AA  
    5    0   15    0   0.0237369433 AA  
    8    0   11    0   0.0190696578 AA  
    8    0   16    0  -0.0163324893 AA  
--------------------------------------------------------------------------------
   3       2    0.11891      0.0000      0.0000      0.0000  .00000000D+00
__________________________________________________________________________
 
__________________________________________________________________________
  TDA excitation ergy:             0.118906390325 a.u.    3.2356 eV
  Total TDA electronic energy:   -78.201698721957 a.u.
 
  Dominant contributions: 
  SCF eigenvalue ordering used in list below. 
--------------------------------------------------------------------------------
    I    j    A    b
--------------------------------------------------------------------------------
    9    0   14    0  -0.9385882678 AA  
    9    0   12    0  -0.2699926884 AA  
    9    0   10    0  -0.1621320836 AA  
    9    0   20    0   0.0650439335 AA  
    9    0   18    0  -0.0610311663 AA  
    9    0   27    0   0.0504521611 AA  
    7    0   13    0   0.0471415286 AA  
    9    0   30    0   0.0409009860 AA  
    6    0   13    0  -0.0342337050 AA  
    6    0   19    0   0.0272677668 AA  
    9    0   24    0   0.0259836216 AA  
    4    0   12    0  -0.0193471167 AA  
    6    0   29    0  -0.0192734289 AA  
    8    0   21    0   0.0180639787 AA  
    5    0   15    0  -0.0152173730 AA  
--------------------------------------------------------------------------------
__________________________________________________________________________
  @DOEOMEE-I, Excitation energies computed by the EOMEE-CCSD/CCSD-LR method.
  @DOEOMEE-I, right-hand eigenvectors will be computed.
  Beginning symmetry block   2.   3 roots requested.
  @DOEOMEE-I, Matrix dimension for diagonalization:    47674
  Creating initial guess for root
________________________________________________________________________
            Subspace          Eigenvalue           
 Iteration  Dimension   (a.u.)         (eV)       Overlap      Residual
________________________________________________________________________
  @NEWGES-I, Using TDA initial guess.
  1   1  0.2051388157D-02  0.5582110963D-01  0.0000000000D+00  0.4871462321D+00
  2   2 -0.6398816620D-01 -0.1741206524D+01  0.9738882461D+00  0.9348534252D-01
  3   3 -0.6678479361D-01 -0.1817306624D+01  0.9977425996D+00  0.1828004314D-01
  4   4 -0.6697913562D-01 -0.1822594939D+01  0.9998203488D+00  0.8508571958D-02
  5   5 -0.6700953664D-01 -0.1823422193D+01  0.9999487105D+00  0.1775504158D-02
  6   6 -0.6701957306D-01 -0.1823695298D+01  0.9999970998D+00  0.7733767913D-03
  L-O-C-K-I-N-G O-N R-O-O-T 
  7   7 -0.6701953677D-01 -0.1823694310D+01  0.9999995288D+00  0.1793580680D-03
  8   8 -0.6701912964D-01 -0.1823683232D+01  0.9999999791D+00  0.1149308642D-03
  9   9 -0.6701915790D-01 -0.1823684001D+01  0.9999999915D+00  0.2647077865D-04
 10  10 -0.6701911105D-01 -0.1823682726D+01  0.9999999994D+00  0.1636844896D-04
 11  11 -0.6701910255D-01 -0.1823682495D+01  0.9999999998D+00  0.3012744318D-05
  Converged eigenvalue:  -6.701910255101973E-002  a.u.
   Total EOMEE-CCSD electronic energy      -78.751040710641902 a.u.
  Converged eigenvector 
  SCF eigenvalue ordering used in list below. 
--------------------------------------------------------------------------------
    I    j    A    b
--------------------------------------------------------------------------------
    9    0   10    0  -0.6788185387 AA  
    9    0   14    0   0.1134102292 AA  
    9    9   23   10  -0.0410063523 ABAB
    9    9   10   23  -0.0410063523 ABAB
    9    7   10   10   0.0400890113 ABAB
    7    9   10   10   0.0400890113 ABAB
    9    9   17   10   0.0374227389 ABAB
    9    9   10   17   0.0374227389 ABAB
    9    6   10   12  -0.0326801433 ABAB
    6    9   12   10  -0.0326801433 ABAB
    8    9   15   10  -0.0319453563 ABAB
    9    8   10   15  -0.0319453563 ABAB
    9    4   10   13  -0.0293764049 ABAB
    4    9   13   10  -0.0293764049 ABAB
    5    9   11   10  -0.0292736431 ABAB
--------------------------------------------------------------------------------
  Converged eigenvector, normalized to one 
  SCF eigenvalue ordering used in list below. 
--------------------------------------------------------------------------------
    I    j    A    b
--------------------------------------------------------------------------------
    9    0   10    0  -0.6788185387 AA  
    9    0   14    0   0.1134102292 AA  
    9    9   23   10  -0.0410063523 ABAB
    9    9   10   23  -0.0410063523 ABAB
    9    7   10   10   0.0400890113 ABAB
    7    9   10   10   0.0400890113 ABAB
    9    9   17   10   0.0374227389 ABAB
    9    9   10   17   0.0374227389 ABAB
    9    6   10   12  -0.0326801433 ABAB
    6    9   12   10  -0.0326801433 ABAB
    8    9   15   10  -0.0319453563 ABAB
    9    8   10   15  -0.0319453563 ABAB
    9    4   10   13  -0.0293764049 ABAB
    4    9   13   10  -0.0293764049 ABAB
    5    9   11   10  -0.0292736431 ABAB
--------------------------------------------------------------------------------

  Eigenvector is saved on CCRE_2_1  

  Adding new vector to expansion space.
  Guess for next eigenvalue   8.230193488758580E-002
 12  12  0.8781241347D-01  0.2389497250D+01  0.7409697650D+00  0.1089435793D+00
 13  13  0.7992008249D-01  0.2174736006D+01  0.9942809384D+00  0.3256660008D-01
 14  14  0.7906654144D-01  0.2151509973D+01  0.9988407188D+00  0.8127735485D-02
 15  15  0.7902843244D-01  0.2150472975D+01  0.9998961012D+00  0.3315522770D-02
  L-O-C-K-I-N-G O-N R-O-O-T 
 16  16  0.7903027692D-01  0.2150523166D+01  0.9999840710D+00  0.1038877048D-02
 17  17  0.7902697545D-01  0.2150433328D+01  0.9999988562D+00  0.3900911978D-03
 18  18  0.7902661358D-01  0.2150423481D+01  0.9999998566D+00  0.1487266607D-03
 19  19  0.7902676371D-01  0.2150427566D+01  0.9999999819D+00  0.5458027105D-04
 20  20  0.7902672968D-01  0.2150426640D+01  0.9999999976D+00  0.1733615617D-04
 21  21  0.7902672119D-01  0.2150426409D+01  0.9999999998D+00  0.5050555766D-05
  Converged eigenvalue:   7.902672118957621E-002  a.u.
   Total EOMEE-CCSD electronic energy      -78.604994886901309 a.u.
  Converged eigenvector 
  SCF eigenvalue ordering used in list below. 
--------------------------------------------------------------------------------
    I    j    A    b
--------------------------------------------------------------------------------
    9    0   12    0  -0.6567020721 AA  
    9    0   14    0   0.1780045151 AA  
    9    0   24    0  -0.0450181964 AA  
    9    6   12   12  -0.0412507158 ABAB
    6    9   12   12  -0.0412507158 ABAB
    9    7   14   12  -0.0387030454 ABAB
    7    9   12   14  -0.0387030454 ABAB
    9    7   12   14  -0.0308321501 ABAB
    7    9   14   12  -0.0308321501 ABAB
    9    9   13   12   0.0307562613 ABAB
    9    9   12   13   0.0307562613 ABAB
    9    7   14   14   0.0303220650 ABAB
    7    9   14   14   0.0303220650 ABAB
    9    0   22    0  -0.0287796189 AA  
    9    9   23   12  -0.0286866782 ABAB
--------------------------------------------------------------------------------
  Converged eigenvector, normalized to one 
  SCF eigenvalue ordering used in list below. 
--------------------------------------------------------------------------------
    I    j    A    b
--------------------------------------------------------------------------------
    9    0   12    0  -0.6567020721 AA  
    9    0   14    0   0.1780045151 AA  
    9    0   24    0  -0.0450181964 AA  
    9    6   12   12  -0.0412507158 ABAB
    6    9   12   12  -0.0412507158 ABAB
    9    7   14   12  -0.0387030454 ABAB
    7    9   12   14  -0.0387030454 ABAB
    9    7   12   14  -0.0308321501 ABAB
    7    9   14   12  -0.0308321501 ABAB
    9    9   13   12   0.0307562613 ABAB
    9    9   12   13   0.0307562613 ABAB
    9    7   14   14   0.0303220650 ABAB
    7    9   14   14   0.0303220650 ABAB
    9    0   22    0  -0.0287796189 AA  
    9    9   23   12  -0.0286866782 ABAB
--------------------------------------------------------------------------------

  Eigenvector is saved on CCRE_2_2  

  Adding new vector to expansion space.
  Guess for next eigenvalue   0.118906390324869     
 22  22  0.1156320423D+00  0.3146507837D+01  0.7186967336D+00  0.6530009191D-01
 23  23  0.1134032929D+00  0.3085860481D+01  0.9985091640D+00  0.1172369000D-01
 24  24  0.1131732849D+00  0.3079601647D+01  0.9999020767D+00  0.3539770487D-02
  L-O-C-K-I-N-G O-N R-O-O-T 
 25  25  0.1131715175D+00  0.3079553552D+01  0.9999922521D+00  0.9927138137D-03
 26  26  0.1131716218D+00  0.3079556391D+01  0.9999993389D+00  0.2762809731D-03
 27  27  0.1131713375D+00  0.3079548655D+01  0.9999999508D+00  0.8752064849D-04
 28  28  0.1131713115D+00  0.3079547948D+01  0.9999999954D+00  0.2482198174D-04
 29  29  0.1131713412D+00  0.3079548755D+01  0.9999999996D+00  0.6395862896D-05
  Converged eigenvalue:   0.113171341204693       a.u.
   Total EOMEE-CCSD electronic energy      -78.570850266886197 a.u.
  Converged eigenvector 
  SCF eigenvalue ordering used in list below. 
--------------------------------------------------------------------------------
    I    j    A    b
--------------------------------------------------------------------------------
    9    0   14    0  -0.6497047625 AA  
    9    0   12    0  -0.1761643917 AA  
    9    0   10    0  -0.1072336515 AA  
    9    7   14   14  -0.0439755568 ABAB
    7    9   14   14  -0.0439755568 ABAB
    9    0   27    0   0.0402663873 AA  
    9    0   20    0   0.0389436696 AA  
    9    0   18    0  -0.0333845928 AA  
    9    9   17   14   0.0314963879 ABAB
    9    9   14   17   0.0314963879 ABAB
    9    9   13   14  -0.0303456379 ABAB
    9    9   14   13  -0.0303456379 ABAB
    9    6   12   14  -0.0292216558 ABAB
    6    9   14   12  -0.0292216558 ABAB
    9    0   30    0   0.0290574233 AA  
--------------------------------------------------------------------------------
  Converged eigenvector, normalized to one 
  SCF eigenvalue ordering used in list below. 
--------------------------------------------------------------------------------
    I    j    A    b
--------------------------------------------------------------------------------
    9    0   14    0  -0.6497047625 AA  
    9    0   12    0  -0.1761643917 AA  
    9    0   10    0  -0.1072336515 AA  
    9    7   14   14  -0.0439755568 ABAB
    7    9   14   14  -0.0439755568 ABAB
    9    0   27    0   0.0402663873 AA  
    9    0   20    0   0.0389436696 AA  
    9    0   18    0  -0.0333845928 AA  
    9    9   17   14   0.0314963879 ABAB
    9    9   14   17   0.0314963879 ABAB
    9    9   13   14  -0.0303456379 ABAB
    9    9   14   13  -0.0303456379 ABAB
    9    6   12   14  -0.0292216558 ABAB
    6    9   14   12  -0.0292216558 ABAB
    9    0   30    0   0.0290574233 AA  
--------------------------------------------------------------------------------

  Eigenvector is saved on CCRE_2_3  

  Solution of   3 roots required   29 iterations.
 @CHECKOUT-I, Total execution time (CPU/WALL):       16.91/       2.12 seconds.
--executable xvee finished with status     0 in        2.14 seconds (walltime).
  The final electronic energy is       -78.570850266886197 a.u. 
  This computation required                            3.94 seconds (walltime).
