CFour on node01
 --invoking executable--
/home/tsommerfeld/zscale/bin/xjoda


   *************************************************************************
         <<<     CCCCCC     CCCCCC   |||     CCCCCC     CCCCCC   >>>
       <<<      CCC        CCC       |||    CCC        CCC         >>>
      <<<      CCC        CCC        |||   CCC        CCC            >>>
    <<<        CCC        CCC        |||   CCC        CCC              >>>
      <<<      CCC        CCC        |||   CCC        CCC            >>>
       <<<      CCC        CCC       |||    CCC        CCC         >>>
         <<<     CCCCCC     CCCCCC   |||     CCCCCC     CCCCCC   >>>
   *************************************************************************

     ****************************************************************
     * CFOUR Coupled-Cluster techniques for Computational Chemistry *
     ****************************************************************
 

   Department of Chemistry                Institut fuer Physikalische Chemie
   University of Florida                  Universitaet Mainz
   Gainesville, FL 32611, USA             D-55099 Mainz, Germany

   Department of Chemistry                Department of Chemistry
   Johns Hopkins University               Southern Methodist University
   Baltimore, MD 21218, USA               Dallas, TX 75275, USA

   Institute of Nanotechnology            Department of Physical Chemistry
   Karlsruhe Inst. of Technology          Eotvos Lorand University
   D-76021 Karlsruhe, Germany             H-1053 Budapest, Hungary

 
                       Version 2.1
 
                     node01                                            
                     Tue May  3 11:39:33 CDT 2022                      
                     integer*8 version is running
 
********************************************************************************
*                          Input from ZMAT file                                *
********************************************************************************
h_ethylene                                                                      
C       0.000000      0.0   -0.664500                                           
C       0.000000      0.0    0.664500                                           
H       0.962348      0.0   -1.159080                                           
H       0.962348      0.0    1.159080                                           
H      -0.962348      0.0   -1.159080                                           
H      -0.962348      0.0    1.159080                                           
H      0.000000      9.133333333333333      0.000000                            
                                                                                
*CFOUR(CALC=CCSD(T)                                                             
#EXCITE=EOMEE                                                                   
#ESTATE_SYM=0/3/0/0                                                             
CC_PROG=VCC                                                                     
CHARGE=-1                                                                       
COORDINATES=CARTESIAN                                                           
BASIS=SPECIAL                                                                   
REFERENCE=RHF                                                                   
MEM_SIZE=90,MEM_UNIT=GB)                                                        
                                                                                
C:cc-pVTZ                                                                       
C:cc-pVTZ                                                                       
H:cc-pVTZ                                                                       
H:cc-pVTZ                                                                       
H:cc-pVTZ                                                                       
H:cc-pVTZ                                                                       
H:aug-cc-pVTZ                                                                   
                                                                                
********************************************************************************
  @GTFLGS-W, Keyword #EXCITE not known and is ignored.
  @GTFLGS-W, Keyword #ESTATE_SYM not known and is ignored.
    -------------------------------------------------------------------
                    CFOUR Control Parameters 
    -------------------------------------------------------------------
        External           Internal           Value            Units
          Name               Name
    -------------------------------------------------------------------
       ABCDTYPE             IABCDT         STANDARD    [  0]    ***   
       ANHARMONIC           IANHAR         OFF         [  0]    ***   
       ANH_ALGORIT          IANALG         STANDARD    [  0]    ***   
       ANH_DERIVAT          IANDER         SECOND      [  1]    ***   
       ANH_MODE             ANHMOD         VIBRATION   [  0]    ***   
       ANH_STEPSIZ          ICUBST             50000          x 10-6  
       ANH_SYMMETR          IANHSM         ABELIAN     [  0]    ***   
       AO_LADDERS           IAOLAD         SINGLEPASS  [  1]    ***   
       AV_SCF               IAVSCF         OFF         [  0]    ***   
       BASIS                IBASIS         SPECIAL     [  0]    ***   
       BOTHVECTORS          BOTHVC         OFF         [  0]    ***   
       BOX_POTENT           IPIAB          OFF         [  0]    ***   
       BREIT                IBREIT         OFF         [  0]    ***   
       BRUCK_CONV           IBRTOL          10D-  4             ***   
       BRUECKNER            IBRKNR         OFF         [  0]    ***   
       BUFFERSIZE           IBUFFS              4096            ***   
       CACHE_RECS           ICHREC             10               ***   
       CALCLEVEL            ICLLVL         CCSD(T)     [ 22]    ***   
       CCORBOPT             ICCORB         OFF         [  0]  x 0.01  
       CC_CONV              ICCCNV          10D-  7             ***   
       CC_EXPORDER          ICCEOR              5               ***   
       CC_EXTRAPOL          ICCEXT         DIIS        [  1]    ***   
       CC_GUESS             ICCGES         MP2         [  0]    ***   
       CC_MAXCYC            ICCCYC            100              cycles 
       CC_PROGRAM           ICCPRO         VCC         [  0]    ***   
       CHARGE               ICHRGE             -1               ***   
       CHOLESKY             ICHOLE         OFF         [  0]    ***   
       CIS_CONV             ICISTL              5               ***   
       COMM_SIZE            IPSIZE            ***               ***   
       CONSTANT             ICONST         OLD         [  1]    ***   
       CONTINUUM            ICONTU         NONE        [  0]    ***   
       CONTRACTION          ICNTYP         GENERAL     [  1]    ***   
       COORDINATES          ICOORD         CARTESIAN   [  1]    ***   
       CPHF_CONVER          ICPHFT          10D- 16             ***   
       CPHF_MAXCYC          ICPHFC             64              cycles 
       CUBIC                ICUBIC         OFF         [  0]    ***   
       CURVILINEAR          ICURVY         OFF         [  0]    ***   
       DBOC                 IDBOC          OFF         [  0]    ***   
       DCT                  IDCT           OFF         [  0]    ***   
       DERIV_LEV            IDRLVL         ZERO        [  0]    ***   
       DEVMEM_SIZE          IDVMEM         *********           MByte  
       DIAG_MRCC            IEOMST          10D-  0             ***   
       DIFF_TYPE            IDIFTY         RELAXED     [  0]    ***   
       DIRECT               IDIRCT         OFF         [  0]    ***   
       DROPMO               IDRPMO      NONE         
       ECP                  IECP           OFF         [  0]    ***   
       EIGENVECTOR          IVEC                1               ***   
       EL_ANHARM            IELANH         OFF         [  0]    ***   
       EOMFOLLOW            IEOMSR         ENERGY      [  0]    ***   
       EOMIP                IEOMIP         OFF         [  0]    ***   
       EOMLEVEL             HBARFM         SAME        [  0]    ***   
       EOM_MRCC             IMRCCE         NEW         [  1]    ***   
       EOM_NONIT            EOMNON         OFF         [  0]    ***   
       EOM_NSING            IEOMSI          10D-  0             ***   
       EOM_NSTATES          IMRCCD         DAVIDSON    [  0]    ***   
       EOM_NTRIP            IEOMTR          10D-  0             ***   
       EOM_ORDER            IEXORD         ENERGY      [  0]    ***   
       EOM_PROPSTA          IEOMST              0               ***   
       ESTATE_CONV          IEXTOL          10D-  5             ***   
       ESTATE_DIAG          IEXDIG         ITERATIVE   [  0]    ***   
       ESTATE_LOCK          IESLOC         ON          [  1]    ***   
       ESTATE_MAXC          IEXMXC             40               ***   
       ESTATE_PROP          IEXPRP         OFF         [  0]    ***   
       EVAL_HESS            IRECAL              0            # of cyc.
       EXCITATION           IEXCIT              0               ***   
       EXCITE               IEXCIT         NONE        [  0]    ***   
       EXTERN_POT           IEXPOT         OFF         [  0]    ***   
       FCGRADNEW            IFCGNW         OFF         [  0]    ***   
       FC_FIELD             IFINFC              0             x 10-6  
       FD_CALTYPE           IFDCAL         GRADONLY    [  0]    ***   
       FD_PROJECT           IFDPRJ         OFF         [  1]    ***   
       FD_STEPSIZE          IDISFD              0            10-4 bohr
       FD_USEGROUP          IFDGRP         FULL        [  0]    ***   
       FILE_RECSIZ          IFLREC              4096           words  
       FINITE_PERT          IFIPER              0             x 10-6  
       FIXGEOM              IFIXGM         OFF         [  0]    ***   
       FOCK                 IFOCK          AO          [  1]    ***   
       FREQ_ALGORI          IVIALG         STANDARD    [  0]    ***   
       FROZEN_CORE          IFROCO         OFF         [  0]    ***   
       GAMMA_ABCD           IGABCD         STORE       [  0]    ***   
       GAMMA_ABCI           IGABCI         STORE       [  0]    ***   
       GENBAS_1             IGNBS1              0               ***   
       GENBAS_2             IGNBS2              0               ***   
       GENBAS_3             IGNBS3              0               ***   
       GENBAS_4             IGNBS4              0               ***   
       GEO_CONV             ICONTL              5              H/bohr 
       GEO_MAXCYC           IOPTCY             50               ***   
       GEO_MAXSTEP          IMXSTP            300            millibohr
       GEO_METHOD           INR            SINGLE_POINT[  5]    ***   
       GIAO                 IGIAO          OFF         [  1]    ***   
       GIMIC                IGIMIC         OFF         [  0]    ***   
       GRID                 IGRID          OFF         [  0]    ***   
       GRID_ALGO            IGALGO         SERIAL      [  0]    ***   
       GUESS                IGUESS         MOREAD      [  0]    ***   
       HBAR                 IHBAR          OFF         [  0]    ***   
       HESS_TYPE            IHESTP         SCF         [  0]    ***   
       HF2_FILE             IHF2Fl         USE         [  1]    ***   
       HFSTABILITY          ISTABL         OFF         [  0]    ***   
       INCORE               INCORE         OFF         [  0]    ***   
       INPUT_MRCC           IMRCC          ON          [  1]    ***   
       INTEGRALS            INTTYP         VMOL        [  1]    ***   
       JODA_PRINT           IJPRNT              0               ***   
       KEYWORD_OUT          IDMPKW         NO          [  0]    ***   
       LINDEP_TOL           ILINDP              8               ***   
       LINEQ_CONV           IZTACN          10D-  7           cycles  
       LINEQ_EXPOR          ILMAXD              5               ***   
       LINEQ_MAXCY          ILMAXC            100               ***   
       LINEQ_TYPE           ILTYPE         DIIS        [  1]    ***   
       LOCK_ORBOCC          ILOCOC         OFF         [  0]    ***   
       MEMORY_SIZE          IMEMSZ         *********           words  
       MEM_UNIT             IMEMU          GB          [  3]    ***   
       MRCC                 IMRCCC         OFF         [  0]    ***   
       MULTIPLICTY          IMULTP              1               ***   
       NACOUPLING           IVCOUP         OFF         [  0]    ***   
       NEGEVAL              IDIE           ABORT       [  0]    ***   
       NEWNORM              INEWNO         OFF         [  0]    ***   
       NON-HF               INONHF         OFF         [  0]    ***   
       NTOP_TAMP            ITOPT2             15               ***   
       NUC_MODEL            INUCMO         POINT       [  0]    ***   
       OCCUPATION           IOCCU   ESTIMATED BY SCF 
       OPEN-SHELL           IOPEN          SPIN-ORBITAL[  0]    ***   
       OPTVIB               IOPTVB         OFF         [  0]    ***   
       ORBITALS             IORBTP         STANDARD    [  0]    ***   
       PARALLEL             IPARAL         ON          [  1]    ***   
       PARA_INT             IPINTS         ON          [  1]    ***   
       PARA_PRINT           IPPRIN              0               ***   
       PERT_ORB             IPTORB         STANDARD    [  0]    ***   
       POINTS               IGRDFD              0               ***   
       PRINT                IPRNT               0               ***   
       PROPS                IPROPS         OFF         [  0]    ***   
       PROP_INTEGR          IINTYP         INTERNAL    [  0]    ***   
       PSI                  IPSI           OFF         [  0]    ***   
       QC_ALG               IQCALG         FLM         [  0]    ***   
       QC_LINALG            IQCLIN         TRIDIAG     [  2]    ***   
       QC_MAXCYC            IQCMAX          10D-100           cycles  
       QC_MAXSCFCY          IQCMSC          10D- 15           cycles  
       QC_RTRUST            IQCRTR          10D-  0           x 10-3  
       QC_SKIPSCF           IQCSKI         OFF         [  0]    ***   
       QC_START             IQCSTA          10D-  1             ***   
       QRHFGUESS            IQGUES         OFF         [  0]    ***   
       QUARTIC              IQUART         OFF         [  0]    ***   
       RAMAN_INT            IRAMIN         OFF         [  0]    ***   
       RAMAN_ORB            IRAMRE         UNRELAXED   [  0]    ***   
       RDO                  IRDOFM         OFF         [  0]    ***   
       REDUCE_REPR          REDREP         Ir          [  0]    ***   
       REFERENCE            IREFNC         RHF         [  0]    ***   
       RELATIVIST           IRELAT         OFF         [  0]    ***   
       RELAX_DENS           IRDENS         OFF         [  0]    ***   
       RESET_FLAGS          IRESET         OFF         [  0]    ***   
       RESTART_CC           ICCRES         OFF         [  0]    ***   
       ROT_EVEC             ROTVEC              0               ***   
       SAVE_INTS            ISVINT         OFF         [  0]    ***   
       SCALE_ON             ISTCRT              0               ***   
       SCF_CONV             ISCFCV          10D-  7             ***   
       SCF_DAMPING          IDAMP               0             x 10-3  
       SCF_EXPORDE          IRPPOR              6               ***   
       SCF_EXPSTAR          IRPPLS              8               ***   
       SCF_EXTRAPO          IRPP           ON          [  1]    ***   
       SCF_MAXCYC           ISCFCY            150              cycles 
       SCF_NOSTOP           ISCFST         OFF         [  0]    ***   
       SCF_PRINT            ISCFPR              0               ***   
       SCF_PROG             ISCFPR         SCF         [  0]    ***   
       SD_FIELD             IFINSD              0             x 10-6  
       SOPERT               IPERSO         OFF         [  0]    ***   
       SPHERICAL            IDFGHI         ON          [  1]    ***   
       SPINORBIT            ISOCAL         OFF         [  0]    ***   
       SPINROTATIO          ISRCON         OFF         [  0]    ***   
       SPIN_FLIP            ISPFLP         OFF         [  0]    ***   
       SPIN_ORBIT           ISPORB         OFF         [  0]    ***   
       SPIN_SCAL            ISCSMP         OFF         [  0]    ***   
       STEEPSCALE           ISTPSC              1000          x 10-3  
       SUBGROUP             ISUBGP         DEFAULT     [  0]    ***   
       SUBGRPAXIS           ISBXYZ         X           [  0]    ***   
       SYMMETRY             ISYM           ON          [  0]    ***   
       SYM_CHECK            ISYMCK         OVERRIDE    [  1]    ***   
       T3_EXTRAPOL          IT3EXT         OFF         [  0]    ***   
       T4_EXTRAPOL          IT4EXP         OFF         [  0]    ***   
       TAMP_SUM             IEVERY              5               ***   
       TESTSUITE            ITESTS         OFF         [  0]    ***   
       THERMOCH             ITHERM         OFF         [  0]    ***   
       TOL_CHOLESK          ITOLCH          10D-  4             ***   
       TRANGRAD             IRESRM         OFF         [  0]    ***   
       TRANS_INV            ITRAIN         USE         [  0]    ***   
       TREAT_PERT           ITREAT         SIMULTANEOUS[  0]    ***   
       TRIP_ALGORI          ITRALG         NORMAL      [  0]    ***   
       UIJ_THRESHO          IUIJTH              1               ***   
       UNITS                IUNITS         ANGSTROM    [  0]    ***   
       UNOS                 IUNOS          OFF         [  0]    ***   
       UPDATE_HESS          IHUPDT         ON          [  1]    ***   
       VIBPHASE             ISETPH         STANDARD    [  0]    ***   
       VIBRATION            IVIB           NO          [  0]    ***   
       VIB_ALGORIT          IGEALG         STANDARD    [  0]    ***   
       VNATORB              IVNORB         OFF         [  0]    ***   
       VTRAN                IVTRAN         FULL/PARTIAL[  0]    ***   
       XFIELD               IXEFLD              0             x 10-6  
       XFORM_TOL            IXFTOL          10D- 11             ***   
       YFIELD               IYEFLD              0             x 10-6  
       ZFIELD               IZEFLD              0             x 10-6  
       ZSCALE_EXP           IZEXPS         OFF         [  0]    ***   
    -------------------------------------------------------------------
  @GETXYZ-I,     7 atoms read from ZMAT.
   Rotational constants (in cm-1): 
          0.1734928318             0.1985908720             0.8536890782
   Rotational constants (in MHz): 
       5201.1849767172          5953.6053994174         25592.9582983935
********************************************************************************
   The full molecular point group is C2v .
   The largest Abelian subgroup of the full molecular point group is C2v .
   The computational point group is C2v .
********************************************************************************


 ----------------------------------------------------------------
         Coordinates used in calculation (QCOMP) 
 ----------------------------------------------------------------
 Z-matrix   Atomic            Coordinates (in bohr)
  Symbol    Number           X              Y              Z
 ----------------------------------------------------------------
     C         6        -1.25572327     0.00000000    -0.59900422
     C         6         1.25572327     0.00000000    -0.59900422
     H         1        -2.19034422     1.81857454    -0.59900422
     H         1         2.19034422     1.81857454    -0.59900422
     H         1        -2.19034422    -1.81857454    -0.59900422
     H         1         2.19034422    -1.81857454    -0.59900422
     H         1         0.00000000     0.00000000    16.66049801
 ----------------------------------------------------------------
 
   Interatomic distance matrix (Angstroms) 
 
                 C             C             H             H             H    
                [ 1]        [ 2]        [ 3]        [ 4]        [ 5]
  C    [ 1]     0.00000
  C    [ 2]     1.32900     0.00000
  H    [ 3]     1.08200     2.06193     0.00000
  H    [ 4]     2.06193     1.08200     2.31816     0.00000
  H    [ 5]     1.08200     2.06193     1.92470     3.01303     0.00000
  H    [ 6]     2.06193     1.08200     3.01303     1.92470     2.31816
  H    [ 7]     9.15748     9.15748     9.25675     9.25675     9.25675
 
                 H             H    
                [ 6]        [ 7]
  H    [ 6]     0.00000
  H    [ 7]     9.25675     0.00000
 rotcon2
   Rotational constants (in cm-1): 
          0.1985908720             0.1734928318             0.8536890782
   Rotational constants (in MHz): 
       5953.6053994174          5201.1849767172         25592.9582983935
  ECPDATA file not present.   Using default ECPDATA. 
  @GTFLGS-W, Keyword #EXCITE not known and is ignored.
  @GTFLGS-W, Keyword #ESTATE_SYM not known and is ignored.
  There are  139 basis functions.
 @GEOPT-W, Archive file not created for single-point calculation.
 @CHECKOUT-I, Total execution time (CPU/WALL):        0.15/       0.18 seconds.
--executable xjoda finished with status     0 in        0.19 seconds (walltime).
 --invoking executable--
/home/tsommerfeld/zscale/bin/xvmol
 SERIAL VERSION OF MOLECULE STARTED
********************************************************************************
                    INPUT FROM MOL FILE
********************************************************************************
INTGRL        1    0    1    0    0    0    0    0    0                         
         *** CFOUR Program System (Release V0.1) ***                            
h_ethylene                                                                      
    3    2 X  Y       0.10E-08              0    0                              
   9999.00      3.00                                                            
          6.00000000    1    4    1    1    1    1                              
C #1  -1.255723272983657   0.000000000000000  -0.599004216767643                
   10    4                                                                      
   8236.00000000000       5.310000000000000E-004  0.000000000000000E+000        
 -1.130000000000000E-004  0.000000000000000E+000                                
   1235.00000000000       4.108000000000000E-003  0.000000000000000E+000        
 -8.780000000000000E-004  0.000000000000000E+000                                
   280.800000000000       2.108700000000000E-002  0.000000000000000E+000        
 -4.540000000000000E-003  0.000000000000000E+000                                
   79.2700000000000       8.185300000000000E-002  0.000000000000000E+000        
 -1.813300000000000E-002  0.000000000000000E+000                                
   25.5900000000000       0.234817000000000       0.000000000000000E+000        
 -5.576000000000000E-002  0.000000000000000E+000                                
   8.99700000000000       0.434401000000000       0.000000000000000E+000        
 -0.126895000000000       0.000000000000000E+000                                
   3.31900000000000       0.346129000000000       0.000000000000000E+000        
 -0.170352000000000       0.000000000000000E+000                                
  0.905900000000000       3.937800000000000E-002   1.00000000000000             
  0.140382000000000       0.000000000000000E+000                                
  0.364300000000000      -8.983000000000000E-003  0.000000000000000E+000        
  0.598684000000000       0.000000000000000E+000                                
  0.128500000000000       2.385000000000000E-003  0.000000000000000E+000        
  0.395389000000000        1.00000000000000                                     
    5    3                                                                      
   18.7100000000000       0.000000000000000E+000  1.403100000000000E-002        
  0.000000000000000E+000                                                        
   4.13300000000000       0.000000000000000E+000  8.686600000000000E-002        
  0.000000000000000E+000                                                        
   1.20000000000000       0.000000000000000E+000  0.290216000000000             
  0.000000000000000E+000                                                        
  0.382700000000000        1.00000000000000       0.501008000000000             
  0.000000000000000E+000                                                        
  0.120900000000000       0.000000000000000E+000  0.343406000000000             
   1.00000000000000                                                             
    2    2                                                                      
   1.09700000000000        1.00000000000000       0.000000000000000E+000        
  0.318000000000000       0.000000000000000E+000   1.00000000000000             
    1    1                                                                      
  0.761000000000000        1.00000000000000                                     
          1.00000000    1    3    1    1    1                                   
H #2  -2.190344215575466   1.818574537711477  -0.599004216767643                
    5    3                                                                      
   33.8700000000000       0.000000000000000E+000  6.068000000000000E-003        
  0.000000000000000E+000                                                        
   5.09500000000000       0.000000000000000E+000  4.530800000000000E-002        
  0.000000000000000E+000                                                        
   1.15900000000000       0.000000000000000E+000  0.202822000000000             
  0.000000000000000E+000                                                        
  0.325800000000000        1.00000000000000       0.503903000000000             
  0.000000000000000E+000                                                        
  0.102700000000000       0.000000000000000E+000  0.383421000000000             
   1.00000000000000                                                             
    2    2                                                                      
   1.40700000000000        1.00000000000000       0.000000000000000E+000        
  0.388000000000000       0.000000000000000E+000   1.00000000000000             
    1    1                                                                      
   1.05700000000000        1.00000000000000                                     
          1.00000000    1    3    1    1    1                                   
H #3   0.000000000000000   0.000000000000000  16.660498005330279                
    6    4                                                                      
   33.8700000000000       0.000000000000000E+000  6.068000000000000E-003        
  0.000000000000000E+000  0.000000000000000E+000                                
   5.09500000000000       0.000000000000000E+000  4.530800000000000E-002        
  0.000000000000000E+000  0.000000000000000E+000                                
   1.15900000000000       0.000000000000000E+000  0.202822000000000             
  0.000000000000000E+000  0.000000000000000E+000                                
  0.325800000000000        1.00000000000000       0.503903000000000             
  0.000000000000000E+000  0.000000000000000E+000                                
  0.102700000000000       0.000000000000000E+000  0.383421000000000             
   1.00000000000000       0.000000000000000E+000                                
  2.526000000000000E-002  0.000000000000000E+000  0.000000000000000E+000        
  0.000000000000000E+000   1.00000000000000                                     
    3    3                                                                      
   1.40700000000000        1.00000000000000       0.000000000000000E+000        
  0.000000000000000E+000                                                        
  0.388000000000000       0.000000000000000E+000   1.00000000000000             
  0.000000000000000E+000                                                        
  0.102000000000000       0.000000000000000E+000  0.000000000000000E+000        
   1.00000000000000                                                             
    2    2                                                                      
   1.05700000000000        1.00000000000000       0.000000000000000E+000        
  0.247000000000000       0.000000000000000E+000   1.00000000000000             
FINISH                                                                          
 
********************************************************************************
 ONE- AND TWO-ELECTRON INTEGRALS OVER SYMMETRY-ADAPTED AOS ARE CALCULATED.

  SPHERICAL HARMONICS ARE USED.
  
  INTEGRALS LESS THAN  0.10E-13 ARE NEGLECTED.

  NUCLEAR REPULSION ENERGY :   34.5113183750 A.U.
  @MOLECU-I, ONE ELECTRON INTEGRALS (CPU/WALL):        0.03/       0.04 SECONDS.
  @TWOEL-I,     430061 INTEGRALS OF SYMMETRY TYPE  I I I I
  @TWOEL-I,    1759607 INTEGRALS OF SYMMETRY TYPE  I J I J
  @TWOEL-I,    1028783 INTEGRALS OF SYMMETRY TYPE  I I J J
  @TWOEL-I,    1537238 INTEGRALS OF SYMMETRY TYPE  I J K L
  @TWOEL-I, TOTAL NUMBER OF 2-E INTEGRALS    4755689.
  @MOLECU-I, TWO ELECTRON INTEGRALS (CPU/WALL):       31.80/       3.62 SECONDS.
 @CHECKOUT-I, Total execution time (CPU/WALL):       31.85/       3.67 seconds.

Running with 12 threads/proc

--executable xvmol finished with status     0 in        3.70 seconds (walltime).
 --invoking executable--
/home/tsommerfeld/zscale/bin/xvmol2ja
 @GETMEM-I,  Allocated   85830 MB of main memory.
 @CHECKOUT-I, Total execution time (CPU/WALL):        0.11/       0.02 seconds.
--executable xvmol2ja finished with status     0 in        0.04 seconds (walltime).
 --invoking executable--
/home/tsommerfeld/zscale/bin/xvscf
  There are  139 functions in the AO basis.

  There are 4 irreducible representations.

       Irrep        # of functions
         1                 45
         2                 39
         3                 29
         4                 26


  Parameters for SCF calculation: 
        SCF reference function:  RHF  
  Maximum number of iterations:  150
     Full symmetry point group: C2v 
     Computational point group: C2v 
        Initial density matrix: MOREAD                 
     SCF convergence tolerance: 10**(- 7)
  DIIS convergence acceleration:  ON
          Latest start for DIIS:   8
                     DIIS order:   6

  Memory information:     823082 words required.
  Fock matrices are constructed from AO integral file.
 @GETMEM-I,  Allocated       6 MB of main memory.
  Initialization and symmetry analysis required      0.001 seconds.

  @INITGES-I, Occupancies from core Hamiltonian:

          Alpha population by irrep:   4    3    1    1
           Beta population by irrep:   4    3    1    1


 total no. of electrons in initial guess :  0.000000000000000E+000
  --------------------------------------------------------------------
  Iteration         Total Energy            Largest Density Difference
  --------------------------------------------------------------------
       0            34.511318375014973              0.0000000000D+00
   current occupation vector 
     4  3  1  1
     4  3  1  1
       1           -51.686306746287961              0.8749598558D+01
   current occupation vector 
     4  3  1  1
     4  3  1  1
       2           -40.534577840737960              0.3174770153D+02
   current occupation vector 
     5  3  1  0
     5  3  1  0
       3           -67.958437838468797              0.3148559406D+02
   current occupation vector 
     4  3  1  1
     4  3  1  1
       4           -42.617868644749997              0.1243469633D+02
   current occupation vector 
     6  2  1  0
     6  2  1  0
       5           -68.616895369450731              0.1243469633D+02
   current occupation vector 
     4  3  1  1
     4  3  1  1
       6           -42.895777281636832              0.1243468443D+02
   current occupation vector 
     6  2  1  0
     6  2  1  0
       7           -68.708786245146115              0.1243468443D+02
   current occupation vector 
     4  3  1  1
     4  3  1  1
       8           -42.933107095608953              0.1243468265D+02
   current occupation vector 
     6  2  1  0
     6  2  1  0
       9           -73.501971349965771              0.1243468267D+02
   current occupation vector 
     4  3  1  1
     4  3  1  1
      10           -75.743506676879008              0.9155680815D+00
   current occupation vector 
     4  3  1  1
     4  3  1  1
      11           -77.535235695491281              0.9057869423D+00
   current occupation vector 
     4  3  1  1
     4  3  1  1
      12           -76.503940196742462              0.2856474862D+01
   current occupation vector 
     5  2  1  1
     5  2  1  1
      13           -78.380592950251923              0.2848201341D+01
   current occupation vector 
     5  2  1  1
     5  2  1  1
      14           -78.422787830555706              0.2671572624D+00
   current occupation vector 
     5  2  1  1
     5  2  1  1
      15           -78.480806381695004              0.2501640140D+00
   current occupation vector 
     5  2  1  1
     5  2  1  1
      16           -78.545108201535641              0.3650493719D+00
   current occupation vector 
     5  2  1  1
     5  2  1  1
      17           -78.546815525135344              0.7764536857D-01
   current occupation vector 
     5  2  1  1
     5  2  1  1
      18           -78.546868809039097              0.1961048161D-01
   current occupation vector 
     5  2  1  1
     5  2  1  1
      19           -78.546868837215158              0.2270612825D-03
   current occupation vector 
     5  2  1  1
     5  2  1  1
      20           -78.546868838970909              0.6089251653D-04
   current occupation vector 
     5  2  1  1
     5  2  1  1
      21           -78.546868839108157              0.1300816702D-04
   current occupation vector 
     5  2  1  1
     5  2  1  1
      22           -78.546868839111994              0.1655891184D-05
   current occupation vector 
     5  2  1  1
     5  2  1  1
      23           -78.546868839113102              0.4594563261D-06
   current occupation vector 
     5  2  1  1
     5  2  1  1
      24           -78.546868839112705              0.1596909148D-06
   current occupation vector 
     5  2  1  1
     5  2  1  1

  SCF has converged.

 Density matrix saved to file den.dat
 total electron number:   18.0000000000000     
     E(SCF)=       -78.546868839112477              0.1097331656D-07


  Final occupancies:

     Alpha population by irrep:   5    2    1    1
      Beta population by irrep:   5    2    1    1


  Eigenvector printing suppressed.

 @PUTMOS-I, Writing converged MOs to NEWMOS. 
 @PUTMOS-I, Symmetry   1 Full Blocks 11 Partial Blocksize   1
 @PUTMOS-I, Symmetry   2 Full Blocks  9 Partial Blocksize   3
 @PUTMOS-I, Symmetry   3 Full Blocks  7 Partial Blocksize   1
 @PUTMOS-I, Symmetry   4 Full Blocks  6 Partial Blocksize   2
 @PUTFOCK-I, Writing converged Fock matrix to NEWFOCK. 
 @PUTFOCK-I, Symmetry   1 Full Blocks 11 Partial Blocksize   1
 @PUTFOCK-I, Symmetry   2 Full Blocks  9 Partial Blocksize   3
 @PUTFOCK-I, Symmetry   3 Full Blocks  7 Partial Blocksize   1
 @PUTFOCK-I, Symmetry   4 Full Blocks  6 Partial Blocksize   2


 
  ORBITAL EIGENVALUES (ALPHA)  (1H = 27.2113834 eV)

       MO #        E(hartree)               E(eV)           FULLSYM    COMPSYM
       ----   --------------------   --------------------   -------   ---------
    1     1         -11.1685566647        -303.9118774285      A1        A1 (1)
    2    46         -11.1667926430        -303.8638759562      B1        B1 (2)
    3     2          -0.9803049239         -26.6754531339      A1        A1 (1)
    4    47          -0.7223577462         -19.6563535835      B1        B1 (2)
    5    85          -0.6016713418         -16.3723095624      B2        B2 (3)
    6     3          -0.5087065447         -13.8426088268      A1        A1 (1)
    7   114          -0.4572398628         -12.4421292114      A2        A2 (4)
    8     4          -0.3189060900          -8.6778758828      A1        A1 (1)
    9     5          -0.0453883394          -1.2350795061      A1        A1 (1)
  +++++++++++++++++++++++++++++++++++++++++++++++++++++++++++++++++++++++++++++
   10    48           0.2125356008           5.7833877184      B1        B1 (2)
   11     6           0.2144949957           5.8367055643      A1        A1 (1)
   12    86           0.2418411331           6.5808317944      B2        B2 (3)
   13     7           0.2424092647           6.5962914406      A1        A1 (1)
   14    49           0.2493780176           6.7859208491      B1        B1 (2)
   15   115           0.2960204296           8.0551254045      A2        A2 (4)
   16    50           0.4121040951          11.2139225316      B1        B1 (2)
   17     8           0.4175345774          11.3616934680      A1        A1 (1)
   18    87           0.4495501828          12.2328823805      E         B2 (3)
   19    51           0.4495534484          12.2329712425      E         B1 (2)
   20     9           0.4496160987          12.2346760445      A1        A1 (1)
   21    10           0.5045258090          13.7288452242      A1        A1 (1)
   22    88           0.5290815146          14.3970399438      B2        B2 (3)
   23    11           0.5376448416          14.6300599168      A1        A1 (1)
   24    52           0.6231973871          16.9580630352      B1        B1 (2)
   25    53           0.6468666909          17.6021375354      B1        B1 (2)
   26    89           0.6541145608          17.7993621026      B2        B2 (3)
   27    12           0.6829949424          18.5852372375      A1        A1 (1)
   28    54           0.6966674258          18.9572844265      B1        B1 (2)
   29    90           0.7250624687          19.7299528234      B2        B2 (3)
   30   116           0.7511299312          20.4392845417      A2        A2 (4)
   31    13           0.7831465371          21.3105006805      A1        A1 (1)
   32    55           0.8425735319          22.9275914192      B1        B1 (2)
   33   117           0.8860829955          24.1115441140      A2        A2 (4)
   34    14           0.9539776160          25.9590506637      A1        A1 (1)
   35   118           0.9616459144          26.1677156711      A2        A2 (4)
   36    15           1.0436540789          28.3992712766      A1        A1 (1)
   37   119           1.0790296296          29.3618889518      A2        A2 (4)
   38    91           1.0949153468          29.7941612926      B2        B2 (3)
   39    16           1.1022604315          29.9940312085      E         A1 (1)
   40   120           1.1022604371          29.9940313598      E         A2 (4)
   41    92           1.1022823656          29.9946280659      E         B2 (3)
   42    56           1.1022836887          29.9946640691      E         B1 (2)
   43    17           1.1022931648          29.9949219257      A1        A1 (1)
   44    18           1.2397649145          33.7357184146      A1        A1 (1)
   45    57           1.2402627772          33.7492659482      B1        B1 (2)
   46    19           1.2866470286          35.0114455950      A1        A1 (1)
   47    93           1.3120446766          35.7025507323      B2        B2 (3)
   48    94           1.3385485680          36.4237582846      E         B2 (3)
   49    58           1.3385498246          36.4237924776      E         B1 (2)
   50    20           1.3385739298          36.4244484137      A1        A1 (1)
   51    59           1.3793149928          37.5330690975      B1        B1 (2)
   52    95           1.4028423882          38.1732820758      B2        B2 (3)
   53    60           1.4218669167          38.6909658129      B1        B1 (2)
   54    96           1.5211973236          41.3938835986      B2        B2 (3)
   55    61           1.5357532720          41.7899710933      B1        B1 (2)
   56    21           1.5649604793          42.5847396084      A1        A1 (1)
   57    62           1.5904506745          43.2783630824      B1        B1 (2)
   58   121           1.6549448717          45.0333394110      A2        A2 (4)
   59   122           1.6937938478          46.0904737925      A2        A2 (4)
   60    63           1.8575859194          50.5474826511      B1        B1 (2)
   61    22           1.9096961144          51.9654731464      A1        A1 (1)
   62   123           2.0280322472          55.1855630261      A2        A2 (4)
   63    23           2.3439545935          63.7822471162      A1        A1 (1)
   64    24           2.4221812304          65.9109021259      A1        A1 (1)
   65    25           2.6056445694          70.9031933833      A1        A1 (1)
   66    64           2.6223198105          71.3569497610      B1        B1 (2)
   67    97           2.6815824685          72.9695686686      B2        B2 (3)
   68    98           2.7665540488          75.2817629179      B2        B2 (3)
   69    65           2.7989115685          76.1622557921      B1        B1 (2)
   70    26           2.8194490190          76.7211082317      A1        A1 (1)
   71   124           2.8993321959          78.8948399854      A2        A2 (4)
   72    99           2.9737795486          80.9206554452      B2        B2 (3)
   73    27           2.9768304889          81.0036757497      A1        A1 (1)
   74   125           3.1224653270          84.9666011654      A2        A2 (4)
   75    28           3.1543554746          85.8343761985      A1        A1 (1)
   76   100           3.1645535038          86.1118786822      B2        B2 (3)
   77    29           3.1667744470          86.1723136177      A1        A1 (1)
   78   101           3.1787837778          86.4991041226      B2        B2 (3)
   79   126           3.2109791525          87.3751848072      A2        A2 (4)
   80    30           3.2364286495          88.0677008289      A1        A1 (1)
   81    66           3.2867274962          89.4364020298      B1        B1 (2)
   82    67           3.3241672014          90.4551882035      B1        B1 (2)
   83   102           3.3957782249          92.4038232178      B2        B2 (3)
   84    68           3.4600045645          94.1515107694      B1        B1 (2)
   85    69           3.4837468282          94.7975706094      B1        B1 (2)
   86   127           3.4844091496          94.8155932917      A2        A2 (4)
   87   128           3.5055125914          95.3898471374      A2        A2 (4)
   88    70           3.5114282584          95.5508206199      B1        B1 (2)
   89    31           3.6083956218          98.1894367228      A1        A1 (1)
   90    32           3.6341320002          98.8897591842      A1        A1 (1)
   91   103           3.6997269520         100.6746885662      B2        B2 (3)
   92   104           3.7805928093         102.8751604125      B2        B2 (3)
   93   129           3.8739703497         105.4160924658      A2        A2 (4)
   94    71           3.9341693058         107.0541893418      B1        B1 (2)
   95   130           3.9700360751         108.0301737526      A2        A2 (4)
   96    72           4.0264763233         109.5659909853      B1        B1 (2)
   97   131           4.0350307138         109.7987677845      A2        A2 (4)
   98    33           4.0649852630         110.6138725065      A1        A1 (1)
   99   105           4.0697271454         110.7429056863      B2        B2 (3)
  100    34           4.1151432886         111.9787417715      A1        A1 (1)
  101    35           4.2163346917         114.7322998390                A1 (1)
  102   132           4.2163346938         114.7322998946                A2 (4)
  103   106           4.2163399860         114.7324439041                B2 (3)
  104    73           4.2163402910         114.7324522034                B1 (2)
  105    36           4.2163423773         114.7325089751                A1 (1)
  106    74           4.2426316824         115.4478773354      B1        B1 (2)
  107   133           4.2495242365         115.6354332680      A2        A2 (4)
  108    37           4.2507685910         115.6692938757      A1        A1 (1)
  109   107           4.2602885535         115.9283452230      B2        B2 (3)
  110    38           4.3875536293         119.3914039949      A1        A1 (1)
  111    75           4.4084091633         119.9589119277      B1        B1 (2)
  112   108           4.4444141854         120.9386583887                B2 (3)
  113    76           4.4444145489         120.9386682786                B1 (2)
  114    39           4.4444215229         120.9388580507                A1 (1)
  115   109           4.5278906923         123.2101696225      B2        B2 (3)
  116    77           4.5640179076         124.1932411293      B1        B1 (2)
  117   134           4.6645955820         126.9300987881      A2        A2 (4)
  118    40           4.6995105384         127.8801830529      A1        A1 (1)
  119    78           4.8159259110         131.0480063908      B1        B1 (2)
  120    79           4.8716241626         132.5636328682      B1        B1 (2)
  121    41           4.9862614001         135.6830706902      A1        A1 (1)
  122    42           5.0322194012         136.9336514800      A1        A1 (1)
  123   135           5.0860639286         138.3988355579      A2        A2 (4)
  124   110           5.1853837162         141.1014643787      B2        B2 (3)
  125   111           5.2748397512         143.5356868423      B2        B2 (3)
  126    43           5.3573650159         145.7813134605      A1        A1 (1)
  127    80           5.3626545506         145.9252490179      B1        B1 (2)
  128   136           5.4849134997         149.2520841567      A2        A2 (4)
  129   137           5.5004258619         149.6741969907      A2        A2 (4)
  130    81           5.5955764991         152.2633774617      B1        B1 (2)
  131    44           5.6209396716         152.9535444718      A1        A1 (1)
  132   112           5.6755353907         154.4391695175      B2        B2 (3)
  133    82           6.0150818575         163.6786986058      B1        B1 (2)
  134   138           6.1509353813         167.3754609279      A2        A2 (4)
  135   113           6.3287020889         172.2127389663      B2        B2 (3)
  136    83           6.5679966625         178.7242753529      B1        B1 (2)
  137   139           6.9314681734         188.6148379909      A2        A2 (4)
  138    45          11.9549715485         325.3113143422      A1        A1 (1)
  139    84          14.8073253626         402.9278075697      B1        B1 (2)


  VSCF finished.

 @CHECKOUT-I, Total execution time (CPU/WALL):       14.76/       1.24 seconds.
--executable xvscf finished with status     0 in        1.26 seconds (walltime).
 --invoking executable--
/home/tsommerfeld/zscale/bin/xvtran
 @GETMEM-I,  Allocated   85830 MB of main memory.
  Full RHF integral transformation
  Transformation of IIII integrals :
  1 pass through the AO integral file was required.
      430061 AO integrals were read.
      996478 MO integrals were written to HF2.
  Transformation of IIJJ integrals :
  1 pass through the AO integral file was required.
     1028783 AO integrals were read.
     2384023 MO integrals were written to HF2.
  Transformation of IJIJ integrals :
  1 pass through the AO integral file was required.
     1759607 AO integrals were read.
     4512210 MO integrals were written to HF2.
  Transformation of IJKL integrals :
  1 pass through the AO integral file was required.
     1537238 AO integrals were read.
     3963907 MO integrals were written to HF2.
  Summary of active molecular orbitals: 
------------------------------------------------------------------------
 
  Index      Eigenvalue    Symmetry    Index      Eigenvalue    Symmetry
------------------------------------------------------------------------
     1       -11.1685567        1        71         3.4837468        2
     2        -0.9803049        1        72         3.5114283        2
     3        -0.5087065        1        73         3.9341693        2
     4        -0.3189061        1        74         4.0264763        2
     5        -0.0453883        1        75         4.2163403        2
     6       -11.1667926        2        76         4.2426317        2
     7        -0.7223577        2        77         4.4084092        2
     8        -0.6016713        3        78         4.4444145        2
     9        -0.4572399        4        79         4.5640179        2
    10         0.2144950        1        80         4.8159259        2
    11         0.2424093        1        81         4.8716242        2
    12         0.4175346        1        82         5.3626546        2
    13         0.4496161        1        83         5.5955765        2
    14         0.5045258        1        84         6.0150819        2
    15         0.5376448        1        85         6.5679967        2
    16         0.6829949        1        86        14.8073254        2
    17         0.7831465        1        87         0.2418411        3
    18         0.9539776        1        88         0.4495502        3
    19         1.0436541        1        89         0.5290815        3
    20         1.1022604        1        90         0.6541146        3
    21         1.1022932        1        91         0.7250625        3
    22         1.2397649        1        92         1.0949153        3
    23         1.2866470        1        93         1.1022824        3
    24         1.3385739        1        94         1.3120447        3
    25         1.5649605        1        95         1.3385486        3
    26         1.9096961        1        96         1.4028424        3
    27         2.3439546        1        97         1.5211973        3
    28         2.4221812        1        98         2.6815825        3
    29         2.6056446        1        99         2.7665540        3
    30         2.8194490        1       100         2.9737795        3
    31         2.9768305        1       101         3.1645535        3
    32         3.1543555        1       102         3.1787838        3
    33         3.1667744        1       103         3.3957782        3
    34         3.2364286        1       104         3.6997270        3
    35         3.6083956        1       105         3.7805928        3
    36         3.6341320        1       106         4.0697271        3
    37         4.0649853        1       107         4.2163400        3
    38         4.1151433        1       108         4.2602886        3
    39         4.2163347        1       109         4.4444142        3
    40         4.2163424        1       110         4.5278907        3
    41         4.2507686        1       111         5.1853837        3
    42         4.3875536        1       112         5.2748398        3
    43         4.4444215        1       113         5.6755354        3
    44         4.6995105        1       114         6.3287021        3
    45         4.9862614        1       115         0.2960204        4
    46         5.0322194        1       116         0.7511299        4
    47         5.3573650        1       117         0.8860830        4
    48         5.6209397        1       118         0.9616459        4
    49        11.9549715        1       119         1.0790296        4
    50         0.2125356        2       120         1.1022604        4
    51         0.2493780        2       121         1.6549449        4
    52         0.4121041        2       122         1.6937938        4
    53         0.4495534        2       123         2.0280322        4
    54         0.6231974        2       124         2.8993322        4
    55         0.6468667        2       125         3.1224653        4
    56         0.6966674        2       126         3.2109792        4
    57         0.8425735        2       127         3.4844091        4
    58         1.1022837        2       128         3.5055126        4
    59         1.2402628        2       129         3.8739703        4
    60         1.3385498        2       130         3.9700361        4
    61         1.3793150        2       131         4.0350307        4
    62         1.4218669        2       132         4.2163347        4
    63         1.5357533        2       133         4.2495242        4
    64         1.5904507        2       134         4.6645956        4
    65         1.8575859        2       135         5.0860639        4
    66         2.6223198        2       136         5.4849135        4
    67         2.7989116        2       137         5.5004259        4
    68         3.2867275        2       138         6.1509354        4
    69         3.3241672        2       139         6.9314682        4
    70         3.4600046        2
------------------------------------------------------------------------
  -11.1685566647282      -0.980304923927737      -0.508706544731550     
 -0.318906089970176      -4.538833942969545E-002  -11.1667926429730     
 -0.722357746188466      -0.601671341796927      -0.457239862764292     
  0.214494995659478       0.242409264668485       0.417534577386321     
  0.449616098697001       0.504525809012819       0.537644841561187     
  0.682994942385242       0.783146537139176       0.953977615988327     
   1.04365407885303        1.10226043151090        1.10229316476765     
   1.23976491451147        1.28664702857501        1.33857392982401     
   1.56496047931251        1.90969611439966        2.34395459350995     
   2.42218123044491        2.60564456944582        2.81944901896228     
   2.97683048888064        3.15435547457502        3.16677444696607     
   3.23642864952415        3.60839562176881        3.63413200021918     
   4.06498526298805        4.11514328858036        4.21633469171755     
   4.21634237732680        4.25076859104967        4.38755362929841     
   4.44442152289551        4.69951053840503        4.98626140008156     
   5.03221940123821        5.35736501586657        5.62093967158622     
   11.9549715484937       0.212535600757509       0.249378017623686     
  0.412104095066989       0.449553448375748       0.623197387135652     
  0.646866690923124       0.696667425828877       0.842573531900176     
   1.10228368871194        1.24026277724041        1.33854982461330     
   1.37931499276686        1.42186691665514        1.53575327204033     
   1.59045067449125        1.85758591939407        2.62231981050124     
   2.79891156846128        3.28672749617869        3.32416720141655     
   3.46000456446449        3.48374682815443        3.51142825836126     
   3.93416930584262        4.02647632333556        4.21634029100523     
   4.24263168242121        4.40840916333869        4.44441454889642     
   4.56401790764156        4.81592591102191        4.87162416256293     
   5.36265455059220        5.59557649912502        6.01508185746302     
   6.56799666248788        14.8073253625786       0.241841133088974     
  0.449550182757215       0.529081514604600       0.654114560843594     
  0.725062468651679        1.09491534681078        1.10228236561934     
   1.31204467657766        1.33854856804510        1.40284238822660     
   1.52119732356402        2.68158246848289        2.76655404876817     
   2.97377954864116        3.16455350381885        3.17878377777055     
   3.39577822485262        3.69972695200116        3.78059280927798     
   4.06972714538040        4.21633998601257        4.26028855346638     
   4.44441418544975        4.52789069233748        5.18538371624048     
   5.27483975115552        5.67553539073279        6.32870208892993     
  0.296020429617162       0.751129931222586       0.886082995469975     
  0.961645914374227        1.07902962962924        1.10226043707230     
   1.65494487174963        1.69379384778041        2.02803224720075     
   2.89933219585482        3.12246532697223        3.21097915246868     
   3.48440914957969        3.50551259137268        3.87397034969690     
   3.97003607514665        4.03503071381737        4.21633469375725     
   4.24952423653678        4.66459558201402        5.08606392859372     
   5.48491349971827        5.50042586187151        6.15093538125440     
   6.93146817338490     
 @CHECKOUT-I, Total execution time (CPU/WALL):       16.36/       1.84 seconds.
--executable xvtran finished with status     0 in        1.86 seconds (walltime).
 --invoking executable--
/home/tsommerfeld/zscale/bin/xintprc
 @GETMEM-I,  Allocated   85830 MB of main memory.
  @GMOIAA-I, Processing MO integrals for spin case AA.
  @GMOIAA-I, Generation of integral list completed.
                      TYPE                NUMBER
                      ----               --------
                      PPPP               9072846
                      PPPH               2498713
                      PPHH                173387
                      PHPH                 97627
                      PHHH                 13713
                      HHHH                   332

                     TOTAL              11856618

  @FORMT2-I, Second-order MP correlation energies:
            ------------------------------------------------
            E(SCF)                  =    -78.546868839112 a.u.
            E2(AA)                  =     -0.037950526527 a.u.
            E2(AB)                  =     -0.319231568581 a.u.
            E2(TOT)                 =     -0.395132621636 a.u.
            Total MP2 energy        =    -78.942001460748 a.u.
            ------------------------------------------------
   Largest T2 amplitudes for spin case AB:
       _       _                 _       _                 _       _
   i   j   a   b             i   j   a   b             i   j   a   b
-----------------------------------------------------------------------------
[  4   4  50  50]-0.08270 [  5   5  11  11]-0.08219 [  5   5  17  17]-0.04763
[  5   5  17  11] 0.04321 [  5   5  11  17] 0.04321 [  5   5  88  88]-0.04090
[  5   5  53  53]-0.04090 [  5   5  13  13]-0.04090 [  4   4  50  54]-0.03714
[  4   4  54  50]-0.03714 [  4   4  14  14]-0.03057 [  4   4  15  15]-0.02691
[  4   4  54  54]-0.02659 [  4   3  50  57] 0.02650 [  3   4  57  50] 0.02650
-----------------------------------------------------------------------------
   Norm of T2AB vector (   345906 symmetry allowed elements):  0.3321397406.
-----------------------------------------------------------------------------
 @CHECKOUT-I, Total execution time (CPU/WALL):        5.67/       2.77 seconds.
--executable xintprc finished with status     0 in        2.79 seconds (walltime).
  calling xvcc 
 --invoking executable--
/home/tsommerfeld/zscale/bin/xvcc
 @GETMEM-I,  Allocated   85830 MB of main memory.
   CCSD(T) energy will be calculated.
   The total correlation energy is -0.395132621636 a.u.
   The total correlation energy is -0.415032567424 a.u.
  Convergence information after     1 iterations: 
  Largest element of residual vector : -0.28831470E-01.
  Largest element of DIIS residual   : -0.28831470E-01.
   The total correlation energy is -0.426191894951 a.u.
  Convergence information after     2 iterations: 
  Largest element of residual vector : -0.13435290E-01.
  Largest element of DIIS residual   : -0.10650476E-01.
   The total correlation energy is -0.429094048936 a.u.
  Convergence information after     3 iterations: 
  Largest element of residual vector : -0.71744989E-02.
  Largest element of DIIS residual   : -0.58624173E-02.
   The total correlation energy is -0.430716653151 a.u.
  Convergence information after     4 iterations: 
  Largest element of residual vector : -0.35200208E-02.
  Largest element of DIIS residual   : -0.21136551E-02.
   The total correlation energy is -0.430889891395 a.u.
  Convergence information after     5 iterations: 
  Largest element of residual vector : -0.10435896E-02.
  Largest element of DIIS residual   : -0.38569983E-03.
   The total correlation energy is -0.430895014247 a.u.
  Convergence information after     6 iterations: 
  Largest element of residual vector :  0.24385756E-03.
  Largest element of DIIS residual   :  0.18524248E-03.
   The total correlation energy is -0.430885519818 a.u.
  Convergence information after     7 iterations: 
  Largest element of residual vector :  0.81631064E-04.
  Largest element of DIIS residual   : -0.39791177E-04.
   The total correlation energy is -0.430883147999 a.u.
  Convergence information after     8 iterations: 
  Largest element of residual vector :  0.32283992E-04.
  Largest element of DIIS residual   : -0.20773826E-04.
   The total correlation energy is -0.430883348995 a.u.
  Convergence information after     9 iterations: 
  Largest element of residual vector :  0.25837415E-04.
  Largest element of DIIS residual   : -0.67613913E-05.
   The total correlation energy is -0.430883177091 a.u.
  Convergence information after    10 iterations: 
  Largest element of residual vector : -0.82574926E-05.
  Largest element of DIIS residual   : -0.33485581E-05.
   The total correlation energy is -0.430883440574 a.u.
  Convergence information after    11 iterations: 
  Largest element of residual vector :  0.29726190E-05.
  Largest element of DIIS residual   : -0.18091837E-05.
   The total correlation energy is -0.430883556085 a.u.
  Convergence information after    12 iterations: 
  Largest element of residual vector : -0.19240629E-05.
  Largest element of DIIS residual   : -0.10187653E-05.
   The total correlation energy is -0.430883705951 a.u.
  Convergence information after    13 iterations: 
  Largest element of residual vector : -0.69640910E-06.
  Largest element of DIIS residual   : -0.41939125E-06.
   The total correlation energy is -0.430883757720 a.u.
  Convergence information after    14 iterations: 
  Largest element of residual vector : -0.28640307E-06.
  Largest element of DIIS residual   : -0.20502019E-06.
   The total correlation energy is -0.430883781097 a.u.
  Convergence information after    15 iterations: 
  Largest element of residual vector :  0.13593351E-06.
  Largest element of DIIS residual   :  0.10250359E-06.
   The total correlation energy is -0.430883785112 a.u.
  Convergence information after    16 iterations: 
  Largest element of residual vector : -0.10375866E-06.
  Largest element of DIIS residual   :  0.37800703E-07.
   The total correlation energy is -0.430883786254 a.u.
  Convergence information after    17 iterations: 
  Largest element of residual vector :  0.45449630E-07.
  Largest element of DIIS residual   : -0.22980826E-07.
  Amplitude equations converged in    17iterations.
   The total correlation energy is -0.430883787569 a.u.
   The CC iterations have converged.

   Largest T1 amplitudes for spin case AA:
   i       a                 i       a                 i       a    
-----------------------------------------------------------------------------
[  5      11    ]-0.02769 [  4      14    ] 0.02432 [  5      17    ]-0.01560
[  4      18    ]-0.01481 [  4      22    ]-0.00980 [  4      28    ]-0.00946
[  8      89    ]-0.00790 [  8      90    ] 0.00618 [  3      12    ] 0.00554
[  5      31    ]-0.00493 [  9     121    ]-0.00447 [  8      97    ]-0.00433
[  7      56    ] 0.00397 [  4      30    ]-0.00395 [  3      16    ]-0.00379
-----------------------------------------------------------------------------
   Norm of T1AA vector (      327 symmetry allowed elements):  0.0494008311.
-----------------------------------------------------------------------------
   Largest T2 amplitudes for spin case AB:
       _       _                 _       _                 _       _
   i   j   a   b             i   j   a   b             i   j   a   b
-----------------------------------------------------------------------------
[  5   5  11  11]-0.14997 [  4   4  50  50]-0.11612 [  5   5  17  11] 0.08568
[  5   5  11  17] 0.08568 [  5   5  17  17]-0.06427 [  5   5  88  88]-0.05420
[  5   5  53  53]-0.05420 [  5   5  13  13]-0.05418 [  4   4  54  50]-0.05153
[  4   4  50  54]-0.05153 [  4   4  54  54]-0.02943 [  4   4  15  15]-0.02627
[  4   4  14  14]-0.02556 [  4   3  50  57] 0.02554 [  3   4  57  50] 0.02554
-----------------------------------------------------------------------------
   Norm of T2AB vector (   345906 symmetry allowed elements):  0.4178222401.
-----------------------------------------------------------------------------
       Summary of iterative solution of CC equations 
      -----------------------------------------------------------
                       Correlation           Total
       Iteration         Energy              Energy
      -----------------------------------------------------------
            0        -0.395132621636     -78.942001460748  DIIS 
            1        -0.415032567424     -78.961901406536  DIIS 
            2        -0.426191894951     -78.973060734064  DIIS 
            3        -0.429094048936     -78.975962888049  DIIS 
            4        -0.430716653151     -78.977585492264  DIIS 
            5        -0.430889891395     -78.977758730508  DIIS 
            6        -0.430895014247     -78.977763853360  DIIS 
            7        -0.430885519818     -78.977754358930  DIIS 
            8        -0.430883147999     -78.977751987111  DIIS 
            9        -0.430883348995     -78.977752188108  DIIS 
           10        -0.430883177091     -78.977752016203  DIIS 
           11        -0.430883440574     -78.977752279687  DIIS 
           12        -0.430883556085     -78.977752395198  DIIS 
           13        -0.430883705951     -78.977752545063  DIIS 
           14        -0.430883757720     -78.977752596832  DIIS 
           15        -0.430883781097     -78.977752620209  DIIS 
           16        -0.430883785112     -78.977752624224  DIIS 
           17        -0.430883787569     -78.977752626682  DIIS 
      -----------------------------------------------------------
      A miracle has come to pass. The CC iterations have converged.
        E(CCSD)           =     -78.977752626682
        E(CCSD + T(CCSD)) =     -78.993554180771
        E(CCSD(T))        =     -78.993133858553
 @CHECKOUT-I, Total execution time (CPU/WALL):      208.61/      17.40 seconds.
--executable xvcc finished with status     0 in       17.43 seconds (walltime).
  The final electronic energy is       -78.993133858553080 a.u. 
  This computation required                           27.29 seconds (walltime).
