CFour on node01
 --invoking executable--
/home/tsommerfeld/zscale/bin/xjoda


   *************************************************************************
         <<<     CCCCCC     CCCCCC   |||     CCCCCC     CCCCCC   >>>
       <<<      CCC        CCC       |||    CCC        CCC         >>>
      <<<      CCC        CCC        |||   CCC        CCC            >>>
    <<<        CCC        CCC        |||   CCC        CCC              >>>
      <<<      CCC        CCC        |||   CCC        CCC            >>>
       <<<      CCC        CCC       |||    CCC        CCC         >>>
         <<<     CCCCCC     CCCCCC   |||     CCCCCC     CCCCCC   >>>
   *************************************************************************

     ****************************************************************
     * CFOUR Coupled-Cluster techniques for Computational Chemistry *
     ****************************************************************
 

   Department of Chemistry                Institut fuer Physikalische Chemie
   University of Florida                  Universitaet Mainz
   Gainesville, FL 32611, USA             D-55099 Mainz, Germany

   Department of Chemistry                Department of Chemistry
   Johns Hopkins University               Southern Methodist University
   Baltimore, MD 21218, USA               Dallas, TX 75275, USA

   Institute of Nanotechnology            Department of Physical Chemistry
   Karlsruhe Inst. of Technology          Eotvos Lorand University
   D-76021 Karlsruhe, Germany             H-1053 Budapest, Hungary

 
                       Version 2.1
 
                     node01                                            
                     Tue May  3 11:32:36 CDT 2022                      
                     integer*8 version is running
 
********************************************************************************
*                          Input from ZMAT file                                *
********************************************************************************
h_ethylene                                                                      
C       0.000000      0.0   -0.664500                                           
C       0.000000      0.0    0.664500                                           
H       0.962348      0.0   -1.159080                                           
H       0.962348      0.0    1.159080                                           
H      -0.962348      0.0   -1.159080                                           
H      -0.962348      0.0    1.159080                                           
H      0.000000      8.133333333333333      0.000000                            
                                                                                
*CFOUR(CALC=CCSD(T)                                                             
#EXCITE=EOMEE                                                                   
#ESTATE_SYM=0/3/0/0                                                             
CC_PROG=VCC                                                                     
CHARGE=-1                                                                       
COORDINATES=CARTESIAN                                                           
BASIS=SPECIAL                                                                   
REFERENCE=RHF                                                                   
MEM_SIZE=90,MEM_UNIT=GB)                                                        
                                                                                
C:cc-pVTZ                                                                       
C:cc-pVTZ                                                                       
H:cc-pVTZ                                                                       
H:cc-pVTZ                                                                       
H:cc-pVTZ                                                                       
H:cc-pVTZ                                                                       
H:aug-cc-pVTZ                                                                   
                                                                                
********************************************************************************
  @GTFLGS-W, Keyword #EXCITE not known and is ignored.
  @GTFLGS-W, Keyword #ESTATE_SYM not known and is ignored.
    -------------------------------------------------------------------
                    CFOUR Control Parameters 
    -------------------------------------------------------------------
        External           Internal           Value            Units
          Name               Name
    -------------------------------------------------------------------
       ABCDTYPE             IABCDT         STANDARD    [  0]    ***   
       ANHARMONIC           IANHAR         OFF         [  0]    ***   
       ANH_ALGORIT          IANALG         STANDARD    [  0]    ***   
       ANH_DERIVAT          IANDER         SECOND      [  1]    ***   
       ANH_MODE             ANHMOD         VIBRATION   [  0]    ***   
       ANH_STEPSIZ          ICUBST             50000          x 10-6  
       ANH_SYMMETR          IANHSM         ABELIAN     [  0]    ***   
       AO_LADDERS           IAOLAD         SINGLEPASS  [  1]    ***   
       AV_SCF               IAVSCF         OFF         [  0]    ***   
       BASIS                IBASIS         SPECIAL     [  0]    ***   
       BOTHVECTORS          BOTHVC         OFF         [  0]    ***   
       BOX_POTENT           IPIAB          OFF         [  0]    ***   
       BREIT                IBREIT         OFF         [  0]    ***   
       BRUCK_CONV           IBRTOL          10D-  4             ***   
       BRUECKNER            IBRKNR         OFF         [  0]    ***   
       BUFFERSIZE           IBUFFS              4096            ***   
       CACHE_RECS           ICHREC             10               ***   
       CALCLEVEL            ICLLVL         CCSD(T)     [ 22]    ***   
       CCORBOPT             ICCORB         OFF         [  0]  x 0.01  
       CC_CONV              ICCCNV          10D-  7             ***   
       CC_EXPORDER          ICCEOR              5               ***   
       CC_EXTRAPOL          ICCEXT         DIIS        [  1]    ***   
       CC_GUESS             ICCGES         MP2         [  0]    ***   
       CC_MAXCYC            ICCCYC            100              cycles 
       CC_PROGRAM           ICCPRO         VCC         [  0]    ***   
       CHARGE               ICHRGE             -1               ***   
       CHOLESKY             ICHOLE         OFF         [  0]    ***   
       CIS_CONV             ICISTL              5               ***   
       COMM_SIZE            IPSIZE            ***               ***   
       CONSTANT             ICONST         OLD         [  1]    ***   
       CONTINUUM            ICONTU         NONE        [  0]    ***   
       CONTRACTION          ICNTYP         GENERAL     [  1]    ***   
       COORDINATES          ICOORD         CARTESIAN   [  1]    ***   
       CPHF_CONVER          ICPHFT          10D- 16             ***   
       CPHF_MAXCYC          ICPHFC             64              cycles 
       CUBIC                ICUBIC         OFF         [  0]    ***   
       CURVILINEAR          ICURVY         OFF         [  0]    ***   
       DBOC                 IDBOC          OFF         [  0]    ***   
       DCT                  IDCT           OFF         [  0]    ***   
       DERIV_LEV            IDRLVL         ZERO        [  0]    ***   
       DEVMEM_SIZE          IDVMEM         *********           MByte  
       DIAG_MRCC            IEOMST          10D-  0             ***   
       DIFF_TYPE            IDIFTY         RELAXED     [  0]    ***   
       DIRECT               IDIRCT         OFF         [  0]    ***   
       DROPMO               IDRPMO      NONE         
       ECP                  IECP           OFF         [  0]    ***   
       EIGENVECTOR          IVEC                1               ***   
       EL_ANHARM            IELANH         OFF         [  0]    ***   
       EOMFOLLOW            IEOMSR         ENERGY      [  0]    ***   
       EOMIP                IEOMIP         OFF         [  0]    ***   
       EOMLEVEL             HBARFM         SAME        [  0]    ***   
       EOM_MRCC             IMRCCE         NEW         [  1]    ***   
       EOM_NONIT            EOMNON         OFF         [  0]    ***   
       EOM_NSING            IEOMSI          10D-  0             ***   
       EOM_NSTATES          IMRCCD         DAVIDSON    [  0]    ***   
       EOM_NTRIP            IEOMTR          10D-  0             ***   
       EOM_ORDER            IEXORD         ENERGY      [  0]    ***   
       EOM_PROPSTA          IEOMST              0               ***   
       ESTATE_CONV          IEXTOL          10D-  5             ***   
       ESTATE_DIAG          IEXDIG         ITERATIVE   [  0]    ***   
       ESTATE_LOCK          IESLOC         ON          [  1]    ***   
       ESTATE_MAXC          IEXMXC             40               ***   
       ESTATE_PROP          IEXPRP         OFF         [  0]    ***   
       EVAL_HESS            IRECAL              0            # of cyc.
       EXCITATION           IEXCIT              0               ***   
       EXCITE               IEXCIT         NONE        [  0]    ***   
       EXTERN_POT           IEXPOT         OFF         [  0]    ***   
       FCGRADNEW            IFCGNW         OFF         [  0]    ***   
       FC_FIELD             IFINFC              0             x 10-6  
       FD_CALTYPE           IFDCAL         GRADONLY    [  0]    ***   
       FD_PROJECT           IFDPRJ         OFF         [  1]    ***   
       FD_STEPSIZE          IDISFD              0            10-4 bohr
       FD_USEGROUP          IFDGRP         FULL        [  0]    ***   
       FILE_RECSIZ          IFLREC              4096           words  
       FINITE_PERT          IFIPER              0             x 10-6  
       FIXGEOM              IFIXGM         OFF         [  0]    ***   
       FOCK                 IFOCK          AO          [  1]    ***   
       FREQ_ALGORI          IVIALG         STANDARD    [  0]    ***   
       FROZEN_CORE          IFROCO         OFF         [  0]    ***   
       GAMMA_ABCD           IGABCD         STORE       [  0]    ***   
       GAMMA_ABCI           IGABCI         STORE       [  0]    ***   
       GENBAS_1             IGNBS1              0               ***   
       GENBAS_2             IGNBS2              0               ***   
       GENBAS_3             IGNBS3              0               ***   
       GENBAS_4             IGNBS4              0               ***   
       GEO_CONV             ICONTL              5              H/bohr 
       GEO_MAXCYC           IOPTCY             50               ***   
       GEO_MAXSTEP          IMXSTP            300            millibohr
       GEO_METHOD           INR            SINGLE_POINT[  5]    ***   
       GIAO                 IGIAO          OFF         [  1]    ***   
       GIMIC                IGIMIC         OFF         [  0]    ***   
       GRID                 IGRID          OFF         [  0]    ***   
       GRID_ALGO            IGALGO         SERIAL      [  0]    ***   
       GUESS                IGUESS         MOREAD      [  0]    ***   
       HBAR                 IHBAR          OFF         [  0]    ***   
       HESS_TYPE            IHESTP         SCF         [  0]    ***   
       HF2_FILE             IHF2Fl         USE         [  1]    ***   
       HFSTABILITY          ISTABL         OFF         [  0]    ***   
       INCORE               INCORE         OFF         [  0]    ***   
       INPUT_MRCC           IMRCC          ON          [  1]    ***   
       INTEGRALS            INTTYP         VMOL        [  1]    ***   
       JODA_PRINT           IJPRNT              0               ***   
       KEYWORD_OUT          IDMPKW         NO          [  0]    ***   
       LINDEP_TOL           ILINDP              8               ***   
       LINEQ_CONV           IZTACN          10D-  7           cycles  
       LINEQ_EXPOR          ILMAXD              5               ***   
       LINEQ_MAXCY          ILMAXC            100               ***   
       LINEQ_TYPE           ILTYPE         DIIS        [  1]    ***   
       LOCK_ORBOCC          ILOCOC         OFF         [  0]    ***   
       MEMORY_SIZE          IMEMSZ         *********           words  
       MEM_UNIT             IMEMU          GB          [  3]    ***   
       MRCC                 IMRCCC         OFF         [  0]    ***   
       MULTIPLICTY          IMULTP              1               ***   
       NACOUPLING           IVCOUP         OFF         [  0]    ***   
       NEGEVAL              IDIE           ABORT       [  0]    ***   
       NEWNORM              INEWNO         OFF         [  0]    ***   
       NON-HF               INONHF         OFF         [  0]    ***   
       NTOP_TAMP            ITOPT2             15               ***   
       NUC_MODEL            INUCMO         POINT       [  0]    ***   
       OCCUPATION           IOCCU   ESTIMATED BY SCF 
       OPEN-SHELL           IOPEN          SPIN-ORBITAL[  0]    ***   
       OPTVIB               IOPTVB         OFF         [  0]    ***   
       ORBITALS             IORBTP         STANDARD    [  0]    ***   
       PARALLEL             IPARAL         ON          [  1]    ***   
       PARA_INT             IPINTS         ON          [  1]    ***   
       PARA_PRINT           IPPRIN              0               ***   
       PERT_ORB             IPTORB         STANDARD    [  0]    ***   
       POINTS               IGRDFD              0               ***   
       PRINT                IPRNT               0               ***   
       PROPS                IPROPS         OFF         [  0]    ***   
       PROP_INTEGR          IINTYP         INTERNAL    [  0]    ***   
       PSI                  IPSI           OFF         [  0]    ***   
       QC_ALG               IQCALG         FLM         [  0]    ***   
       QC_LINALG            IQCLIN         TRIDIAG     [  2]    ***   
       QC_MAXCYC            IQCMAX          10D-100           cycles  
       QC_MAXSCFCY          IQCMSC          10D- 15           cycles  
       QC_RTRUST            IQCRTR          10D-  0           x 10-3  
       QC_SKIPSCF           IQCSKI         OFF         [  0]    ***   
       QC_START             IQCSTA          10D-  1             ***   
       QRHFGUESS            IQGUES         OFF         [  0]    ***   
       QUARTIC              IQUART         OFF         [  0]    ***   
       RAMAN_INT            IRAMIN         OFF         [  0]    ***   
       RAMAN_ORB            IRAMRE         UNRELAXED   [  0]    ***   
       RDO                  IRDOFM         OFF         [  0]    ***   
       REDUCE_REPR          REDREP         Ir          [  0]    ***   
       REFERENCE            IREFNC         RHF         [  0]    ***   
       RELATIVIST           IRELAT         OFF         [  0]    ***   
       RELAX_DENS           IRDENS         OFF         [  0]    ***   
       RESET_FLAGS          IRESET         OFF         [  0]    ***   
       RESTART_CC           ICCRES         OFF         [  0]    ***   
       ROT_EVEC             ROTVEC              0               ***   
       SAVE_INTS            ISVINT         OFF         [  0]    ***   
       SCALE_ON             ISTCRT              0               ***   
       SCF_CONV             ISCFCV          10D-  7             ***   
       SCF_DAMPING          IDAMP               0             x 10-3  
       SCF_EXPORDE          IRPPOR              6               ***   
       SCF_EXPSTAR          IRPPLS              8               ***   
       SCF_EXTRAPO          IRPP           ON          [  1]    ***   
       SCF_MAXCYC           ISCFCY            150              cycles 
       SCF_NOSTOP           ISCFST         OFF         [  0]    ***   
       SCF_PRINT            ISCFPR              0               ***   
       SCF_PROG             ISCFPR         SCF         [  0]    ***   
       SD_FIELD             IFINSD              0             x 10-6  
       SOPERT               IPERSO         OFF         [  0]    ***   
       SPHERICAL            IDFGHI         ON          [  1]    ***   
       SPINORBIT            ISOCAL         OFF         [  0]    ***   
       SPINROTATIO          ISRCON         OFF         [  0]    ***   
       SPIN_FLIP            ISPFLP         OFF         [  0]    ***   
       SPIN_ORBIT           ISPORB         OFF         [  0]    ***   
       SPIN_SCAL            ISCSMP         OFF         [  0]    ***   
       STEEPSCALE           ISTPSC              1000          x 10-3  
       SUBGROUP             ISUBGP         DEFAULT     [  0]    ***   
       SUBGRPAXIS           ISBXYZ         X           [  0]    ***   
       SYMMETRY             ISYM           ON          [  0]    ***   
       SYM_CHECK            ISYMCK         OVERRIDE    [  1]    ***   
       T3_EXTRAPOL          IT3EXT         OFF         [  0]    ***   
       T4_EXTRAPOL          IT4EXP         OFF         [  0]    ***   
       TAMP_SUM             IEVERY              5               ***   
       TESTSUITE            ITESTS         OFF         [  0]    ***   
       THERMOCH             ITHERM         OFF         [  0]    ***   
       TOL_CHOLESK          ITOLCH          10D-  4             ***   
       TRANGRAD             IRESRM         OFF         [  0]    ***   
       TRANS_INV            ITRAIN         USE         [  0]    ***   
       TREAT_PERT           ITREAT         SIMULTANEOUS[  0]    ***   
       TRIP_ALGORI          ITRALG         NORMAL      [  0]    ***   
       UIJ_THRESHO          IUIJTH              1               ***   
       UNITS                IUNITS         ANGSTROM    [  0]    ***   
       UNOS                 IUNOS          OFF         [  0]    ***   
       UPDATE_HESS          IHUPDT         ON          [  1]    ***   
       VIBPHASE             ISETPH         STANDARD    [  0]    ***   
       VIBRATION            IVIB           NO          [  0]    ***   
       VIB_ALGORIT          IGEALG         STANDARD    [  0]    ***   
       VNATORB              IVNORB         OFF         [  0]    ***   
       VTRAN                IVTRAN         FULL/PARTIAL[  0]    ***   
       XFIELD               IXEFLD              0             x 10-6  
       XFORM_TOL            IXFTOL          10D- 11             ***   
       YFIELD               IYEFLD              0             x 10-6  
       ZFIELD               IZEFLD              0             x 10-6  
       ZSCALE_EXP           IZEXPS         OFF         [  0]    ***   
    -------------------------------------------------------------------
  @GETXYZ-I,     7 atoms read from ZMAT.
   Rotational constants (in cm-1): 
          0.2097546865             0.2475844915             0.8536890782
   Rotational constants (in MHz): 
       6288.2881845881          7422.3973669647         25592.9582983935
********************************************************************************
   The full molecular point group is C2v .
   The largest Abelian subgroup of the full molecular point group is C2v .
   The computational point group is C2v .
********************************************************************************


 ----------------------------------------------------------------
         Coordinates used in calculation (QCOMP) 
 ----------------------------------------------------------------
 Z-matrix   Atomic            Coordinates (in bohr)
  Symbol    Number           X              Y              Z
 ----------------------------------------------------------------
     C         6        -1.25572327     0.00000000    -0.53341981
     C         6         1.25572327     0.00000000    -0.53341981
     H         1        -2.19034422     1.81857454    -0.53341981
     H         1         2.19034422     1.81857454    -0.53341981
     H         1        -2.19034422    -1.81857454    -0.53341981
     H         1         2.19034422    -1.81857454    -0.53341981
     H         1         0.00000000     0.00000000    14.83635589
 ----------------------------------------------------------------
 
   Interatomic distance matrix (Angstroms) 
 
                 C             C             H             H             H    
                [ 1]        [ 2]        [ 3]        [ 4]        [ 5]
  C    [ 1]     0.00000
  C    [ 2]     1.32900     0.00000
  H    [ 3]     1.08200     2.06193     0.00000
  H    [ 4]     2.06193     1.08200     2.31816     0.00000
  H    [ 5]     1.08200     2.06193     1.92470     3.01303     0.00000
  H    [ 6]     2.06193     1.08200     3.01303     1.92470     2.31816
  H    [ 7]     8.16043     8.16043     8.27168     8.27168     8.27168
 
                 H             H    
                [ 6]        [ 7]
  H    [ 6]     0.00000
  H    [ 7]     8.27168     0.00000
 rotcon2
   Rotational constants (in cm-1): 
          0.2475844915             0.2097546865             0.8536890782
   Rotational constants (in MHz): 
       7422.3973669647          6288.2881845881         25592.9582983935
  ECPDATA file not present.   Using default ECPDATA. 
  @GTFLGS-W, Keyword #EXCITE not known and is ignored.
  @GTFLGS-W, Keyword #ESTATE_SYM not known and is ignored.
  There are  139 basis functions.
 @GEOPT-W, Archive file not created for single-point calculation.
 @CHECKOUT-I, Total execution time (CPU/WALL):        0.15/       0.17 seconds.
--executable xjoda finished with status     0 in        0.19 seconds (walltime).
 --invoking executable--
/home/tsommerfeld/zscale/bin/xvmol
 SERIAL VERSION OF MOLECULE STARTED
********************************************************************************
                    INPUT FROM MOL FILE
********************************************************************************
INTGRL        1    0    1    0    0    0    0    0    0                         
         *** CFOUR Program System (Release V0.1) ***                            
h_ethylene                                                                      
    3    2 X  Y       0.10E-08              0    0                              
   9999.00      3.00                                                            
          6.00000000    1    4    1    1    1    1                              
C #1  -1.255723272983657   0.000000000000000  -0.533419813471916                
   10    4                                                                      
   8236.00000000000       5.310000000000000E-004  0.000000000000000E+000        
 -1.130000000000000E-004  0.000000000000000E+000                                
   1235.00000000000       4.108000000000000E-003  0.000000000000000E+000        
 -8.780000000000000E-004  0.000000000000000E+000                                
   280.800000000000       2.108700000000000E-002  0.000000000000000E+000        
 -4.540000000000000E-003  0.000000000000000E+000                                
   79.2700000000000       8.185300000000000E-002  0.000000000000000E+000        
 -1.813300000000000E-002  0.000000000000000E+000                                
   25.5900000000000       0.234817000000000       0.000000000000000E+000        
 -5.576000000000000E-002  0.000000000000000E+000                                
   8.99700000000000       0.434401000000000       0.000000000000000E+000        
 -0.126895000000000       0.000000000000000E+000                                
   3.31900000000000       0.346129000000000       0.000000000000000E+000        
 -0.170352000000000       0.000000000000000E+000                                
  0.905900000000000       3.937800000000000E-002   1.00000000000000             
  0.140382000000000       0.000000000000000E+000                                
  0.364300000000000      -8.983000000000000E-003  0.000000000000000E+000        
  0.598684000000000       0.000000000000000E+000                                
  0.128500000000000       2.385000000000000E-003  0.000000000000000E+000        
  0.395389000000000        1.00000000000000                                     
    5    3                                                                      
   18.7100000000000       0.000000000000000E+000  1.403100000000000E-002        
  0.000000000000000E+000                                                        
   4.13300000000000       0.000000000000000E+000  8.686600000000000E-002        
  0.000000000000000E+000                                                        
   1.20000000000000       0.000000000000000E+000  0.290216000000000             
  0.000000000000000E+000                                                        
  0.382700000000000        1.00000000000000       0.501008000000000             
  0.000000000000000E+000                                                        
  0.120900000000000       0.000000000000000E+000  0.343406000000000             
   1.00000000000000                                                             
    2    2                                                                      
   1.09700000000000        1.00000000000000       0.000000000000000E+000        
  0.318000000000000       0.000000000000000E+000   1.00000000000000             
    1    1                                                                      
  0.761000000000000        1.00000000000000                                     
          1.00000000    1    3    1    1    1                                   
H #2  -2.190344215575466   1.818574537711477  -0.533419813471916                
    5    3                                                                      
   33.8700000000000       0.000000000000000E+000  6.068000000000000E-003        
  0.000000000000000E+000                                                        
   5.09500000000000       0.000000000000000E+000  4.530800000000000E-002        
  0.000000000000000E+000                                                        
   1.15900000000000       0.000000000000000E+000  0.202822000000000             
  0.000000000000000E+000                                                        
  0.325800000000000        1.00000000000000       0.503903000000000             
  0.000000000000000E+000                                                        
  0.102700000000000       0.000000000000000E+000  0.383421000000000             
   1.00000000000000                                                             
    2    2                                                                      
   1.40700000000000        1.00000000000000       0.000000000000000E+000        
  0.388000000000000       0.000000000000000E+000   1.00000000000000             
    1    1                                                                      
   1.05700000000000        1.00000000000000                                     
          1.00000000    1    3    1    1    1                                   
H #3   0.000000000000000   0.000000000000000  14.836355887958350                
    6    4                                                                      
   33.8700000000000       0.000000000000000E+000  6.068000000000000E-003        
  0.000000000000000E+000  0.000000000000000E+000                                
   5.09500000000000       0.000000000000000E+000  4.530800000000000E-002        
  0.000000000000000E+000  0.000000000000000E+000                                
   1.15900000000000       0.000000000000000E+000  0.202822000000000             
  0.000000000000000E+000  0.000000000000000E+000                                
  0.325800000000000        1.00000000000000       0.503903000000000             
  0.000000000000000E+000  0.000000000000000E+000                                
  0.102700000000000       0.000000000000000E+000  0.383421000000000             
   1.00000000000000       0.000000000000000E+000                                
  2.526000000000000E-002  0.000000000000000E+000  0.000000000000000E+000        
  0.000000000000000E+000   1.00000000000000                                     
    3    3                                                                      
   1.40700000000000        1.00000000000000       0.000000000000000E+000        
  0.000000000000000E+000                                                        
  0.388000000000000       0.000000000000000E+000   1.00000000000000             
  0.000000000000000E+000                                                        
  0.102000000000000       0.000000000000000E+000  0.000000000000000E+000        
   1.00000000000000                                                             
    2    2                                                                      
   1.05700000000000        1.00000000000000       0.000000000000000E+000        
  0.247000000000000       0.000000000000000E+000   1.00000000000000             
FINISH                                                                          
 
********************************************************************************
 ONE- AND TWO-ELECTRON INTEGRALS OVER SYMMETRY-ADAPTED AOS ARE CALCULATED.

  SPHERICAL HARMONICS ARE USED.
  
  INTEGRALS LESS THAN  0.10E-13 ARE NEGLECTED.

  NUCLEAR REPULSION ENERGY :   34.6232740564 A.U.
  @MOLECU-I, ONE ELECTRON INTEGRALS (CPU/WALL):        0.04/       0.04 SECONDS.
  @TWOEL-I,     472305 INTEGRALS OF SYMMETRY TYPE  I I I I
  @TWOEL-I,    1927188 INTEGRALS OF SYMMETRY TYPE  I J I J
  @TWOEL-I,    1119516 INTEGRALS OF SYMMETRY TYPE  I I J J
  @TWOEL-I,    1674192 INTEGRALS OF SYMMETRY TYPE  I J K L
  @TWOEL-I, TOTAL NUMBER OF 2-E INTEGRALS    5193201.
  @MOLECU-I, TWO ELECTRON INTEGRALS (CPU/WALL):       34.36/       3.88 SECONDS.
 @CHECKOUT-I, Total execution time (CPU/WALL):       34.42/       3.93 seconds.

Running with 12 threads/proc

--executable xvmol finished with status     0 in        3.96 seconds (walltime).
 --invoking executable--
/home/tsommerfeld/zscale/bin/xvmol2ja
 @GETMEM-I,  Allocated   85830 MB of main memory.
 @CHECKOUT-I, Total execution time (CPU/WALL):        0.11/       0.02 seconds.
--executable xvmol2ja finished with status     0 in        0.04 seconds (walltime).
 --invoking executable--
/home/tsommerfeld/zscale/bin/xvscf
  There are  139 functions in the AO basis.

  There are 4 irreducible representations.

       Irrep        # of functions
         1                 45
         2                 39
         3                 29
         4                 26


  Parameters for SCF calculation: 
        SCF reference function:  RHF  
  Maximum number of iterations:  150
     Full symmetry point group: C2v 
     Computational point group: C2v 
        Initial density matrix: MOREAD                 
     SCF convergence tolerance: 10**(- 7)
  DIIS convergence acceleration:  ON
          Latest start for DIIS:   8
                     DIIS order:   6

  Memory information:     823082 words required.
  Fock matrices are constructed from AO integral file.
 @GETMEM-I,  Allocated       6 MB of main memory.
  Initialization and symmetry analysis required      0.001 seconds.

  @INITGES-I, Occupancies from core Hamiltonian:

          Alpha population by irrep:   4    3    1    1
           Beta population by irrep:   4    3    1    1


 total no. of electrons in initial guess :  0.000000000000000E+000
  --------------------------------------------------------------------
  Iteration         Total Energy            Largest Density Difference
  --------------------------------------------------------------------
       0            34.623274056370668              0.0000000000D+00
   current occupation vector 
     4  3  1  1
     4  3  1  1
       1           -51.701578826342562              0.8749656547D+01
   current occupation vector 
     4  3  1  1
     4  3  1  1
       2           -41.307882183850886              0.3161705708D+02
   current occupation vector 
     5  3  1  0
     5  3  1  0
       3           -67.983309197872927              0.3135556280D+02
   current occupation vector 
     4  3  1  1
     4  3  1  1
       4           -43.388892769860810              0.1243517006D+02
   current occupation vector 
     6  2  1  0
     6  2  1  0
       5           -68.643594818716053              0.1243517003D+02
   current occupation vector 
     4  3  1  1
     4  3  1  1
       6           -43.667084907640962              0.1243504933D+02
   current occupation vector 
     6  2  1  0
     6  2  1  0
       7           -68.735811256832108              0.1243504933D+02
   current occupation vector 
     4  3  1  1
     4  3  1  1
       8           -43.704461151595886              0.1243503134D+02
   current occupation vector 
     6  2  1  0
     6  2  1  0
       9           -73.531378098359880              0.1243503156D+02
   current occupation vector 
     4  3  1  1
     4  3  1  1
      10           -75.784771813658153              0.9196541934D+00
   current occupation vector 
     4  3  1  1
     4  3  1  1
      11           -77.550700851405338              0.8952684142D+00
   current occupation vector 
     4  3  1  1
     4  3  1  1
      12           -76.533371066808996              0.2801059895D+01
   current occupation vector 
     5  2  1  1
     5  2  1  1
      13           -78.376409214907397              0.2786257795D+01
   current occupation vector 
     5  2  1  1
     5  2  1  1
      14           -78.420209851447055              0.2654632722D+00
   current occupation vector 
     5  2  1  1
     5  2  1  1
      15           -78.475557560636844              0.2349034860D+00
   current occupation vector 
     5  2  1  1
     5  2  1  1
      16           -78.544952155609167              0.3869298537D+00
   current occupation vector 
     5  2  1  1
     5  2  1  1
      17           -78.546641523971942              0.7474751969D-01
   current occupation vector 
     5  2  1  1
     5  2  1  1
      18           -78.546717411384776              0.2298252245D-01
   current occupation vector 
     5  2  1  1
     5  2  1  1
      19           -78.546717459671981              0.2724140641D-03
   current occupation vector 
     5  2  1  1
     5  2  1  1
      20           -78.546717462254776              0.7086666057D-04
   current occupation vector 
     5  2  1  1
     5  2  1  1
      21           -78.546717462457224              0.1536297752D-04
   current occupation vector 
     5  2  1  1
     5  2  1  1
      22           -78.546717462463334              0.2093727650D-05
   current occupation vector 
     5  2  1  1
     5  2  1  1
      23           -78.546717462463874              0.7250395630D-06
   current occupation vector 
     5  2  1  1
     5  2  1  1
      24           -78.546717462463675              0.2307421676D-06
   current occupation vector 
     5  2  1  1
     5  2  1  1

  SCF has converged.

 Density matrix saved to file den.dat
 total electron number:   18.0000000000000     
     E(SCF)=       -78.546717462463221              0.1696434514D-07


  Final occupancies:

     Alpha population by irrep:   5    2    1    1
      Beta population by irrep:   5    2    1    1


  Eigenvector printing suppressed.

 @PUTMOS-I, Writing converged MOs to NEWMOS. 
 @PUTMOS-I, Symmetry   1 Full Blocks 11 Partial Blocksize   1
 @PUTMOS-I, Symmetry   2 Full Blocks  9 Partial Blocksize   3
 @PUTMOS-I, Symmetry   3 Full Blocks  7 Partial Blocksize   1
 @PUTMOS-I, Symmetry   4 Full Blocks  6 Partial Blocksize   2
 @PUTFOCK-I, Writing converged Fock matrix to NEWFOCK. 
 @PUTFOCK-I, Symmetry   1 Full Blocks 11 Partial Blocksize   1
 @PUTFOCK-I, Symmetry   2 Full Blocks  9 Partial Blocksize   3
 @PUTFOCK-I, Symmetry   3 Full Blocks  7 Partial Blocksize   1
 @PUTFOCK-I, Symmetry   4 Full Blocks  6 Partial Blocksize   2


 
  ORBITAL EIGENVALUES (ALPHA)  (1H = 27.2113834 eV)

       MO #        E(hartree)               E(eV)           FULLSYM    COMPSYM
       ----   --------------------   --------------------   -------   ---------
    1     1         -11.1616682668        -303.7244345919      A1        A1 (1)
    2    46         -11.1599042347        -303.6764328388      B1        B1 (2)
    3     2          -0.9733560171         -26.4863637647      A1        A1 (1)
    4    47          -0.7154916707         -19.4695181718      B1        B1 (2)
    5    85          -0.5947880541         -16.1850057828      B2        B2 (3)
    6     3          -0.5018381199         -13.6557094858      A1        A1 (1)
    7   114          -0.4504053072         -12.2561515006      A2        A2 (4)
    8     4          -0.3118520668          -8.4859261545      A1        A1 (1)
    9     5          -0.0452878550          -1.2323451848      A1        A1 (1)
  +++++++++++++++++++++++++++++++++++++++++++++++++++++++++++++++++++++++++++++
   10    48           0.2195615281           5.9745729223      B1        B1 (2)
   11     6           0.2207268773           6.0062836859      A1        A1 (1)
   12     7           0.2428466851           6.6081942546      A1        A1 (1)
   13    86           0.2482462747           6.7551245593      B2        B2 (3)
   14    49           0.2557667315           6.9597665929      B1        B1 (2)
   15   115           0.3022556367           8.2247940143      A2        A2 (4)
   16    50           0.4186418290          11.3918233169      B1        B1 (2)
   17     8           0.4242189392          11.5435841988      A1        A1 (1)
   18    87           0.4496334311          12.2351476836      E         B2 (3)
   19    51           0.4496390591          12.2353008293      E         B1 (2)
   20     9           0.4497456892          12.2382023825      A1        A1 (1)
   21    10           0.5117334791          13.9249758997      A1        A1 (1)
   22    88           0.5359866986          14.5849395526      B2        B2 (3)
   23    11           0.5452588438          14.8372474498      A1        A1 (1)
   24    52           0.6299904454          17.1429115491      B1        B1 (2)
   25    53           0.6544248208          17.8078047040      B1        B1 (2)
   26    89           0.6607822869          17.9808001527      B2        B2 (3)
   27    12           0.6896887384          18.7673846881      A1        A1 (1)
   28    54           0.7033966612          19.1403962308      B1        B1 (2)
   29    90           0.7320521719          19.9201523190      B2        B2 (3)
   30   116           0.7578029368          20.6208662538      A2        A2 (4)
   31    13           0.7833928679          21.3172036818      A1        A1 (1)
   32    55           0.8493535528          23.1120851687      B1        B1 (2)
   33   117           0.8929604316          24.2986886665      A2        A2 (4)
   34    14           0.9610336766          26.1510558339      A1        A1 (1)
   35   118           0.9685918824          26.3567250691      A2        A2 (4)
   36    15           1.0504658018          28.5846276801      A1        A1 (1)
   37   119           1.0857172279          29.5438677522      A2        A2 (4)
   38    91           1.1018093920          29.9817578000      B2        B2 (3)
   39    16           1.1023496419          29.9964587460      E         A1 (1)
   40   120           1.1023496441          29.9964588062      E         A2 (4)
   41    92           1.1023865746          29.9974637352      E         B2 (3)
   42    56           1.1023889000          29.9975270143      E         B1 (2)
   43    17           1.1024060488          29.9979936567      A1        A1 (1)
   44    18           1.2467343548          33.9253665260      A1        A1 (1)
   45    57           1.2471924782          33.9378326966      B1        B1 (2)
   46    19           1.2936048985          35.2007788609      A1        A1 (1)
   47    93           1.3189604788          35.8907392785      B2        B2 (3)
   48    94           1.3386430463          36.4263291688      E         B2 (3)
   49    58           1.3386452138          36.4263881505      E         B1 (2)
   50    20           1.3386864272          36.4275096231      A1        A1 (1)
   51    59           1.3860722472          37.7169433373      B1        B1 (2)
   52    95           1.4096007849          38.3571873996      B2        B2 (3)
   53    60           1.4288295747          38.8804293713      B1        B1 (2)
   54    96           1.5278965776          41.5761795695      B2        B2 (3)
   55    61           1.5424854478          41.9731629080      B1        B1 (2)
   56    21           1.5717266192          42.7688556358      A1        A1 (1)
   57    62           1.5974285545          43.4682408496      B1        B1 (2)
   58   121           1.6615992043          45.2144130067      A2        A2 (4)
   59   122           1.7007335009          46.2793113538      A2        A2 (4)
   60    63           1.8644425005          50.7340597084      B1        B1 (2)
   61    22           1.9164578192          52.1494684894      A1        A1 (1)
   62   123           2.0348194372          55.3702518557      A2        A2 (4)
   63    23           2.3509838349          63.9735224991      A1        A1 (1)
   64    24           2.4292856190          66.1042223673      A1        A1 (1)
   65    25           2.6126253349          71.0931496674      A1        A1 (1)
   66    64           2.6293252518          71.5475775093      B1        B1 (2)
   67    97           2.6884735788          73.1570853130      B2        B2 (3)
   68    98           2.7734907415          75.4705199230      B2        B2 (3)
   69    65           2.8057676734          76.3488198924      B1        B1 (2)
   70    26           2.8263967258          76.9101649464      A1        A1 (1)
   71   124           2.9062466640          79.0829922284      A2        A2 (4)
   72    27           2.9770262188          81.0090018305      A1        A1 (1)
   73    99           2.9806687844          81.1081210809      B2        B2 (3)
   74   125           3.1293335526          85.1534950864      A2        A2 (4)
   75    28           3.1613348269          86.0242940312      A1        A1 (1)
   76   100           3.1715530502          86.3023460220      B2        B2 (3)
   77    29           3.1736494267          86.3593913259      A1        A1 (1)
   78   101           3.1856704286          86.6864994196      B2        B2 (3)
   79   126           3.2178768323          87.5628802177      A2        A2 (4)
   80    30           3.2433905321          88.2571432844      A1        A1 (1)
   81    66           3.2936605420          89.6250597973      B1        B1 (2)
   82    67           3.3309681041          90.6402501749      B1        B1 (2)
   83   102           3.4026233764          92.5900892610      B2        B2 (3)
   84    68           3.4669299599          94.3399603586      B1        B1 (2)
   85    69           3.4906851334          94.9863714938      B1        B1 (2)
   86   127           3.4913421854          95.0042507880      A2        A2 (4)
   87   128           3.5123132287          95.5749018882      A2        A2 (4)
   88    70           3.5183476454          95.7391067123      B1        B1 (2)
   89    31           3.6153284567          98.3780887511      A1        A1 (1)
   90    32           3.6409864410          99.0762779996      A1        A1 (1)
   91   103           3.7065570710         100.8605455536      B2        B2 (3)
   92   104           3.7873794779         103.0598350539      B2        B2 (3)
   93   129           3.8808032156         105.6020242007      A2        A2 (4)
   94    71           3.9410573182         107.2416216880      B1        B1 (2)
   95   130           3.9768532433         108.2156783289      A2        A2 (4)
   96    72           4.0333081104         109.7518933631      B1        B1 (2)
   97   131           4.0418776445         109.9850822410      A2        A2 (4)
   98    33           4.0718062104         110.7994799209      A1        A1 (1)
   99   105           4.0765480623         110.9285122728      B2        B2 (3)
  100    34           4.1220015842         112.1653654830      A1        A1 (1)
  101    35           4.2164339137         114.7349998077                A1 (1)
  102   132           4.2164339161         114.7349998711                A2 (4)
  103   106           4.2164428709         114.7352435452                B2 (3)
  104    73           4.2164434040         114.7352580515                B1 (2)
  105    36           4.2164471231         114.7353592517      A1        A1 (1)
  106    74           4.2494304151         115.6328802560      B1        B1 (2)
  107   133           4.2563346496         115.8207540277      A2        A2 (4)
  108    37           4.2575783417         115.8545966102      A1        A1 (1)
  109   107           4.2671073240         116.1138934010      B2        B2 (3)
  110    38           4.3944173282         119.5781747371      A1        A1 (1)
  111    75           4.4152452823         120.1449321816      B1        B1 (2)
  112   108           4.4445145168         120.9413885439      E         B2 (3)
  113    76           4.4445151442         120.9414056157      E         B1 (2)
  114    39           4.4445270742         120.9417302468      A1        A1 (1)
  115   109           4.5346701087         123.3946469204      B2        B2 (3)
  116    77           4.5707809109         124.3772718036      B1        B1 (2)
  117   134           4.6714468503         127.1165312756      A2        A2 (4)
  118    40           4.7063785947         128.0670723666      A1        A1 (1)
  119    78           4.8228047588         131.2351893546      B1        B1 (2)
  120    79           4.8785693841         132.7526219552      B1        B1 (2)
  121    41           4.9931254251         135.8698503074      A1        A1 (1)
  122    42           5.0390150245         137.1185697891      A1        A1 (1)
  123   135           5.0928580840         138.5837139261      A2        A2 (4)
  124   110           5.1921869747         141.2865904523      B2        B2 (3)
  125   111           5.2817071525         143.7225583324      B2        B2 (3)
  126    43           5.3642020425         145.9673584140      A1        A1 (1)
  127    80           5.3694530156         146.1102446560      B1        B1 (2)
  128   136           5.4917805839         149.4389470175      A2        A2 (4)
  129   137           5.5072377757         149.8595585900      A2        A2 (4)
  130    81           5.6024613535         152.4507238739      B1        B1 (2)
  131    44           5.6277573937         153.1390641224      A1        A1 (1)
  132   112           5.6823795581         154.6254087795      B2        B2 (3)
  133    82           6.0219227967         163.8648500259      B1        B1 (2)
  134   138           6.1577487535         167.5608622114      A2        A2 (4)
  135   113           6.3355276619         172.3984722501      B2        B2 (3)
  136    83           6.5748403387         178.9105012490      B1        B1 (2)
  137   139           6.9383104334         188.8010253508      A2        A2 (4)
  138    45          11.9619705163         325.5017659385      A1        A1 (1)
  139    84          14.8142243067         403.1155373842      B1        B1 (2)


  VSCF finished.

 @CHECKOUT-I, Total execution time (CPU/WALL):       16.08/       1.35 seconds.
--executable xvscf finished with status     0 in        1.37 seconds (walltime).
 --invoking executable--
/home/tsommerfeld/zscale/bin/xvtran
 @GETMEM-I,  Allocated   85830 MB of main memory.
  Full RHF integral transformation
  Transformation of IIII integrals :
  1 pass through the AO integral file was required.
      472305 AO integrals were read.
      997271 MO integrals were written to HF2.
  Transformation of IIJJ integrals :
  1 pass through the AO integral file was required.
     1119516 AO integrals were read.
     2386511 MO integrals were written to HF2.
  Transformation of IJIJ integrals :
  1 pass through the AO integral file was required.
     1927188 AO integrals were read.
     4517282 MO integrals were written to HF2.
  Transformation of IJKL integrals :
  1 pass through the AO integral file was required.
     1674192 AO integrals were read.
     3969611 MO integrals were written to HF2.
  Summary of active molecular orbitals: 
------------------------------------------------------------------------
 
  Index      Eigenvalue    Symmetry    Index      Eigenvalue    Symmetry
------------------------------------------------------------------------
     1       -11.1616683        1        71         3.4906851        2
     2        -0.9733560        1        72         3.5183476        2
     3        -0.5018381        1        73         3.9410573        2
     4        -0.3118521        1        74         4.0333081        2
     5        -0.0452879        1        75         4.2164434        2
     6       -11.1599042        2        76         4.2494304        2
     7        -0.7154917        2        77         4.4152453        2
     8        -0.5947881        3        78         4.4445151        2
     9        -0.4504053        4        79         4.5707809        2
    10         0.2207269        1        80         4.8228048        2
    11         0.2428467        1        81         4.8785694        2
    12         0.4242189        1        82         5.3694530        2
    13         0.4497457        1        83         5.6024614        2
    14         0.5117335        1        84         6.0219228        2
    15         0.5452588        1        85         6.5748403        2
    16         0.6896887        1        86        14.8142243        2
    17         0.7833929        1        87         0.2482463        3
    18         0.9610337        1        88         0.4496334        3
    19         1.0504658        1        89         0.5359867        3
    20         1.1023496        1        90         0.6607823        3
    21         1.1024060        1        91         0.7320522        3
    22         1.2467344        1        92         1.1018094        3
    23         1.2936049        1        93         1.1023866        3
    24         1.3386864        1        94         1.3189605        3
    25         1.5717266        1        95         1.3386430        3
    26         1.9164578        1        96         1.4096008        3
    27         2.3509838        1        97         1.5278966        3
    28         2.4292856        1        98         2.6884736        3
    29         2.6126253        1        99         2.7734907        3
    30         2.8263967        1       100         2.9806688        3
    31         2.9770262        1       101         3.1715531        3
    32         3.1613348        1       102         3.1856704        3
    33         3.1736494        1       103         3.4026234        3
    34         3.2433905        1       104         3.7065571        3
    35         3.6153285        1       105         3.7873795        3
    36         3.6409864        1       106         4.0765481        3
    37         4.0718062        1       107         4.2164429        3
    38         4.1220016        1       108         4.2671073        3
    39         4.2164339        1       109         4.4445145        3
    40         4.2164471        1       110         4.5346701        3
    41         4.2575783        1       111         5.1921870        3
    42         4.3944173        1       112         5.2817072        3
    43         4.4445271        1       113         5.6823796        3
    44         4.7063786        1       114         6.3355277        3
    45         4.9931254        1       115         0.3022556        4
    46         5.0390150        1       116         0.7578029        4
    47         5.3642020        1       117         0.8929604        4
    48         5.6277574        1       118         0.9685919        4
    49        11.9619705        1       119         1.0857172        4
    50         0.2195615        2       120         1.1023496        4
    51         0.2557667        2       121         1.6615992        4
    52         0.4186418        2       122         1.7007335        4
    53         0.4496391        2       123         2.0348194        4
    54         0.6299904        2       124         2.9062467        4
    55         0.6544248        2       125         3.1293336        4
    56         0.7033967        2       126         3.2178768        4
    57         0.8493536        2       127         3.4913422        4
    58         1.1023889        2       128         3.5123132        4
    59         1.2471925        2       129         3.8808032        4
    60         1.3386452        2       130         3.9768532        4
    61         1.3860722        2       131         4.0418776        4
    62         1.4288296        2       132         4.2164339        4
    63         1.5424854        2       133         4.2563346        4
    64         1.5974286        2       134         4.6714469        4
    65         1.8644425        2       135         5.0928581        4
    66         2.6293253        2       136         5.4917806        4
    67         2.8057677        2       137         5.5072378        4
    68         3.2936605        2       138         6.1577488        4
    69         3.3309681        2       139         6.9383104        4
    70         3.4669300        2
------------------------------------------------------------------------
  -11.1616682668130      -0.973356017051160      -0.501838119917281     
 -0.311852066826701      -4.528785496620410E-002  -11.1599042347402     
 -0.715491670731716      -0.594788054134963      -0.450405307234524     
  0.220726877338293       0.242846685062192       0.424218939150046     
  0.449745689243219       0.511733479148681       0.545258843758934     
  0.689688738430492       0.783392867919656       0.961033676585889     
   1.05046580175282        1.10234964187851        1.10240604881326     
   1.24673435478623        1.29360489849075        1.33868642720796     
   1.57172661922816        1.91645781924436        2.35098383491619     
   2.42928561902072        2.61262533485798        2.82639672580378     
   2.97702621875832        3.16133482692328        3.17364942665338     
   3.24339053208181        3.61532845666093        3.64098644097512     
   4.07180621037069        4.12200158419899        4.21643391374586     
   4.21644712306965        4.25757834165225        4.39441732819424     
   4.44452707416414        4.70637859472486        4.99312542512559     
   5.03901502446568        5.36420204251657        5.62775739370868     
   11.9619705163000       0.219561528145258       0.255766731540132     
  0.418641829027296       0.449639059117166       0.629990445434559     
  0.654424820754765       0.703396661222716       0.849353552846222     
   1.10238890001714        1.24719247815077        1.33864521384398     
   1.38607224715110        1.42882957473190        1.54248544776182     
   1.59742855446132        1.86444250050256        2.62932525177144     
   2.80576767340526        3.29366054198090        3.33096810413870     
   3.46692995985656        3.49068513340638        3.51834764535879     
   3.94105731823897        4.03330811042326        4.21644340402986     
   4.24943041506713        4.41524528229438        4.44451514419132     
   4.57078091088875        4.82280475878236        4.87856938413652     
   5.36945301560917        5.60246135350352        6.02192279668943     
   6.57484033865932        14.8142243067359       0.248246274728451     
  0.449633431116926       0.535986698589128       0.660782286898834     
  0.732052171921642        1.10180939202228        1.10238657455553     
   1.31896047881698        1.33864304630772        1.40960078492648     
   1.52789657763296        2.68847357878046        2.77349074148746     
   2.98066878440670        3.17155305018258        3.18567042863565     
   3.40262337639944        3.70655707102518        3.78737947787927     
   4.07654806233850        4.21644287093495        4.26710732395121     
   4.44451451681279        4.53467010869990        5.19218697467309     
   5.28170715247137        5.68237955809037        6.33552766193046     
  0.302255636670736       0.757802936757991       0.892960431644489     
  0.968591882363649        1.08571722789279        1.10234964409199     
   1.66159920434829        1.70073350088474        2.03481943721004     
   2.90624666397489        3.12933355260300        3.21787683230170     
   3.49134218541733        3.51231322874056        3.88080321563911     
   3.97685324329736        4.04187764452184        4.21643391607691     
   4.25633464955513        4.67144685027701        5.09285808402202     
   5.49178058391278        5.50723777571714        6.15774875346319     
   6.93831043337514     
 @CHECKOUT-I, Total execution time (CPU/WALL):       16.39/       1.91 seconds.
--executable xvtran finished with status     0 in        1.93 seconds (walltime).
 --invoking executable--
/home/tsommerfeld/zscale/bin/xintprc
 @GETMEM-I,  Allocated   85830 MB of main memory.
  @GMOIAA-I, Processing MO integrals for spin case AA.
  @GMOIAA-I, Generation of integral list completed.
                      TYPE                NUMBER
                      ----               --------
                      PPPP               9083994
                      PPPH               2501484
                      PPHH                173525
                      PHPH                 97627
                      PHHH                 13713
                      HHHH                   332

                     TOTAL              11870675

  @FORMT2-I, Second-order MP correlation energies:
            ------------------------------------------------
            E(SCF)                  =    -78.546717462463 a.u.
            E2(AA)                  =     -0.037952830133 a.u.
            E2(AB)                  =     -0.319255872014 a.u.
            E2(TOT)                 =     -0.395161532281 a.u.
            Total MP2 energy        =    -78.941878994744 a.u.
            ------------------------------------------------
   Largest T2 amplitudes for spin case AB:
       _       _                 _       _                 _       _
   i   j   a   b             i   j   a   b             i   j   a   b
-----------------------------------------------------------------------------
[  4   4  50  50]-0.08268 [  5   5  11  11]-0.08076 [  5   5  17  17]-0.04759
[  5   5  17  11] 0.04283 [  5   5  11  17] 0.04283 [  5   5  88  88]-0.04090
[  5   5  53  53]-0.04090 [  5   5  13  13]-0.04089 [  4   4  54  50]-0.03691
[  4   4  50  54]-0.03691 [  4   4  14  14]-0.03053 [  4   4  15  15]-0.02686
[  4   3  50  57] 0.02650 [  3   4  57  50] 0.02650 [  4   4  54  54]-0.02640
-----------------------------------------------------------------------------
   Norm of T2AB vector (   345906 symmetry allowed elements):  0.3321693454.
-----------------------------------------------------------------------------
 @CHECKOUT-I, Total execution time (CPU/WALL):        5.69/       2.77 seconds.
--executable xintprc finished with status     0 in        2.80 seconds (walltime).
  calling xvcc 
 --invoking executable--
/home/tsommerfeld/zscale/bin/xvcc
 @GETMEM-I,  Allocated   85830 MB of main memory.
   CCSD(T) energy will be calculated.
   The total correlation energy is -0.395161532281 a.u.
   The total correlation energy is -0.415057423292 a.u.
  Convergence information after     1 iterations: 
  Largest element of residual vector : -0.28360747E-01.
  Largest element of DIIS residual   : -0.28360747E-01.
   The total correlation energy is -0.426219160995 a.u.
  Convergence information after     2 iterations: 
  Largest element of residual vector : -0.13203572E-01.
  Largest element of DIIS residual   : -0.10651206E-01.
   The total correlation energy is -0.429121819481 a.u.
  Convergence information after     3 iterations: 
  Largest element of residual vector : -0.70484668E-02.
  Largest element of DIIS residual   : -0.57985634E-02.
   The total correlation energy is -0.430745282188 a.u.
  Convergence information after     4 iterations: 
  Largest element of residual vector : -0.34847899E-02.
  Largest element of DIIS residual   : -0.20687224E-02.
   The total correlation energy is -0.430918728031 a.u.
  Convergence information after     5 iterations: 
  Largest element of residual vector : -0.10286263E-02.
  Largest element of DIIS residual   : -0.37527249E-03.
   The total correlation energy is -0.430923880850 a.u.
  Convergence information after     6 iterations: 
  Largest element of residual vector :  0.24429049E-03.
  Largest element of DIIS residual   :  0.18952282E-03.
   The total correlation energy is -0.430914558409 a.u.
  Convergence information after     7 iterations: 
  Largest element of residual vector :  0.85217540E-04.
  Largest element of DIIS residual   :  0.56965308E-04.
   The total correlation energy is -0.430911713413 a.u.
  Convergence information after     8 iterations: 
  Largest element of residual vector : -0.63566647E-04.
  Largest element of DIIS residual   :  0.24749535E-04.
   The total correlation energy is -0.430911175359 a.u.
  Convergence information after     9 iterations: 
  Largest element of residual vector :  0.28709922E-04.
  Largest element of DIIS residual   :  0.98746711E-05.
   The total correlation energy is -0.430911439626 a.u.
  Convergence information after    10 iterations: 
  Largest element of residual vector : -0.10290210E-04.
  Largest element of DIIS residual   : -0.46575089E-05.
   The total correlation energy is -0.430911985252 a.u.
  Convergence information after    11 iterations: 
  Largest element of residual vector :  0.53709264E-05.
  Largest element of DIIS residual   : -0.28418958E-05.
   The total correlation energy is -0.430912199224 a.u.
  Convergence information after    12 iterations: 
  Largest element of residual vector : -0.17737468E-05.
  Largest element of DIIS residual   : -0.12478188E-05.
   The total correlation energy is -0.430912477615 a.u.
  Convergence information after    13 iterations: 
  Largest element of residual vector : -0.88743484E-06.
  Largest element of DIIS residual   :  0.57867344E-06.
   The total correlation energy is -0.430912585910 a.u.
  Convergence information after    14 iterations: 
  Largest element of residual vector : -0.48778822E-06.
  Largest element of DIIS residual   : -0.32455414E-06.
   The total correlation energy is -0.430912609742 a.u.
  Convergence information after    15 iterations: 
  Largest element of residual vector :  0.33505656E-06.
  Largest element of DIIS residual   : -0.16792943E-06.
   The total correlation energy is -0.430912622182 a.u.
  Convergence information after    16 iterations: 
  Largest element of residual vector : -0.12111207E-06.
  Largest element of DIIS residual   :  0.62993892E-07.
   The total correlation energy is -0.430912625572 a.u.
  Convergence information after    17 iterations: 
  Largest element of residual vector :  0.63766299E-07.
  Largest element of DIIS residual   :  0.27086565E-07.
  Amplitude equations converged in    17iterations.
   The total correlation energy is -0.430912627599 a.u.
   The CC iterations have converged.

   Largest T1 amplitudes for spin case AA:
   i       a                 i       a                 i       a    
-----------------------------------------------------------------------------
[  5      11    ]-0.02736 [  4      14    ] 0.02421 [  5      17    ]-0.01560
[  4      18    ]-0.01483 [  4      22    ]-0.00980 [  4      28    ]-0.00946
[  8      89    ]-0.00791 [  8      90    ] 0.00618 [  3      12    ] 0.00554
[  5      31    ]-0.00493 [  5      10    ] 0.00480 [  9     121    ]-0.00447
[  8      97    ]-0.00433 [  4      30    ]-0.00395 [  7      56    ] 0.00395
-----------------------------------------------------------------------------
   Norm of T1AA vector (      327 symmetry allowed elements):  0.0494280328.
-----------------------------------------------------------------------------
   Largest T2 amplitudes for spin case AB:
       _       _                 _       _                 _       _
   i   j   a   b             i   j   a   b             i   j   a   b
-----------------------------------------------------------------------------
[  5   5  11  11]-0.14737 [  4   4  50  50]-0.11610 [  5   5  17  11] 0.08489
[  5   5  11  17] 0.08489 [  5   5  17  17]-0.06420 [  5   5  88  88]-0.05420
[  5   5  53  53]-0.05420 [  5   5  13  13]-0.05417 [  4   4  54  50]-0.05122
[  4   4  50  54]-0.05122 [  4   4  54  54]-0.02917 [  4   4  15  15]-0.02618
[  4   4  14  14]-0.02557 [  4   3  50  57] 0.02554 [  3   4  57  50] 0.02554
-----------------------------------------------------------------------------
   Norm of T2AB vector (   345906 symmetry allowed elements):  0.4178650541.
-----------------------------------------------------------------------------
       Summary of iterative solution of CC equations 
      -----------------------------------------------------------
                       Correlation           Total
       Iteration         Energy              Energy
      -----------------------------------------------------------
            0        -0.395161532281     -78.941878994744  DIIS 
            1        -0.415057423292     -78.961774885756  DIIS 
            2        -0.426219160995     -78.972936623458  DIIS 
            3        -0.429121819481     -78.975839281944  DIIS 
            4        -0.430745282188     -78.977462744651  DIIS 
            5        -0.430918728031     -78.977636190494  DIIS 
            6        -0.430923880850     -78.977641343313  DIIS 
            7        -0.430914558409     -78.977632020872  DIIS 
            8        -0.430911713413     -78.977629175876  DIIS 
            9        -0.430911175359     -78.977628637822  DIIS 
           10        -0.430911439626     -78.977628902089  DIIS 
           11        -0.430911985252     -78.977629447716  DIIS 
           12        -0.430912199224     -78.977629661687  DIIS 
           13        -0.430912477615     -78.977629940078  DIIS 
           14        -0.430912585910     -78.977630048373  DIIS 
           15        -0.430912609742     -78.977630072205  DIIS 
           16        -0.430912622182     -78.977630084645  DIIS 
           17        -0.430912627599     -78.977630090062  DIIS 
      -----------------------------------------------------------
      A miracle has come to pass. The CC iterations have converged.
        E(CCSD)           =     -78.977630090062
        E(CCSD + T(CCSD)) =     -78.993436898908
        E(CCSD(T))        =     -78.993016400188
 @CHECKOUT-I, Total execution time (CPU/WALL):      208.86/      17.42 seconds.
--executable xvcc finished with status     0 in       17.45 seconds (walltime).
  The final electronic energy is       -78.993016400187670 a.u. 
  This computation required                           27.76 seconds (walltime).
