CFour on node02
 --invoking executable--
/home/tsommerfeld/zscale/bin/xjoda


   *************************************************************************
         <<<     CCCCCC     CCCCCC   |||     CCCCCC     CCCCCC   >>>
       <<<      CCC        CCC       |||    CCC        CCC         >>>
      <<<      CCC        CCC        |||   CCC        CCC            >>>
    <<<        CCC        CCC        |||   CCC        CCC              >>>
      <<<      CCC        CCC        |||   CCC        CCC            >>>
       <<<      CCC        CCC       |||    CCC        CCC         >>>
         <<<     CCCCCC     CCCCCC   |||     CCCCCC     CCCCCC   >>>
   *************************************************************************

     ****************************************************************
     * CFOUR Coupled-Cluster techniques for Computational Chemistry *
     ****************************************************************
 

   Department of Chemistry                Institut fuer Physikalische Chemie
   University of Florida                  Universitaet Mainz
   Gainesville, FL 32611, USA             D-55099 Mainz, Germany

   Department of Chemistry                Department of Chemistry
   Johns Hopkins University               Southern Methodist University
   Baltimore, MD 21218, USA               Dallas, TX 75275, USA

   Institute of Nanotechnology            Department of Physical Chemistry
   Karlsruhe Inst. of Technology          Eotvos Lorand University
   D-76021 Karlsruhe, Germany             H-1053 Budapest, Hungary

 
                       Version 2.1
 
                     node02                                            
                     Tue Mar 29 15:02:26 CST 2022                      
                     integer*8 version is running
 
********************************************************************************
*                          Input from ZMAT file                                *
********************************************************************************
h_ethylene                                                                      
C       0.000000      0.0   -0.664500                                           
C       0.000000      0.0    0.664500                                           
H       0.962348      0.0   -1.159080                                           
H       0.962348      0.0    1.159080                                           
H      -0.962348      0.0   -1.159080                                           
H      -0.962348      0.0    1.159080                                           
H      0.000000      2.5172413793103448      0.000000                           
                                                                                
*CFOUR(CALC=CCSD                                                                
EXCITE=EOMEE                                                                    
ESTATE_SYM=0/3/0/0                                                              
CC_PROG=VCC                                                                     
CHARGE=-1                                                                       
COORDINATES=CARTESIAN                                                           
SCF_DAMP=500                                                                    
SCF_MAXCYC=300                                                                  
BASIS=SPECIAL                                                                   
REFERENCE=RHF                                                                   
MEM_SIZE=90,MEM_UNIT=GB)                                                        
                                                                                
C:CC-PVDZ                                                                       
C:CC-PVDZ                                                                       
H:CC-PVDZ                                                                       
H:CC-PVDZ                                                                       
H:CC-PVDZ                                                                       
H:CC-PVDZ                                                                       
H:AUG-CC-PVDZ                                                                   
                                                                                
********************************************************************************
    -------------------------------------------------------------------
                    CFOUR Control Parameters 
    -------------------------------------------------------------------
        External           Internal           Value            Units
          Name               Name
    -------------------------------------------------------------------
       ABCDTYPE             IABCDT         STANDARD    [  0]    ***   
       ANHARMONIC           IANHAR         OFF         [  0]    ***   
       ANH_ALGORIT          IANALG         STANDARD    [  0]    ***   
       ANH_DERIVAT          IANDER         SECOND      [  1]    ***   
       ANH_MODE             ANHMOD         VIBRATION   [  0]    ***   
       ANH_STEPSIZ          ICUBST             50000          x 10-6  
       ANH_SYMMETR          IANHSM         ABELIAN     [  0]    ***   
       AO_LADDERS           IAOLAD         SINGLEPASS  [  1]    ***   
       AV_SCF               IAVSCF         OFF         [  0]    ***   
       BASIS                IBASIS         SPECIAL     [  0]    ***   
       BOTHVECTORS          BOTHVC         OFF         [  0]    ***   
       BOX_POTENT           IPIAB          OFF         [  0]    ***   
       BREIT                IBREIT         OFF         [  0]    ***   
       BRUCK_CONV           IBRTOL          10D-  4             ***   
       BRUECKNER            IBRKNR         OFF         [  0]    ***   
       BUFFERSIZE           IBUFFS              4096            ***   
       CACHE_RECS           ICHREC             10               ***   
       CALCLEVEL            ICLLVL         CCSD        [ 10]    ***   
       CCORBOPT             ICCORB         OFF         [  0]  x 0.01  
       CC_CONV              ICCCNV          10D-  7             ***   
       CC_EXPORDER          ICCEOR              5               ***   
       CC_EXTRAPOL          ICCEXT         DIIS        [  1]    ***   
       CC_GUESS             ICCGES         MP2         [  0]    ***   
       CC_MAXCYC            ICCCYC            100              cycles 
       CC_PROGRAM           ICCPRO         VCC         [  0]    ***   
       CHARGE               ICHRGE             -1               ***   
       CHOLESKY             ICHOLE         OFF         [  0]    ***   
       CIS_CONV             ICISTL              5               ***   
       COMM_SIZE            IPSIZE            ***               ***   
       CONSTANT             ICONST         OLD         [  1]    ***   
       CONTINUUM            ICONTU         NONE        [  0]    ***   
       CONTRACTION          ICNTYP         GENERAL     [  1]    ***   
       COORDINATES          ICOORD         CARTESIAN   [  1]    ***   
       CPHF_CONVER          ICPHFT          10D- 16             ***   
       CPHF_MAXCYC          ICPHFC             64              cycles 
       CUBIC                ICUBIC         OFF         [  0]    ***   
       CURVILINEAR          ICURVY         OFF         [  0]    ***   
       DBOC                 IDBOC          OFF         [  0]    ***   
       DCT                  IDCT           OFF         [  0]    ***   
       DERIV_LEV            IDRLVL         ZERO        [  0]    ***   
       DEVMEM_SIZE          IDVMEM         *********           MByte  
       DIAG_MRCC            IEOMST          10D-  0             ***   
       DIFF_TYPE            IDIFTY         RELAXED     [  0]    ***   
       DIRECT               IDIRCT         OFF         [  0]    ***   
       DROPMO               IDRPMO      NONE         
       ECP                  IECP           OFF         [  0]    ***   
       EIGENVECTOR          IVEC                1               ***   
       EL_ANHARM            IELANH         OFF         [  0]    ***   
       EOMFOLLOW            IEOMSR         ENERGY      [  0]    ***   
       EOMIP                IEOMIP         OFF         [  0]    ***   
       EOMLEVEL             HBARFM         SAME        [  0]    ***   
       EOM_MRCC             IMRCCE         NEW         [  1]    ***   
       EOM_NONIT            EOMNON         OFF         [  0]    ***   
       EOM_NSING            IEOMSI          10D-  0             ***   
       EOM_NSTATES          IMRCCD         DAVIDSON    [  0]    ***   
       EOM_NTRIP            IEOMTR          10D-  0             ***   
       EOM_ORDER            IEXORD         ENERGY      [  0]    ***   
       EOM_PROPSTA          IEOMST              0               ***   
       ESTATE_CONV          IEXTOL          10D-  5             ***   
       ESTATE_DIAG          IEXDIG         ITERATIVE   [  0]    ***   
       ESTATE_LOCK          IESLOC         ON          [  1]    ***   
       ESTATE_MAXC          IEXMXC             40               ***   
       ESTATE_PROP          IEXPRP         OFF         [  0]    ***   
       ESTATE_SYM           IEXSYM   0,  3,  0,  0,
       EVAL_HESS            IRECAL              0            # of cyc.
       EXCITATION           IEXCIT              0               ***   
       EXCITE               IEXCIT         EOMEE       [  3]    ***   
       EXTERN_POT           IEXPOT         OFF         [  0]    ***   
       FCGRADNEW            IFCGNW         OFF         [  0]    ***   
       FC_FIELD             IFINFC              0             x 10-6  
       FD_CALTYPE           IFDCAL         GRADONLY    [  0]    ***   
       FD_PROJECT           IFDPRJ         OFF         [  1]    ***   
       FD_STEPSIZE          IDISFD              0            10-4 bohr
       FD_USEGROUP          IFDGRP         FULL        [  0]    ***   
       FILE_RECSIZ          IFLREC              4096           words  
       FINITE_PERT          IFIPER              0             x 10-6  
       FIXGEOM              IFIXGM         OFF         [  0]    ***   
       FOCK                 IFOCK          AO          [  1]    ***   
       FREQ_ALGORI          IVIALG         STANDARD    [  0]    ***   
       FROZEN_CORE          IFROCO         OFF         [  0]    ***   
       GAMMA_ABCD           IGABCD         STORE       [  0]    ***   
       GAMMA_ABCI           IGABCI         STORE       [  0]    ***   
       GENBAS_1             IGNBS1              0               ***   
       GENBAS_2             IGNBS2              0               ***   
       GENBAS_3             IGNBS3              0               ***   
       GENBAS_4             IGNBS4              0               ***   
       GEO_CONV             ICONTL              5              H/bohr 
       GEO_MAXCYC           IOPTCY             50               ***   
       GEO_MAXSTEP          IMXSTP            300            millibohr
       GEO_METHOD           INR            SINGLE_POINT[  5]    ***   
       GIAO                 IGIAO          OFF         [  1]    ***   
       GIMIC                IGIMIC         OFF         [  0]    ***   
       GRID                 IGRID          OFF         [  0]    ***   
       GRID_ALGO            IGALGO         SERIAL      [  0]    ***   
       GUESS                IGUESS         MOREAD      [  0]    ***   
       HBAR                 IHBAR          ON          [  1]    ***   
       HESS_TYPE            IHESTP         SCF         [  0]    ***   
       HF2_FILE             IHF2Fl         USE         [  1]    ***   
       HFSTABILITY          ISTABL         OFF         [  0]    ***   
       INCORE               INCORE         OFF         [  0]    ***   
       INPUT_MRCC           IMRCC          ON          [  1]    ***   
       INTEGRALS            INTTYP         VMOL        [  1]    ***   
       JODA_PRINT           IJPRNT              0               ***   
       KEYWORD_OUT          IDMPKW         NO          [  0]    ***   
       LINDEP_TOL           ILINDP              8               ***   
       LINEQ_CONV           IZTACN          10D-  7           cycles  
       LINEQ_EXPOR          ILMAXD              5               ***   
       LINEQ_MAXCY          ILMAXC            100               ***   
       LINEQ_TYPE           ILTYPE         DIIS        [  1]    ***   
       LOCK_ORBOCC          ILOCOC         OFF         [  0]    ***   
       MEMORY_SIZE          IMEMSZ         *********           words  
       MEM_UNIT             IMEMU          GB          [  3]    ***   
       MRCC                 IMRCCC         OFF         [  0]    ***   
       MULTIPLICTY          IMULTP              1               ***   
       NACOUPLING           IVCOUP         OFF         [  0]    ***   
       NEGEVAL              IDIE           ABORT       [  0]    ***   
       NEWNORM              INEWNO         OFF         [  0]    ***   
       NON-HF               INONHF         OFF         [  0]    ***   
       NTOP_TAMP            ITOPT2             15               ***   
       NUC_MODEL            INUCMO         POINT       [  0]    ***   
       OCCUPATION           IOCCU   ESTIMATED BY SCF 
       OPEN-SHELL           IOPEN          SPIN-ORBITAL[  0]    ***   
       OPTVIB               IOPTVB         OFF         [  0]    ***   
       ORBITALS             IORBTP         STANDARD    [  0]    ***   
       PARALLEL             IPARAL         ON          [  1]    ***   
       PARA_INT             IPINTS         ON          [  1]    ***   
       PARA_PRINT           IPPRIN              0               ***   
       PERT_ORB             IPTORB         STANDARD    [  0]    ***   
       POINTS               IGRDFD              0               ***   
       PRINT                IPRNT               0               ***   
       PROPS                IPROPS         OFF         [  0]    ***   
       PROP_INTEGR          IINTYP         INTERNAL    [  0]    ***   
       PSI                  IPSI           OFF         [  0]    ***   
       QC_ALG               IQCALG         FLM         [  0]    ***   
       QC_LINALG            IQCLIN         TRIDIAG     [  2]    ***   
       QC_MAXCYC            IQCMAX          10D-100           cycles  
       QC_MAXSCFCY          IQCMSC          10D- 15           cycles  
       QC_RTRUST            IQCRTR          10D-  0           x 10-3  
       QC_SKIPSCF           IQCSKI         OFF         [  0]    ***   
       QC_START             IQCSTA          10D-  1             ***   
       QRHFGUESS            IQGUES         OFF         [  0]    ***   
       QUARTIC              IQUART         OFF         [  0]    ***   
       RAMAN_INT            IRAMIN         OFF         [  0]    ***   
       RAMAN_ORB            IRAMRE         UNRELAXED   [  0]    ***   
       RDO                  IRDOFM         OFF         [  0]    ***   
       REDUCE_REPR          REDREP         Ir          [  0]    ***   
       REFERENCE            IREFNC         RHF         [  0]    ***   
       RELATIVIST           IRELAT         OFF         [  0]    ***   
       RELAX_DENS           IRDENS         OFF         [  0]    ***   
       RESET_FLAGS          IRESET         OFF         [  0]    ***   
       RESTART_CC           ICCRES         OFF         [  0]    ***   
       ROT_EVEC             ROTVEC              0               ***   
       SAVE_INTS            ISVINT         OFF         [  0]    ***   
       SCALE_ON             ISTCRT              0               ***   
       SCF_CONV             ISCFCV          10D-  7             ***   
       SCF_DAMPING          IDAMP             500             x 10-3  
       SCF_EXPORDE          IRPPOR              6               ***   
       SCF_EXPSTAR          IRPPLS              8               ***   
       SCF_EXTRAPO          IRPP           ON          [  1]    ***   
       SCF_MAXCYC           ISCFCY            300              cycles 
       SCF_NOSTOP           ISCFST         OFF         [  0]    ***   
       SCF_PRINT            ISCFPR              0               ***   
       SCF_PROG             ISCFPR         SCF         [  0]    ***   
       SD_FIELD             IFINSD              0             x 10-6  
       SOPERT               IPERSO         OFF         [  0]    ***   
       SPHERICAL            IDFGHI         ON          [  1]    ***   
       SPINORBIT            ISOCAL         OFF         [  0]    ***   
       SPINROTATIO          ISRCON         OFF         [  0]    ***   
       SPIN_FLIP            ISPFLP         OFF         [  0]    ***   
       SPIN_ORBIT           ISPORB         OFF         [  0]    ***   
       SPIN_SCAL            ISCSMP         OFF         [  0]    ***   
       STEEPSCALE           ISTPSC              1000          x 10-3  
       SUBGROUP             ISUBGP         DEFAULT     [  0]    ***   
       SUBGRPAXIS           ISBXYZ         X           [  0]    ***   
       SYMMETRY             ISYM           ON          [  0]    ***   
       SYM_CHECK            ISYMCK         OVERRIDE    [  1]    ***   
       T3_EXTRAPOL          IT3EXT         OFF         [  0]    ***   
       T4_EXTRAPOL          IT4EXP         OFF         [  0]    ***   
       TAMP_SUM             IEVERY              5               ***   
       TESTSUITE            ITESTS         OFF         [  0]    ***   
       THERMOCH             ITHERM         OFF         [  0]    ***   
       TOL_CHOLESK          ITOLCH          10D-  4             ***   
       TRANGRAD             IRESRM         OFF         [  0]    ***   
       TRANS_INV            ITRAIN         USE         [  0]    ***   
       TREAT_PERT           ITREAT         SIMULTANEOUS[  0]    ***   
       TRIP_ALGORI          ITRALG         NORMAL      [  0]    ***   
       UIJ_THRESHO          IUIJTH              1               ***   
       UNITS                IUNITS         ANGSTROM    [  0]    ***   
       UNOS                 IUNOS          OFF         [  0]    ***   
       UPDATE_HESS          IHUPDT         ON          [  1]    ***   
       VIBPHASE             ISETPH         STANDARD    [  0]    ***   
       VIBRATION            IVIB           NO          [  0]    ***   
       VIB_ALGORIT          IGEALG         STANDARD    [  0]    ***   
       VNATORB              IVNORB         OFF         [  0]    ***   
       VTRAN                IVTRAN         FULL/PARTIAL[  0]    ***   
       XFIELD               IXEFLD              0             x 10-6  
       XFORM_TOL            IXFTOL          10D- 11             ***   
       YFIELD               IYEFLD              0             x 10-6  
       ZFIELD               IZEFLD              0             x 10-6  
       ZSCALE_EXP           IZEXPS         OFF         [  0]    ***   
    -------------------------------------------------------------------
  @GETXYZ-I,     7 atoms read from ZMAT.
   Rotational constants (in cm-1): 
          0.7601123347             0.8536890782             1.7031530784
   Rotational constants (in MHz): 
      22787.5977098155         25592.9582983935         51059.2519254143
********************************************************************************
   The full molecular point group is C2v .
   The largest Abelian subgroup of the full molecular point group is C2v .
   The computational point group is C2v .
********************************************************************************


 ----------------------------------------------------------------
         Coordinates used in calculation (QCOMP) 
 ----------------------------------------------------------------
 Z-matrix   Atomic            Coordinates (in bohr)
  Symbol    Number           X              Y              Z
 ----------------------------------------------------------------
     C         6         0.00000000    -1.25572327     0.16509177
     C         6         0.00000000     1.25572327     0.16509177
     H         1         1.81857454    -2.19034422     0.16509177
     H         1         1.81857454     2.19034422     0.16509177
     H         1        -1.81857454    -2.19034422     0.16509177
     H         1        -1.81857454     2.19034422     0.16509177
     H         1         0.00000000     0.00000000    -4.59180602
 ----------------------------------------------------------------
 
   Interatomic distance matrix (Angstroms) 
 
                 C             C             H             H             H    
                [ 1]        [ 2]        [ 3]        [ 4]        [ 5]
  C    [ 1]     0.00000
  C    [ 2]     1.32900     0.00000
  H    [ 3]     1.08200     2.06193     0.00000
  H    [ 4]     2.06193     1.08200     2.31816     0.00000
  H    [ 5]     1.08200     2.06193     1.92470     3.01303     0.00000
  H    [ 6]     2.06193     1.08200     3.01303     1.92470     2.31816
  H    [ 7]     2.60347     2.60347     2.93361     2.93361     2.93361
 
                 H             H    
                [ 6]        [ 7]
  H    [ 6]     0.00000
  H    [ 7]     2.93361     0.00000
 rotcon2
   Rotational constants (in cm-1): 
          0.7601123347             1.7031530784             0.8536890782
   Rotational constants (in MHz): 
      22787.5977098155         51059.2519254143         25592.9582983935
  ECPDATA file not present.   Using default ECPDATA. 
  There are   57 basis functions.
 @GEOPT-W, Archive file not created for single-point calculation.
 @CHECKOUT-I, Total execution time (CPU/WALL):        0.12/       0.13 seconds.
--executable xjoda finished with status     0 in        0.15 seconds (walltime).
 --invoking executable--
/home/tsommerfeld/zscale/bin/xvmol
 SERIAL VERSION OF MOLECULE STARTED
********************************************************************************
                    INPUT FROM MOL FILE
********************************************************************************
INTGRL        1    0    1    0    0    0    0    0    0                         
         *** CFOUR Program System (Release V0.1) ***                            
h_ethylene                                                                      
    3    2 X  Y       0.10E-08              0    0                              
   9999.00      3.00                                                            
          6.00000000    1    3    1    1    1                                   
C #1   0.000000000000000  -1.255723272983657   0.165091773813383                
    9    3                                                                      
   6665.00000000000       6.920000000000000E-004 -1.460000000000000E-004        
  0.000000000000000E+000                                                        
   1000.00000000000       5.329000000000000E-003 -1.154000000000000E-003        
  0.000000000000000E+000                                                        
   228.000000000000       2.707700000000000E-002 -5.725000000000000E-003        
  0.000000000000000E+000                                                        
   64.7100000000000       0.101718000000000      -2.331200000000000E-002        
  0.000000000000000E+000                                                        
   21.0600000000000       0.274740000000000      -6.395500000000000E-002        
  0.000000000000000E+000                                                        
   7.49500000000000       0.448564000000000      -0.149981000000000             
  0.000000000000000E+000                                                        
   2.79700000000000       0.285074000000000      -0.127262000000000             
  0.000000000000000E+000                                                        
  0.521500000000000       1.520400000000000E-002  0.544529000000000             
  0.000000000000000E+000                                                        
  0.159600000000000      -3.191000000000000E-003  0.580496000000000             
   1.00000000000000                                                             
    4    2                                                                      
   9.43900000000000       3.810900000000000E-002  0.000000000000000E+000        
   2.00200000000000       0.209480000000000       0.000000000000000E+000        
  0.545600000000000       0.508557000000000       0.000000000000000E+000        
  0.151700000000000       0.468842000000000        1.00000000000000             
    1    1                                                                      
  0.550000000000000        1.00000000000000                                     
          1.00000000    1    2    1    1                                        
H #2   1.818574537711477  -2.190344215575466   0.165091773813383                
    4    2                                                                      
   13.0100000000000       1.968500000000000E-002  0.000000000000000E+000        
   1.96200000000000       0.137977000000000       0.000000000000000E+000        
  0.444600000000000       0.478148000000000       0.000000000000000E+000        
  0.122000000000000       0.501240000000000        1.00000000000000             
    1    1                                                                      
  0.727000000000000        1.00000000000000                                     
          1.00000000    1    2    1    1                                        
H #3   0.000000000000000   0.000000000000000  -4.591806019591406                
    5    3                                                                      
   13.0100000000000       1.968500000000000E-002  0.000000000000000E+000        
  0.000000000000000E+000                                                        
   1.96200000000000       0.137977000000000       0.000000000000000E+000        
  0.000000000000000E+000                                                        
  0.444600000000000       0.478148000000000       0.000000000000000E+000        
  0.000000000000000E+000                                                        
  0.122000000000000       0.501240000000000        1.00000000000000             
  0.000000000000000E+000                                                        
  2.974000000000000E-002  0.000000000000000E+000  0.000000000000000E+000        
   1.00000000000000                                                             
    2    2                                                                      
  0.727000000000000        1.00000000000000       0.000000000000000E+000        
  0.141000000000000       0.000000000000000E+000   1.00000000000000             
FINISH                                                                          
 
********************************************************************************
 ONE- AND TWO-ELECTRON INTEGRALS OVER SYMMETRY-ADAPTED AOS ARE CALCULATED.

  SPHERICAL HARMONICS ARE USED.
  
  INTEGRALS LESS THAN  0.10E-13 ARE NEGLECTED.

  NUCLEAR REPULSION ENERGY :   36.7498509777 A.U.
  @MOLECU-I, ONE ELECTRON INTEGRALS (CPU/WALL):        0.01/       0.01 SECONDS.
  @TWOEL-I,      29572 INTEGRALS OF SYMMETRY TYPE  I I I I
  @TWOEL-I,     102291 INTEGRALS OF SYMMETRY TYPE  I J I J
  @TWOEL-I,      58089 INTEGRALS OF SYMMETRY TYPE  I I J J
  @TWOEL-I,      75480 INTEGRALS OF SYMMETRY TYPE  I J K L
  @TWOEL-I, TOTAL NUMBER OF 2-E INTEGRALS     265432.
  @MOLECU-I, TWO ELECTRON INTEGRALS (CPU/WALL):        0.21/       0.22 SECONDS.
 @CHECKOUT-I, Total execution time (CPU/WALL):        0.23/       0.24 seconds.

Running with 8 threads/proc

--executable xvmol finished with status     0 in        0.26 seconds (walltime).
 --invoking executable--
/home/tsommerfeld/zscale/bin/xvmol2ja
 @GETMEM-I,  Allocated   85830 MB of main memory.
 @CHECKOUT-I, Total execution time (CPU/WALL):        0.02/       0.01 seconds.
--executable xvmol2ja finished with status     0 in        0.03 seconds (walltime).
 --invoking executable--
/home/tsommerfeld/zscale/bin/xvscf
  There are   57 functions in the AO basis.

  There are 4 irreducible representations.

       Irrep        # of functions
         1                 20
         2                 11
         3                 17
         4                  9


  Parameters for SCF calculation: 
        SCF reference function:  RHF  
  Maximum number of iterations:  300
     Full symmetry point group: C2v 
     Computational point group: C2v 
        Initial density matrix: MOREAD                 
     SCF convergence tolerance: 10**(- 7)
  DIIS convergence acceleration:  ON
          Latest start for DIIS:   8
                     DIIS order:   6

  Memory information:     156410 words required.
  Fock matrices are constructed from AO integral file.
 @GETMEM-I,  Allocated       1 MB of main memory.
  Initialization and symmetry analysis required      0.002 seconds.

  @INITGES-I, Occupancies from core Hamiltonian:

          Alpha population by irrep:   3    1    4    1
           Beta population by irrep:   3    1    4    1


 total no. of electrons in initial guess :  0.000000000000000E+000
  --------------------------------------------------------------------
  Iteration         Total Energy            Largest Density Difference
  --------------------------------------------------------------------
       0            36.749850977669453              0.0000000000D+00
   current occupation vector 
     3  1  4  1
     3  1  4  1
  applying damping factor of   0.500000000000000     
       1           -38.897847964223217              0.8848077541D+01
   current occupation vector 
     3  1  4  1
     3  1  4  1
  applying damping factor of   0.500000000000000     
       2           -60.580554767981951              0.3205241075D+01
   current occupation vector 
     4  1  3  1
     4  1  3  1
  applying damping factor of   0.500000000000000     
       3           -69.745589294242492              0.2698728533D+01
   current occupation vector 
     5  1  2  1
     5  1  2  1
  applying damping factor of   0.500000000000000     
       4           -74.138775636849971              0.1438303732D+01
   current occupation vector 
     5  1  2  1
     5  1  2  1
  applying damping factor of   0.500000000000000     
       5           -76.310277031173300              0.7444734370D+00
   current occupation vector 
     5  1  2  1
     5  1  2  1
  applying damping factor of   0.500000000000000     
       6           -77.396724597241402              0.3807067388D+00
   current occupation vector 
     5  1  2  1
     5  1  2  1
  applying damping factor of   0.500000000000000     
       7           -77.942411463977251              0.3259359296D+00
   current occupation vector 
     5  1  2  1
     5  1  2  1
       8           -78.493105890162724              0.1799430540D+00
   current occupation vector 
     5  1  2  1
     5  1  2  1
       9           -78.493109700184576              0.2463810046D-02
   current occupation vector 
     5  1  2  1
     5  1  2  1
      10           -78.493110448228677              0.2019541997D-02
   current occupation vector 
     5  1  2  1
     5  1  2  1
      11           -78.493110499827154              0.3371499707D-03
   current occupation vector 
     5  1  2  1
     5  1  2  1
      12           -78.493110501750579              0.3723252416D-04
   current occupation vector 
     5  1  2  1
     5  1  2  1
      13           -78.493110501829449              0.1340212827D-04
   current occupation vector 
     5  1  2  1
     5  1  2  1
      14           -78.493110501833982              0.1677528813D-05
   current occupation vector 
     5  1  2  1
     5  1  2  1
      15           -78.493110501834266              0.2379772941D-06
   current occupation vector 
     5  1  2  1
     5  1  2  1

  SCF has converged.

 Density matrix saved to file den.dat
 total electron number:   18.0000000000000     
     E(SCF)=       -78.493110501833996              0.3721257309D-07


  Final occupancies:

     Alpha population by irrep:   5    1    2    1
      Beta population by irrep:   5    1    2    1


  Eigenvector printing suppressed.

 @PUTMOS-I, Writing converged MOs to NEWMOS. 
 @PUTMOS-I, Symmetry   1 Full Blocks  5 Partial Blocksize   0
 @PUTMOS-I, Symmetry   2 Full Blocks  2 Partial Blocksize   3
 @PUTMOS-I, Symmetry   3 Full Blocks  4 Partial Blocksize   1
 @PUTMOS-I, Symmetry   4 Full Blocks  2 Partial Blocksize   1
 @PUTFOCK-I, Writing converged Fock matrix to NEWFOCK. 
 @PUTFOCK-I, Symmetry   1 Full Blocks  5 Partial Blocksize   0
 @PUTFOCK-I, Symmetry   2 Full Blocks  2 Partial Blocksize   3
 @PUTFOCK-I, Symmetry   3 Full Blocks  4 Partial Blocksize   1
 @PUTFOCK-I, Symmetry   4 Full Blocks  2 Partial Blocksize   1


 
  ORBITAL EIGENVALUES (ALPHA)  (1H = 27.2113834 eV)

       MO #        E(hartree)               E(eV)           FULLSYM    COMPSYM
       ----   --------------------   --------------------   -------   ---------
    1     1         -11.0677331090        -301.1683289981      A1        A1 (1)
    2    32         -11.0660199619        -301.1217118949      B2        B2 (3)
    3     2          -0.8716213306         -23.7180222064      A1        A1 (1)
    4    33          -0.6167559943         -16.7827838258      B2        B2 (3)
    5    21          -0.4936782127         -13.4336671228      B1        B1 (2)
    6     3          -0.4005220418         -10.8987588403      A1        A1 (1)
    7    49          -0.3515384212          -9.5658467603      A2        A2 (4)
    8     4          -0.2151212756          -5.8537475088      A1        A1 (1)
    9     5          -0.0230330911          -0.6267622722      A1        A1 (1)
  +++++++++++++++++++++++++++++++++++++++++++++++++++++++++++++++++++++++++++++
   10     6           0.2814521258           7.6587017043      A1        A1 (1)
   11    34           0.3350016990           9.1158596719      B2        B2 (3)
   12     7           0.3648729555           9.9286978857      A1        A1 (1)
   13    22           0.3715444920          10.1102396220      B1        B1 (2)
   14    35           0.3880909862          10.5604926207      B2        B2 (3)
   15    50           0.4428546108          12.0506866041      A2        A2 (4)
   16    23           0.5629001135          15.3172908054      B1        B1 (2)
   17    36           0.5783196110          15.7368766623      B2        B2 (3)
   18    37           0.6091285737          16.5752311593      B2        B2 (3)
   19     8           0.6221986308          16.9308854930      A1        A1 (1)
   20     9           0.7255895320          19.7442949457      A1        A1 (1)
   21    24           0.8298707963          22.5819324108      B1        B1 (2)
   22    10           0.8495518829          23.1174820032      A1        A1 (1)
   23    38           0.9546231238          25.9766158230      B2        B2 (3)
   24    11           1.0192230441          27.7344690218      A1        A1 (1)
   25    25           1.0250374120          27.8926860184      B1        B1 (2)
   26    39           1.0260771451          27.9209785943      B2        B2 (3)
   27    51           1.0962648908          29.8308842510      A2        A2 (4)
   28    12           1.1069926968          30.1228026949      A1        A1 (1)
   29    40           1.1288673579          30.7180424822      B2        B2 (3)
   30    26           1.2954961497          35.2522424232      B1        B1 (2)
   31    13           1.3538733824          36.8407676822      A1        A1 (1)
   32    41           1.4324425002          38.9787420725      B2        B2 (3)
   33    52           1.4502424826          39.4631042175      A2        A2 (4)
   34    53           1.5071009526          41.0103018436      A2        A2 (4)
   35    14           1.5087035976          41.0539120309      A1        A1 (1)
   36    15           1.7643145640          48.0094400393      A1        A1 (1)
   37    54           1.7737735601          48.2668324097      A2        A2 (4)
   38    27           1.8652681394          50.7565264846      B1        B1 (2)
   39    42           2.0122190773          54.7552647980      B2        B2 (3)
   40    43           2.0427886574          55.5871053606      B2        B2 (3)
   41    16           2.0796548850          56.5902864154      A1        A1 (1)
   42    17           2.1185903132          57.6497732787      A1        A1 (1)
   43    28           2.1416533753          58.2773511045      B1        B1 (2)
   44    29           2.1703744346          59.0588908612      B1        B1 (2)
   45    44           2.1711608717          59.0802909016      B2        B2 (3)
   46    30           2.1844786640          59.4426864541      B1        B1 (2)
   47    18           2.2570817224          61.4183161140      A1        A1 (1)
   48    45           2.3360258943          63.5664962411      B2        B2 (3)
   49    46           2.4383490141          66.3508498867      B2        B2 (3)
   50    55           2.5795831746          70.1940267771      A2        A2 (4)
   51    19           2.5869774180          70.3952343673      A1        A1 (1)
   52    56           2.6489702894          72.0821461596      A2        A2 (4)
   53    47           2.6970884949          73.3915090989      B2        B2 (3)
   54    31           2.9513699783          80.3108600343      B1        B1 (2)
   55    20           2.9550603173          80.4112792640      A1        A1 (1)
   56    48           3.4050003569          92.6547701881      B2        B2 (3)
   57    57           3.5018591141          95.2904309665      A2        A2 (4)


  VSCF finished.

 @CHECKOUT-I, Total execution time (CPU/WALL):        0.23/       0.09 seconds.
--executable xvscf finished with status     0 in        0.11 seconds (walltime).
 --invoking executable--
/home/tsommerfeld/zscale/bin/xvtran
 @GETMEM-I,  Allocated   85830 MB of main memory.
  Full RHF integral transformation
  Transformation of IIII integrals :
  1 pass through the AO integral file was required.
       29572 AO integrals were read.
       37182 MO integrals were written to HF2.
  Transformation of IIJJ integrals :
  1 pass through the AO integral file was required.
       58089 AO integrals were read.
       75393 MO integrals were written to HF2.
  Transformation of IJIJ integrals :
  1 pass through the AO integral file was required.
      102291 AO integrals were read.
      132879 MO integrals were written to HF2.
  Transformation of IJKL integrals :
  1 pass through the AO integral file was required.
       75480 AO integrals were read.
      100980 MO integrals were written to HF2.
  Summary of active molecular orbitals: 
------------------------------------------------------------------------
 
  Index      Eigenvalue    Symmetry    Index      Eigenvalue    Symmetry
------------------------------------------------------------------------
     1       -11.0677331        1        30         1.8652681        2
     2        -0.8716213        1        31         2.1416534        2
     3        -0.4005220        1        32         2.1703744        2
     4        -0.2151213        1        33         2.1844787        2
     5        -0.0230331        1        34         2.9513700        2
     6        -0.4936782        2        35         0.3350017        3
     7       -11.0660200        3        36         0.3880910        3
     8        -0.6167560        3        37         0.5783196        3
     9        -0.3515384        4        38         0.6091286        3
    10         0.2814521        1        39         0.9546231        3
    11         0.3648730        1        40         1.0260771        3
    12         0.6221986        1        41         1.1288674        3
    13         0.7255895        1        42         1.4324425        3
    14         0.8495519        1        43         2.0122191        3
    15         1.0192230        1        44         2.0427887        3
    16         1.1069927        1        45         2.1711609        3
    17         1.3538734        1        46         2.3360259        3
    18         1.5087036        1        47         2.4383490        3
    19         1.7643146        1        48         2.6970885        3
    20         2.0796549        1        49         3.4050004        3
    21         2.1185903        1        50         0.4428546        4
    22         2.2570817        1        51         1.0962649        4
    23         2.5869774        1        52         1.4502425        4
    24         2.9550603        1        53         1.5071010        4
    25         0.3715445        2        54         1.7737736        4
    26         0.5629001        2        55         2.5795832        4
    27         0.8298708        2        56         2.6489703        4
    28         1.0250374        2        57         3.5018591        4
    29         1.2954961        2
------------------------------------------------------------------------
  -11.0677331090091      -0.871621330591920      -0.400522041825435     
 -0.215121275636080      -2.303309107723984E-002 -0.493678212730214     
  -11.0660199618847      -0.616755994325080      -0.351538421242213     
  0.281452125815084       0.364872955548243       0.622198630777794     
  0.725589531979820       0.849551882878858        1.01922304405043     
   1.10699269684526        1.35387338235156        1.50870359758654     
   1.76431456400340        2.07965488499848        2.11859031315048     
   2.25708172242195        2.58697741796042        2.95506031729352     
  0.371544492001254       0.562900113537814       0.829870796307312     
   1.02503741204169        1.29549614971695        1.86526813938337     
   2.14165337527542        2.17037443459142        2.18447866395723     
   2.95136997828120       0.335001699026532       0.388090986242545     
  0.578319610986055       0.609128573718068       0.954623123753059     
   1.02607714513862        1.12886735785057        1.43244250024105     
   2.01221907732852        2.04278865735842        2.17116087165015     
   2.33602589426173        2.43834901413652        2.69708849491678     
   3.40500035687477       0.442854610770152        1.09626489077945     
   1.45024248261838        1.50710095259758        1.77377356013984     
   2.57958317463333        2.64897028938278        3.50185911409796     
 @CHECKOUT-I, Total execution time (CPU/WALL):        0.54/       0.09 seconds.
--executable xvtran finished with status     0 in        0.11 seconds (walltime).
 --invoking executable--
/home/tsommerfeld/zscale/bin/xintprc
 @GETMEM-I,  Allocated   85830 MB of main memory.
  Processing integrals for CCSD calculation.
  @GMOIAA-I, Processing MO integrals for spin case AA.
  @GMOIAA-I, Generation of integral list completed.
                      TYPE                NUMBER
                      ----               --------
                      PPPP                174781
                      PPPH                128448
                      PPHH                 24003
                      PHPH                 13755
                      PHHH                  5115
                      HHHH                   332

                     TOTAL                346434

  @FORMT2-I, Second-order MP correlation energies:
            ------------------------------------------------
            E(SCF)                  =    -78.493110501834 a.u.
            E2(AA)                  =     -0.032485428292 a.u.
            E2(AB)                  =     -0.248511299138 a.u.
            E2(TOT)                 =     -0.313482155721 a.u.
            Total MP2 energy        =    -78.806592657555 a.u.
            ------------------------------------------------
   Largest T2 amplitudes for spin case AB:
       _       _                 _       _                 _       _
   i   j   a   b             i   j   a   b             i   j   a   b
-----------------------------------------------------------------------------
[  5   5  10  10]-0.08942 [  4   4  35  35]-0.08544 [  5   5  26  26]-0.04085
[  5   5  12  12]-0.02935 [  4   3  35  41] 0.02631 [  3   4  41  35] 0.02631
[  4   4  14  14]-0.02534 [  5   5  37  37]-0.02387 [  5   5  15  10]-0.02378
[  5   5  10  15]-0.02378 [  5   5  16  10] 0.02339 [  5   5  10  16] 0.02339
[  3   3  41  41]-0.02299 [  5   4  35  35]-0.02258 [  4   5  35  35]-0.02258
-----------------------------------------------------------------------------
   Norm of T2AB vector (    47574 symmetry allowed elements):  0.3208479485.
-----------------------------------------------------------------------------
 @CHECKOUT-I, Total execution time (CPU/WALL):        0.41/       0.10 seconds.
--executable xintprc finished with status     0 in        0.11 seconds (walltime).
  calling xvcc 
 --invoking executable--
/home/tsommerfeld/zscale/bin/xvcc
 @GETMEM-I,  Allocated   85830 MB of main memory.
   CCSD energy will be calculated.
   The total correlation energy is -0.313482155721 a.u.
   The total correlation energy is -0.338583048674 a.u.
  Convergence information after     1 iterations: 
  Largest element of residual vector : -0.34312465E-01.
  Largest element of DIIS residual   : -0.34312465E-01.
   The total correlation energy is -0.348690074136 a.u.
  Convergence information after     2 iterations: 
  Largest element of residual vector : -0.17044210E-01.
  Largest element of DIIS residual   : -0.97693083E-02.
   The total correlation energy is -0.352761462196 a.u.
  Convergence information after     3 iterations: 
  Largest element of residual vector : -0.67333889E-02.
  Largest element of DIIS residual   : -0.45450223E-02.
   The total correlation energy is -0.353971482832 a.u.
  Convergence information after     4 iterations: 
  Largest element of residual vector : -0.29533367E-02.
  Largest element of DIIS residual   : -0.13661190E-02.
   The total correlation energy is -0.354174163118 a.u.
  Convergence information after     5 iterations: 
  Largest element of residual vector : -0.81331224E-03.
  Largest element of DIIS residual   : -0.39286929E-03.
   The total correlation energy is -0.354164403453 a.u.
  Convergence information after     6 iterations: 
  Largest element of residual vector : -0.22203837E-03.
  Largest element of DIIS residual   :  0.16623457E-03.
   The total correlation energy is -0.354150349591 a.u.
  Convergence information after     7 iterations: 
  Largest element of residual vector : -0.90379378E-04.
  Largest element of DIIS residual   :  0.34008789E-04.
   The total correlation energy is -0.354144970642 a.u.
  Convergence information after     8 iterations: 
  Largest element of residual vector :  0.27328846E-04.
  Largest element of DIIS residual   : -0.23686762E-04.
   The total correlation energy is -0.354144932218 a.u.
  Convergence information after     9 iterations: 
  Largest element of residual vector : -0.78418686E-05.
  Largest element of DIIS residual   : -0.67393045E-05.
   The total correlation energy is -0.354145279247 a.u.
  Convergence information after    10 iterations: 
  Largest element of residual vector : -0.52745992E-05.
  Largest element of DIIS residual   : -0.35938043E-05.
   The total correlation energy is -0.354145738221 a.u.
  Convergence information after    11 iterations: 
  Largest element of residual vector : -0.22143137E-05.
  Largest element of DIIS residual   : -0.15937106E-05.
   The total correlation energy is -0.354146018048 a.u.
  Convergence information after    12 iterations: 
  Largest element of residual vector : -0.10909439E-05.
  Largest element of DIIS residual   : -0.67636728E-06.
   The total correlation energy is -0.354146109076 a.u.
  Convergence information after    13 iterations: 
  Largest element of residual vector : -0.33355460E-06.
  Largest element of DIIS residual   : -0.27740102E-06.
   The total correlation energy is -0.354146115108 a.u.
  Convergence information after    14 iterations: 
  Largest element of residual vector : -0.20139245E-06.
  Largest element of DIIS residual   : -0.11234517E-06.
   The total correlation energy is -0.354146113900 a.u.
  Convergence information after    15 iterations: 
  Largest element of residual vector : -0.72928117E-07.
  Largest element of DIIS residual   : -0.42437635E-07.
  Amplitude equations converged in    15iterations.
   The total correlation energy is -0.354146111700 a.u.
   The CC iterations have converged.

   Largest T1 amplitudes for spin case AA:
   i       a                 i       a                 i       a    
-----------------------------------------------------------------------------
[  5      10    ]-0.03037 [  4      14    ]-0.01893 [  4      18    ] 0.01444
[  4      10    ] 0.01196 [  5      14    ]-0.01135 [  4      15    ]-0.00880
[  5      18    ] 0.00834 [  5      16    ]-0.00831 [  6      27    ]-0.00664
[  4      17    ]-0.00660 [  5      15    ] 0.00571 [  5      12    ] 0.00523
[  5      17    ] 0.00512 [  4      21    ]-0.00477 [  5      11    ]-0.00472
-----------------------------------------------------------------------------
   Norm of T1AA vector (      123 symmetry allowed elements):  0.0496975346.
-----------------------------------------------------------------------------
   Largest T2 amplitudes for spin case AB:
       _       _                 _       _                 _       _
   i   j   a   b             i   j   a   b             i   j   a   b
-----------------------------------------------------------------------------
[  5   5  10  10]-0.16761 [  4   4  35  35]-0.12401 [  5   5  26  26]-0.05703
[  5   5  15  10]-0.04522 [  5   5  10  15]-0.04522 [  5   5  16  10] 0.04438
[  5   5  10  16] 0.04438 [  5   5  12  12]-0.03860 [  5   4  35  35]-0.03701
[  4   5  35  35]-0.03701 [  5   5  37  37]-0.03210 [  5   4  10  10] 0.02975
[  4   5  10  10] 0.02975 [  4   4  40  35] 0.02892 [  4   4  35  40] 0.02892
-----------------------------------------------------------------------------
   Norm of T2AB vector (    47574 symmetry allowed elements):  0.4179304000.
-----------------------------------------------------------------------------
       Summary of iterative solution of CC equations 
      -----------------------------------------------------------
                       Correlation           Total
       Iteration         Energy              Energy
      -----------------------------------------------------------
            0        -0.313482155721     -78.806592657555  DIIS 
            1        -0.338583048674     -78.831693550508  DIIS 
            2        -0.348690074136     -78.841800575970  DIIS 
            3        -0.352761462196     -78.845871964030  DIIS 
            4        -0.353971482832     -78.847081984666  DIIS 
            5        -0.354174163118     -78.847284664952  DIIS 
            6        -0.354164403453     -78.847274905287  DIIS 
            7        -0.354150349591     -78.847260851425  DIIS 
            8        -0.354144970642     -78.847255472476  DIIS 
            9        -0.354144932218     -78.847255434052  DIIS 
           10        -0.354145279247     -78.847255781081  DIIS 
           11        -0.354145738221     -78.847256240055  DIIS 
           12        -0.354146018048     -78.847256519882  DIIS 
           13        -0.354146109076     -78.847256610910  DIIS 
           14        -0.354146115108     -78.847256616942  DIIS 
           15        -0.354146111700     -78.847256613534  DIIS 
      -----------------------------------------------------------
      A miracle has come to pass. The CC iterations have converged.
      The reference energy is       -78.49311050183400 a.u.
      The correlation energy is      -0.35414611170032 a.u.
      The total energy is           -78.84725661353431 a.u.
 @CHECKOUT-I, Total execution time (CPU/WALL):        5.41/       0.69 seconds.
--executable xvcc finished with status     0 in        0.71 seconds (walltime).
 --invoking executable--
/home/tsommerfeld/zscale/bin/xlambda
 @GETMEM-I,  Allocated   85830 MB of main memory.
 Hbar is calculated for a CCSD wave function.
 Calculation of Hbar completed.
 @CHECKOUT-I, Total execution time (CPU/WALL):        0.91/       0.13 seconds.
--executable xlambda finished with status     0 in        0.14 seconds (walltime).
 --invoking executable--
/home/tsommerfeld/zscale/bin/xvee
 @GETMEM-I,  Allocated   85830 MB of main memory.
  cc2 and ccprog  F                     0
  EOMEE-CCSD excitation energies will be evaluated.
  @SETMET-I, VPROP property integrals are used.
  @SETMET-I, A total of   3 target states will be studied.
  Summary of active alpha molecular orbitals:
------------------------------------------------------------------------------
Orbital      Sym   Eigenvalue  <xx>     <yy>     <zz>     <xy>     <xz>     <yz>
        SCF
  #  position
------------------------------------------------------------------------------
   1      1    1     -11.0677   0.000    0.000    0.000    0.000    0.000    0.000
   2      3    1      -0.8716   0.000    0.000    0.000    0.000    0.000    0.000
   3      6    1      -0.4005   0.000    0.000    0.000    0.000    0.000    0.000
   4      8    1      -0.2151   0.000    0.000    0.000    0.000    0.000    0.000
   5      9    1      -0.0230   0.000    0.000    0.000    0.000    0.000    0.000
   6      5    2      -0.4937   0.000    0.000    0.000    0.000    0.000    0.000
   7      2    3     -11.0660   0.000    0.000    0.000    0.000    0.000    0.000
   8      4    3      -0.6168   0.000    0.000    0.000    0.000    0.000    0.000
   9      7    4      -0.3515   0.000    0.000    0.000    0.000    0.000    0.000
  10     10    1       0.2815   0.000    0.000    0.000    0.000    0.000    0.000
  11     12    1       0.3649   0.000    0.000    0.000    0.000    0.000    0.000
  12     19    1       0.6222   0.000    0.000    0.000    0.000    0.000    0.000
  13     20    1       0.7256   0.000    0.000    0.000    0.000    0.000    0.000
  14     22    1       0.8496   0.000    0.000    0.000    0.000    0.000    0.000
  15     24    1       1.0192   0.000    0.000    0.000    0.000    0.000    0.000
  16     28    1       1.1070   0.000    0.000    0.000    0.000    0.000    0.000
  17     31    1       1.3539   0.000    0.000    0.000    0.000    0.000    0.000
  18     35    1       1.5087   0.000    0.000    0.000    0.000    0.000    0.000
  19     36    1       1.7643   0.000    0.000    0.000    0.000    0.000    0.000
  20     41    1       2.0797   0.000    0.000    0.000    0.000    0.000    0.000
  21     42    1       2.1186   0.000    0.000    0.000    0.000    0.000    0.000
  22     47    1       2.2571   0.000    0.000    0.000    0.000    0.000    0.000
  23     51    1       2.5870   0.000    0.000    0.000    0.000    0.000    0.000
  24     55    1       2.9551   0.000    0.000    0.000    0.000    0.000    0.000
  25     13    2       0.3715   0.000    0.000    0.000    0.000    0.000    0.000
  26     16    2       0.5629   0.000    0.000    0.000    0.000    0.000    0.000
  27     21    2       0.8299   0.000    0.000    0.000    0.000    0.000    0.000
  28     25    2       1.0250   0.000    0.000    0.000    0.000    0.000    0.000
  29     30    2       1.2955   0.000    0.000    0.000    0.000    0.000    0.000
  30     38    2       1.8653   0.000    0.000    0.000    0.000    0.000    0.000
  31     43    2       2.1417   0.000    0.000    0.000    0.000    0.000    0.000
  32     44    2       2.1704   0.000    0.000    0.000    0.000    0.000    0.000
  33     46    2       2.1845   0.000    0.000    0.000    0.000    0.000    0.000
  34     54    2       2.9514   0.000    0.000    0.000    0.000    0.000    0.000
  35     11    3       0.3350   0.000    0.000    0.000    0.000    0.000    0.000
  36     14    3       0.3881   0.000    0.000    0.000    0.000    0.000    0.000
  37     17    3       0.5783   0.000    0.000    0.000    0.000    0.000    0.000
  38     18    3       0.6091   0.000    0.000    0.000    0.000    0.000    0.000
  39     23    3       0.9546   0.000    0.000    0.000    0.000    0.000    0.000
  40     26    3       1.0261   0.000    0.000    0.000    0.000    0.000    0.000
  41     29    3       1.1289   0.000    0.000    0.000    0.000    0.000    0.000
  42     32    3       1.4324   0.000    0.000    0.000    0.000    0.000    0.000
  43     39    3       2.0122   0.000    0.000    0.000    0.000    0.000    0.000
  44     40    3       2.0428   0.000    0.000    0.000    0.000    0.000    0.000
  45     45    3       2.1712   0.000    0.000    0.000    0.000    0.000    0.000
  46     48    3       2.3360   0.000    0.000    0.000    0.000    0.000    0.000
  47     49    3       2.4383   0.000    0.000    0.000    0.000    0.000    0.000
  48     53    3       2.6971   0.000    0.000    0.000    0.000    0.000    0.000
  49     56    3       3.4050   0.000    0.000    0.000    0.000    0.000    0.000
  50     15    4       0.4429   0.000    0.000    0.000    0.000    0.000    0.000
  51     27    4       1.0963   0.000    0.000    0.000    0.000    0.000    0.000
  52     33    4       1.4502   0.000    0.000    0.000    0.000    0.000    0.000
  53     34    4       1.5071   0.000    0.000    0.000    0.000    0.000    0.000
  54     37    4       1.7738   0.000    0.000    0.000    0.000    0.000    0.000
  55     50    4       2.5796   0.000    0.000    0.000    0.000    0.000    0.000
  56     52    4       2.6490   0.000    0.000    0.000    0.000    0.000    0.000
  57     57    4       3.5019   0.000    0.000    0.000    0.000    0.000    0.000
------------------------------------------------------------------------------
  @DRVTDA-I, Roots obtained by Davidson method.
  calling tda davidson                       6                     2
  after tda davidson                      6                     6
                     3                     3
  kroot is                      3
__________________________________________________________________________
    Tamm-Dancoff (CIS) Excitation Energies and Transition Moments

                Excitation         Transition Dipole         Oscillator
 Root  Symmetry  Energy         x           y           z     Strength
__________________________________________________________________________
   1       2    0.23193      0.0000      0.0000      0.0000  .00000000D+00
__________________________________________________________________________
 
__________________________________________________________________________
  TDA excitation ergy:             0.231934655332 a.u.    6.3113 eV
  Total TDA electronic energy:   -78.261175846502 a.u.
 
  Dominant contributions: 
  SCF eigenvalue ordering used in list below. 
--------------------------------------------------------------------------------
    I    j    A    b
--------------------------------------------------------------------------------
    9    0   13    0  -0.9767654596 AA  
    8    0   13    0  -0.1925748175 AA  
    9    0   16    0   0.0395096411 AA  
    8    0   25    0  -0.0391682723 AA  
    9    0   21    0   0.0312090778 AA  
    9    0   25    0  -0.0307827992 AA  
    8    0   21    0   0.0298408671 AA  
    7    0   11    0   0.0278883079 AA  
    7    0   14    0   0.0214648789 AA  
    6    0   13    0   0.0210842186 AA  
    8    0   16    0  -0.0174461785 AA  
    5    0   12    0   0.0173833200 AA  
    7    0   17    0  -0.0110829673 AA  
    8    0   30    0  -0.0084161841 AA  
    4    0   15    0   0.0078005416 AA  
--------------------------------------------------------------------------------
   2       2    0.34297      0.0000      0.0000      0.0000  .00000000D+00
__________________________________________________________________________
 
__________________________________________________________________________
  TDA excitation ergy:             0.342967381587 a.u.    9.3326 eV
  Total TDA electronic energy:   -78.150143120247 a.u.
 
  Dominant contributions: 
  SCF eigenvalue ordering used in list below. 
--------------------------------------------------------------------------------
    I    j    A    b
--------------------------------------------------------------------------------
    8    0   13    0  -0.9329577154 AA  
    9    0   16    0  -0.2327273713 AA  
    9    0   13    0   0.1863364973 AA  
    7    0   11    0   0.1317072409 AA  
    8    0   21    0   0.0987914973 AA  
    8    0   25    0  -0.0972341994 AA  
    8    0   16    0  -0.0370404840 AA  
    9    0   21    0   0.0248790062 AA  
    9    0   25    0  -0.0233150787 AA  
    6    0   13    0  -0.0168241138 AA  
    7    0   14    0  -0.0159389649 AA  
    5    0   12    0  -0.0142435320 AA  
    7    0   23    0  -0.0130854331 AA  
    7    0   18    0   0.0129407545 AA  
    7    0   26    0  -0.0101841008 AA  
--------------------------------------------------------------------------------
   3       2    0.36273      0.0000      0.0000      0.0000  .00000000D+00
__________________________________________________________________________
 
__________________________________________________________________________
  TDA excitation ergy:             0.362733310132 a.u.    9.8705 eV
  Total TDA electronic energy:   -78.130377191702 a.u.
 
  Dominant contributions: 
  SCF eigenvalue ordering used in list below. 
--------------------------------------------------------------------------------
    I    j    A    b
--------------------------------------------------------------------------------
    7    0   11    0   0.7584667815 AA  
    9    0   16    0   0.6347668433 AA  
    9    0   13    0   0.0590667519 AA  
    7    0   17    0  -0.0582549850 AA  
    7    0   26    0  -0.0532005944 AA  
    7    0   14    0   0.0512684064 AA  
    7    0   23    0  -0.0426114679 AA  
    8    0   13    0  -0.0368947541 AA  
    8    0   16    0  -0.0340244985 AA  
    7    0   18    0   0.0322504505 AA  
    5    0   12    0   0.0284485346 AA  
    5    0   10    0   0.0280742595 AA  
    5    0   35    0   0.0274872228 AA  
    6    0   13    0   0.0210057656 AA  
    5    0   31    0  -0.0173297715 AA  
--------------------------------------------------------------------------------
__________________________________________________________________________
  @DOEOMEE-I, Excitation energies computed by the EOMEE-CCSD/CCSD-LR method.
  @DOEOMEE-I, right-hand eigenvectors will be computed.
  Beginning symmetry block   2.   3 roots requested.
  @DOEOMEE-I, Matrix dimension for diagonalization:    45852
  Creating initial guess for root
________________________________________________________________________
            Subspace          Eigenvalue           
 Iteration  Dimension   (a.u.)         (eV)       Overlap      Residual
________________________________________________________________________
  @NEWGES-I, Using TDA initial guess.
  1   1  0.2935964774D+00  0.7989166312D+01  0.0000000000D+00  0.1713495372D+01
  2   2  0.2301180994D+00  0.6261831829D+01  0.9427893752D+00  0.3288404603D+00
  3   3  0.2087141785D+00  0.5679401533D+01  0.9753305499D+00  0.5460866841D-01
  4   4  0.2048589221D+00  0.5574494673D+01  0.9968921190D+00  0.3641680456D-01
  5   5  0.2042094700D+00  0.5556822182D+01  0.9988825748D+00  0.8606066061D-02
  6   6  0.2041282649D+00  0.5554612480D+01  0.9999227406D+00  0.2721058873D-02
  L-O-C-K-I-N-G O-N R-O-O-T 
  7   7  0.2041345947D+00  0.5554784721D+01  0.9999946070D+00  0.8445035237D-03
  8   8  0.2041275931D+00  0.5554594199D+01  0.9999994265D+00  0.5951955297D-03
  9   9  0.2041276569D+00  0.5554595934D+01  0.9999997279D+00  0.1526338068D-03
 10  10  0.2041279762D+00  0.5554604622D+01  0.9999999757D+00  0.9843331538D-04
 11  11  0.2041277173D+00  0.5554597578D+01  0.9999999928D+00  0.2629651694D-04
 12  12  0.2041278677D+00  0.5554601670D+01  0.9999999995D+00  0.8475670229D-05
  Converged eigenvalue:   0.204127867677064       a.u.
   Total EOMEE-CCSD electronic energy      -78.643128745857254 a.u.
  Converged eigenvector 
  SCF eigenvalue ordering used in list below. 
--------------------------------------------------------------------------------
    I    j    A    b
--------------------------------------------------------------------------------
    9    0   13    0  -0.6547043375 AA  
    9    9   13   10  -0.2083133591 ABAB
    9    9   10   13  -0.2083133591 ABAB
    9    9   13   28   0.0527154722 ABAB
    9    9   28   13   0.0527154722 ABAB
    9    9   13   24  -0.0526386871 ABAB
    9    9   24   13  -0.0526386871 ABAB
    9    9   13   19   0.0362352518 ABAB
    9    9   19   13   0.0362352518 ABAB
    8    0   13    0  -0.0354019042 AA  
    9    0   25    0  -0.0340411123 AA  
    9    8   13   10   0.0331069495 ABAB
    8    9   10   13   0.0331069495 ABAB
    9    8   15   11   0.0322508990 ABAB
    8    9   11   15   0.0322508990 ABAB
--------------------------------------------------------------------------------
  Converged eigenvector, normalized to one 
  SCF eigenvalue ordering used in list below. 
--------------------------------------------------------------------------------
    I    j    A    b
--------------------------------------------------------------------------------
    9    0   13    0  -0.6547043375 AA  
    9    9   13   10  -0.2083133591 ABAB
    9    9   10   13  -0.2083133591 ABAB
    9    9   13   28   0.0527154722 ABAB
    9    9   28   13   0.0527154722 ABAB
    9    9   13   24  -0.0526386871 ABAB
    9    9   24   13  -0.0526386871 ABAB
    9    9   13   19   0.0362352518 ABAB
    9    9   19   13   0.0362352518 ABAB
    8    0   13    0  -0.0354019042 AA  
    9    0   25    0  -0.0340411123 AA  
    9    8   13   10   0.0331069495 ABAB
    8    9   10   13   0.0331069495 ABAB
    9    8   15   11   0.0322508990 ABAB
    8    9   11   15   0.0322508990 ABAB
--------------------------------------------------------------------------------

  Eigenvector is saved on CCRE_2_1  

  Adding new vector to expansion space.
  Guess for next eigenvalue   0.342967381586569     
 13  13  0.3436402236D+00  0.9350925876D+01  0.7126564580D+00  0.2521422951D+00
 14  14  0.3387612996D+00  0.9218163604D+01  0.9897749187D+00  0.1017674287D+00
 15  15  0.3378695075D+00  0.9193896707D+01  0.9976672419D+00  0.1652879983D-01
 16  16  0.3376892292D+00  0.9188991086D+01  0.9996171325D+00  0.7952179166D-02
  L-O-C-K-I-N-G O-N R-O-O-T 
 17  17  0.3376691823D+00  0.9188445582D+01  0.9998663111D+00  0.3078294684D-02
 18  18  0.3376650686D+00  0.9188333641D+01  0.9999591805D+00  0.1428420036D-02
 19  19  0.3376648042D+00  0.9188326448D+01  0.9999962198D+00  0.5115802786D-03
 20  20  0.3376655886D+00  0.9188347791D+01  0.9999997244D+00  0.2225305745D-03
 21  21  0.3376654841D+00  0.9188344950D+01  0.9999999596D+00  0.7615597785D-04
 22  22  0.3376654147D+00  0.9188343061D+01  0.9999999929D+00  0.4204593304D-04
 23  23  0.3376653722D+00  0.9188341903D+01  0.9999999985D+00  0.1275180646D-04
 24  24  0.3376653907D+00  0.9188342406D+01  0.9999999999D+00  0.4153424533D-05
  Converged eigenvalue:   0.337665390664797       a.u.
   Total EOMEE-CCSD electronic energy      -78.509591222869517 a.u.
  Converged eigenvector 
  SCF eigenvalue ordering used in list below. 
--------------------------------------------------------------------------------
    I    j    A    b
--------------------------------------------------------------------------------
    8    0   13    0   0.5427621176 AA  
    7    0   11    0  -0.3937021976 AA  
    9    9   13   10  -0.0834832627 ABAB
    9    9   10   13  -0.0834832627 ABAB
    8    0   25    0   0.0581235880 AA  
    8    0   21    0  -0.0541695080 AA  
    5    8   11   11  -0.0538298782 ABAB
    8    5   11   11  -0.0538298782 ABAB
    8    8   15   11  -0.0407492490 ABAB
    8    8   11   15  -0.0407492490 ABAB
    7    0   26    0   0.0345577371 AA  
    7    0   23    0   0.0307401219 AA  
    8    0   16    0   0.0298481150 AA  
    5    8   13   13   0.0283259072 ABAB
    8    5   13   13   0.0283259072 ABAB
--------------------------------------------------------------------------------
  Converged eigenvector, normalized to one 
  SCF eigenvalue ordering used in list below. 
--------------------------------------------------------------------------------
    I    j    A    b
--------------------------------------------------------------------------------
    8    0   13    0   0.5427621176 AA  
    7    0   11    0  -0.3937021976 AA  
    9    9   13   10  -0.0834832627 ABAB
    9    9   10   13  -0.0834832627 ABAB
    8    0   25    0   0.0581235880 AA  
    8    0   21    0  -0.0541695080 AA  
    5    8   11   11  -0.0538298782 ABAB
    8    5   11   11  -0.0538298782 ABAB
    8    8   15   11  -0.0407492490 ABAB
    8    8   11   15  -0.0407492490 ABAB
    7    0   26    0   0.0345577371 AA  
    7    0   23    0   0.0307401219 AA  
    8    0   16    0   0.0298481150 AA  
    5    8   13   13   0.0283259072 ABAB
    8    5   13   13   0.0283259072 ABAB
--------------------------------------------------------------------------------

  Eigenvector is saved on CCRE_2_2  

  Adding new vector to expansion space.
  Guess for next eigenvalue   0.362733310131576     
 25  25  0.3514116534D+00  0.9562397233D+01  0.5224387421D+00  0.7084848229D-01
 26  26  0.3495719459D+00  0.9512336245D+01  0.9974636880D+00  0.1648653220D-01
 27  27  0.3492773810D+00  0.9504320726D+01  0.9997853371D+00  0.5390819435D-02
  L-O-C-K-I-N-G O-N R-O-O-T 
 28  28  0.3492505085D+00  0.9503589489D+01  0.9999821222D+00  0.1607594112D-02
 29  29  0.3492511859D+00  0.9503607923D+01  0.9999976657D+00  0.7425607319D-03
 30  30  0.3492510125D+00  0.9503603205D+01  0.9999993382D+00  0.3289812122D-03
 31  31  0.3492508378D+00  0.9503598451D+01  0.9999998772D+00  0.1132953034D-03
 32  32  0.3492509682D+00  0.9503601999D+01  0.9999999883D+00  0.4486826209D-04
 33  33  0.3492509264D+00  0.9503600862D+01  0.9999999985D+00  0.1510575559D-04
 34  34  0.3492509157D+00  0.9503600571D+01  0.9999999998D+00  0.5888990307D-05
  Converged eigenvalue:   0.349250915724167       a.u.
   Total EOMEE-CCSD electronic energy      -78.498005697810143 a.u.
  Converged eigenvector 
  SCF eigenvalue ordering used in list below. 
--------------------------------------------------------------------------------
    I    j    A    b
--------------------------------------------------------------------------------
    7    0   11    0   0.5409215287 AA  
    8    0   13    0   0.3850722886 AA  
    9    0   16    0   0.1234348479 AA  
    5    8   11   11   0.0688331981 ABAB
    8    5   11   11   0.0688331981 ABAB
    9    9   13   10  -0.0534279190 ABAB
    9    9   10   13  -0.0534279190 ABAB
    7    0   26    0  -0.0437605986 AA  
    8    0   25    0   0.0402073661 AA  
    9    9   16   10   0.0386025747 ABAB
    9    9   10   16   0.0386025747 ABAB
    7    0   23    0  -0.0375389347 AA  
    7    0   17    0  -0.0357607892 AA  
    7    0   18    0   0.0262963643 AA  
    8    0   21    0  -0.0254820215 AA  
--------------------------------------------------------------------------------
  Converged eigenvector, normalized to one 
  SCF eigenvalue ordering used in list below. 
--------------------------------------------------------------------------------
    I    j    A    b
--------------------------------------------------------------------------------
    7    0   11    0   0.5409215287 AA  
    8    0   13    0   0.3850722886 AA  
    9    0   16    0   0.1234348479 AA  
    5    8   11   11   0.0688331981 ABAB
    8    5   11   11   0.0688331981 ABAB
    9    9   13   10  -0.0534279190 ABAB
    9    9   10   13  -0.0534279190 ABAB
    7    0   26    0  -0.0437605986 AA  
    8    0   25    0   0.0402073661 AA  
    9    9   16   10   0.0386025747 ABAB
    9    9   10   16   0.0386025747 ABAB
    7    0   23    0  -0.0375389347 AA  
    7    0   17    0  -0.0357607892 AA  
    7    0   18    0   0.0262963643 AA  
    8    0   21    0  -0.0254820215 AA  
--------------------------------------------------------------------------------

  Eigenvector is saved on CCRE_2_3  

  Solution of   3 roots required   34 iterations.
 @CHECKOUT-I, Total execution time (CPU/WALL):       19.69/       2.47 seconds.
--executable xvee finished with status     0 in        2.49 seconds (walltime).
  The final electronic energy is       -78.498005697810143 a.u. 
  This computation required                            4.13 seconds (walltime).
