CFour on node02
 --invoking executable--
/home/tsommerfeld/zscale/bin/xjoda


   *************************************************************************
         <<<     CCCCCC     CCCCCC   |||     CCCCCC     CCCCCC   >>>
       <<<      CCC        CCC       |||    CCC        CCC         >>>
      <<<      CCC        CCC        |||   CCC        CCC            >>>
    <<<        CCC        CCC        |||   CCC        CCC              >>>
      <<<      CCC        CCC        |||   CCC        CCC            >>>
       <<<      CCC        CCC       |||    CCC        CCC         >>>
         <<<     CCCCCC     CCCCCC   |||     CCCCCC     CCCCCC   >>>
   *************************************************************************

     ****************************************************************
     * CFOUR Coupled-Cluster techniques for Computational Chemistry *
     ****************************************************************
 

   Department of Chemistry                Institut fuer Physikalische Chemie
   University of Florida                  Universitaet Mainz
   Gainesville, FL 32611, USA             D-55099 Mainz, Germany

   Department of Chemistry                Department of Chemistry
   Johns Hopkins University               Southern Methodist University
   Baltimore, MD 21218, USA               Dallas, TX 75275, USA

   Institute of Nanotechnology            Department of Physical Chemistry
   Karlsruhe Inst. of Technology          Eotvos Lorand University
   D-76021 Karlsruhe, Germany             H-1053 Budapest, Hungary

 
                       Version 2.1
 
                     node02                                            
                     Tue Mar 29 15:02:55 CST 2022                      
                     integer*8 version is running
 
********************************************************************************
*                          Input from ZMAT file                                *
********************************************************************************
h_ethylene                                                                      
C       0.000000      0.0   -0.664500                                           
C       0.000000      0.0    0.664500                                           
H       0.962348      0.0   -1.159080                                           
H       0.962348      0.0    1.159080                                           
H      -0.962348      0.0   -1.159080                                           
H      -0.962348      0.0    1.159080                                           
H      0.000000      3.603448275862069      0.000000                            
                                                                                
*CFOUR(CALC=CCSD                                                                
EXCITE=EOMEE                                                                    
ESTATE_SYM=0/3/0/0                                                              
CC_PROG=VCC                                                                     
CHARGE=-1                                                                       
COORDINATES=CARTESIAN                                                           
SCF_DAMP=500                                                                    
SCF_MAXCYC=300                                                                  
BASIS=SPECIAL                                                                   
REFERENCE=RHF                                                                   
MEM_SIZE=90,MEM_UNIT=GB)                                                        
                                                                                
C:CC-PVDZ                                                                       
C:CC-PVDZ                                                                       
H:CC-PVDZ                                                                       
H:CC-PVDZ                                                                       
H:CC-PVDZ                                                                       
H:CC-PVDZ                                                                       
H:AUG-CC-PVDZ                                                                   
                                                                                
********************************************************************************
    -------------------------------------------------------------------
                    CFOUR Control Parameters 
    -------------------------------------------------------------------
        External           Internal           Value            Units
          Name               Name
    -------------------------------------------------------------------
       ABCDTYPE             IABCDT         STANDARD    [  0]    ***   
       ANHARMONIC           IANHAR         OFF         [  0]    ***   
       ANH_ALGORIT          IANALG         STANDARD    [  0]    ***   
       ANH_DERIVAT          IANDER         SECOND      [  1]    ***   
       ANH_MODE             ANHMOD         VIBRATION   [  0]    ***   
       ANH_STEPSIZ          ICUBST             50000          x 10-6  
       ANH_SYMMETR          IANHSM         ABELIAN     [  0]    ***   
       AO_LADDERS           IAOLAD         SINGLEPASS  [  1]    ***   
       AV_SCF               IAVSCF         OFF         [  0]    ***   
       BASIS                IBASIS         SPECIAL     [  0]    ***   
       BOTHVECTORS          BOTHVC         OFF         [  0]    ***   
       BOX_POTENT           IPIAB          OFF         [  0]    ***   
       BREIT                IBREIT         OFF         [  0]    ***   
       BRUCK_CONV           IBRTOL          10D-  4             ***   
       BRUECKNER            IBRKNR         OFF         [  0]    ***   
       BUFFERSIZE           IBUFFS              4096            ***   
       CACHE_RECS           ICHREC             10               ***   
       CALCLEVEL            ICLLVL         CCSD        [ 10]    ***   
       CCORBOPT             ICCORB         OFF         [  0]  x 0.01  
       CC_CONV              ICCCNV          10D-  7             ***   
       CC_EXPORDER          ICCEOR              5               ***   
       CC_EXTRAPOL          ICCEXT         DIIS        [  1]    ***   
       CC_GUESS             ICCGES         MP2         [  0]    ***   
       CC_MAXCYC            ICCCYC            100              cycles 
       CC_PROGRAM           ICCPRO         VCC         [  0]    ***   
       CHARGE               ICHRGE             -1               ***   
       CHOLESKY             ICHOLE         OFF         [  0]    ***   
       CIS_CONV             ICISTL              5               ***   
       COMM_SIZE            IPSIZE            ***               ***   
       CONSTANT             ICONST         OLD         [  1]    ***   
       CONTINUUM            ICONTU         NONE        [  0]    ***   
       CONTRACTION          ICNTYP         GENERAL     [  1]    ***   
       COORDINATES          ICOORD         CARTESIAN   [  1]    ***   
       CPHF_CONVER          ICPHFT          10D- 16             ***   
       CPHF_MAXCYC          ICPHFC             64              cycles 
       CUBIC                ICUBIC         OFF         [  0]    ***   
       CURVILINEAR          ICURVY         OFF         [  0]    ***   
       DBOC                 IDBOC          OFF         [  0]    ***   
       DCT                  IDCT           OFF         [  0]    ***   
       DERIV_LEV            IDRLVL         ZERO        [  0]    ***   
       DEVMEM_SIZE          IDVMEM         *********           MByte  
       DIAG_MRCC            IEOMST          10D-  0             ***   
       DIFF_TYPE            IDIFTY         RELAXED     [  0]    ***   
       DIRECT               IDIRCT         OFF         [  0]    ***   
       DROPMO               IDRPMO      NONE         
       ECP                  IECP           OFF         [  0]    ***   
       EIGENVECTOR          IVEC                1               ***   
       EL_ANHARM            IELANH         OFF         [  0]    ***   
       EOMFOLLOW            IEOMSR         ENERGY      [  0]    ***   
       EOMIP                IEOMIP         OFF         [  0]    ***   
       EOMLEVEL             HBARFM         SAME        [  0]    ***   
       EOM_MRCC             IMRCCE         NEW         [  1]    ***   
       EOM_NONIT            EOMNON         OFF         [  0]    ***   
       EOM_NSING            IEOMSI          10D-  0             ***   
       EOM_NSTATES          IMRCCD         DAVIDSON    [  0]    ***   
       EOM_NTRIP            IEOMTR          10D-  0             ***   
       EOM_ORDER            IEXORD         ENERGY      [  0]    ***   
       EOM_PROPSTA          IEOMST              0               ***   
       ESTATE_CONV          IEXTOL          10D-  5             ***   
       ESTATE_DIAG          IEXDIG         ITERATIVE   [  0]    ***   
       ESTATE_LOCK          IESLOC         ON          [  1]    ***   
       ESTATE_MAXC          IEXMXC             40               ***   
       ESTATE_PROP          IEXPRP         OFF         [  0]    ***   
       ESTATE_SYM           IEXSYM   0,  3,  0,  0,
       EVAL_HESS            IRECAL              0            # of cyc.
       EXCITATION           IEXCIT              0               ***   
       EXCITE               IEXCIT         EOMEE       [  3]    ***   
       EXTERN_POT           IEXPOT         OFF         [  0]    ***   
       FCGRADNEW            IFCGNW         OFF         [  0]    ***   
       FC_FIELD             IFINFC              0             x 10-6  
       FD_CALTYPE           IFDCAL         GRADONLY    [  0]    ***   
       FD_PROJECT           IFDPRJ         OFF         [  1]    ***   
       FD_STEPSIZE          IDISFD              0            10-4 bohr
       FD_USEGROUP          IFDGRP         FULL        [  0]    ***   
       FILE_RECSIZ          IFLREC              4096           words  
       FINITE_PERT          IFIPER              0             x 10-6  
       FIXGEOM              IFIXGM         OFF         [  0]    ***   
       FOCK                 IFOCK          AO          [  1]    ***   
       FREQ_ALGORI          IVIALG         STANDARD    [  0]    ***   
       FROZEN_CORE          IFROCO         OFF         [  0]    ***   
       GAMMA_ABCD           IGABCD         STORE       [  0]    ***   
       GAMMA_ABCI           IGABCI         STORE       [  0]    ***   
       GENBAS_1             IGNBS1              0               ***   
       GENBAS_2             IGNBS2              0               ***   
       GENBAS_3             IGNBS3              0               ***   
       GENBAS_4             IGNBS4              0               ***   
       GEO_CONV             ICONTL              5              H/bohr 
       GEO_MAXCYC           IOPTCY             50               ***   
       GEO_MAXSTEP          IMXSTP            300            millibohr
       GEO_METHOD           INR            SINGLE_POINT[  5]    ***   
       GIAO                 IGIAO          OFF         [  1]    ***   
       GIMIC                IGIMIC         OFF         [  0]    ***   
       GRID                 IGRID          OFF         [  0]    ***   
       GRID_ALGO            IGALGO         SERIAL      [  0]    ***   
       GUESS                IGUESS         MOREAD      [  0]    ***   
       HBAR                 IHBAR          ON          [  1]    ***   
       HESS_TYPE            IHESTP         SCF         [  0]    ***   
       HF2_FILE             IHF2Fl         USE         [  1]    ***   
       HFSTABILITY          ISTABL         OFF         [  0]    ***   
       INCORE               INCORE         OFF         [  0]    ***   
       INPUT_MRCC           IMRCC          ON          [  1]    ***   
       INTEGRALS            INTTYP         VMOL        [  1]    ***   
       JODA_PRINT           IJPRNT              0               ***   
       KEYWORD_OUT          IDMPKW         NO          [  0]    ***   
       LINDEP_TOL           ILINDP              8               ***   
       LINEQ_CONV           IZTACN          10D-  7           cycles  
       LINEQ_EXPOR          ILMAXD              5               ***   
       LINEQ_MAXCY          ILMAXC            100               ***   
       LINEQ_TYPE           ILTYPE         DIIS        [  1]    ***   
       LOCK_ORBOCC          ILOCOC         OFF         [  0]    ***   
       MEMORY_SIZE          IMEMSZ         *********           words  
       MEM_UNIT             IMEMU          GB          [  3]    ***   
       MRCC                 IMRCCC         OFF         [  0]    ***   
       MULTIPLICTY          IMULTP              1               ***   
       NACOUPLING           IVCOUP         OFF         [  0]    ***   
       NEGEVAL              IDIE           ABORT       [  0]    ***   
       NEWNORM              INEWNO         OFF         [  0]    ***   
       NON-HF               INONHF         OFF         [  0]    ***   
       NTOP_TAMP            ITOPT2             15               ***   
       NUC_MODEL            INUCMO         POINT       [  0]    ***   
       OCCUPATION           IOCCU   ESTIMATED BY SCF 
       OPEN-SHELL           IOPEN          SPIN-ORBITAL[  0]    ***   
       OPTVIB               IOPTVB         OFF         [  0]    ***   
       ORBITALS             IORBTP         STANDARD    [  0]    ***   
       PARALLEL             IPARAL         ON          [  1]    ***   
       PARA_INT             IPINTS         ON          [  1]    ***   
       PARA_PRINT           IPPRIN              0               ***   
       PERT_ORB             IPTORB         STANDARD    [  0]    ***   
       POINTS               IGRDFD              0               ***   
       PRINT                IPRNT               0               ***   
       PROPS                IPROPS         OFF         [  0]    ***   
       PROP_INTEGR          IINTYP         INTERNAL    [  0]    ***   
       PSI                  IPSI           OFF         [  0]    ***   
       QC_ALG               IQCALG         FLM         [  0]    ***   
       QC_LINALG            IQCLIN         TRIDIAG     [  2]    ***   
       QC_MAXCYC            IQCMAX          10D-100           cycles  
       QC_MAXSCFCY          IQCMSC          10D- 15           cycles  
       QC_RTRUST            IQCRTR          10D-  0           x 10-3  
       QC_SKIPSCF           IQCSKI         OFF         [  0]    ***   
       QC_START             IQCSTA          10D-  1             ***   
       QRHFGUESS            IQGUES         OFF         [  0]    ***   
       QUARTIC              IQUART         OFF         [  0]    ***   
       RAMAN_INT            IRAMIN         OFF         [  0]    ***   
       RAMAN_ORB            IRAMRE         UNRELAXED   [  0]    ***   
       RDO                  IRDOFM         OFF         [  0]    ***   
       REDUCE_REPR          REDREP         Ir          [  0]    ***   
       REFERENCE            IREFNC         RHF         [  0]    ***   
       RELATIVIST           IRELAT         OFF         [  0]    ***   
       RELAX_DENS           IRDENS         OFF         [  0]    ***   
       RESET_FLAGS          IRESET         OFF         [  0]    ***   
       RESTART_CC           ICCRES         OFF         [  0]    ***   
       ROT_EVEC             ROTVEC              0               ***   
       SAVE_INTS            ISVINT         OFF         [  0]    ***   
       SCALE_ON             ISTCRT              0               ***   
       SCF_CONV             ISCFCV          10D-  7             ***   
       SCF_DAMPING          IDAMP             500             x 10-3  
       SCF_EXPORDE          IRPPOR              6               ***   
       SCF_EXPSTAR          IRPPLS              8               ***   
       SCF_EXTRAPO          IRPP           ON          [  1]    ***   
       SCF_MAXCYC           ISCFCY            300              cycles 
       SCF_NOSTOP           ISCFST         OFF         [  0]    ***   
       SCF_PRINT            ISCFPR              0               ***   
       SCF_PROG             ISCFPR         SCF         [  0]    ***   
       SD_FIELD             IFINSD              0             x 10-6  
       SOPERT               IPERSO         OFF         [  0]    ***   
       SPHERICAL            IDFGHI         ON          [  1]    ***   
       SPINORBIT            ISOCAL         OFF         [  0]    ***   
       SPINROTATIO          ISRCON         OFF         [  0]    ***   
       SPIN_FLIP            ISPFLP         OFF         [  0]    ***   
       SPIN_ORBIT           ISPORB         OFF         [  0]    ***   
       SPIN_SCAL            ISCSMP         OFF         [  0]    ***   
       STEEPSCALE           ISTPSC              1000          x 10-3  
       SUBGROUP             ISUBGP         DEFAULT     [  0]    ***   
       SUBGRPAXIS           ISBXYZ         X           [  0]    ***   
       SYMMETRY             ISYM           ON          [  0]    ***   
       SYM_CHECK            ISYMCK         OVERRIDE    [  1]    ***   
       T3_EXTRAPOL          IT3EXT         OFF         [  0]    ***   
       T4_EXTRAPOL          IT4EXP         OFF         [  0]    ***   
       TAMP_SUM             IEVERY              5               ***   
       TESTSUITE            ITESTS         OFF         [  0]    ***   
       THERMOCH             ITHERM         OFF         [  0]    ***   
       TOL_CHOLESK          ITOLCH          10D-  4             ***   
       TRANGRAD             IRESRM         OFF         [  0]    ***   
       TRANS_INV            ITRAIN         USE         [  0]    ***   
       TREAT_PERT           ITREAT         SIMULTANEOUS[  0]    ***   
       TRIP_ALGORI          ITRALG         NORMAL      [  0]    ***   
       UIJ_THRESHO          IUIJTH              1               ***   
       UNITS                IUNITS         ANGSTROM    [  0]    ***   
       UNOS                 IUNOS          OFF         [  0]    ***   
       UPDATE_HESS          IHUPDT         ON          [  1]    ***   
       VIBPHASE             ISETPH         STANDARD    [  0]    ***   
       VIBRATION            IVIB           NO          [  0]    ***   
       VIB_ALGORIT          IGEALG         STANDARD    [  0]    ***   
       VNATORB              IVNORB         OFF         [  0]    ***   
       VTRAN                IVTRAN         FULL/PARTIAL[  0]    ***   
       XFIELD               IXEFLD              0             x 10-6  
       XFORM_TOL            IXFTOL          10D- 11             ***   
       YFIELD               IYEFLD              0             x 10-6  
       ZFIELD               IZEFLD              0             x 10-6  
       ZSCALE_EXP           IZEXPS         OFF         [  0]    ***   
    -------------------------------------------------------------------
  @GETXYZ-I,     7 atoms read from ZMAT.
   Rotational constants (in cm-1): 
          0.5884886914             0.8536890782             1.0300578467
   Rotational constants (in MHz): 
      17642.4496018483         25592.9582983935         30880.3617014094
********************************************************************************
   The full molecular point group is C2v .
   The largest Abelian subgroup of the full molecular point group is C2v .
   The computational point group is C2v .
********************************************************************************


 ----------------------------------------------------------------
         Coordinates used in calculation (QCOMP) 
 ----------------------------------------------------------------
 Z-matrix   Atomic            Coordinates (in bohr)
  Symbol    Number           X              Y              Z
 ----------------------------------------------------------------
     C         6         0.00000000    -1.25572327     0.23633000
     C         6         0.00000000     1.25572327     0.23633000
     H         1         1.81857454    -2.19034422     0.23633000
     H         1         1.81857454     2.19034422     0.23633000
     H         1        -1.81857454    -2.19034422     0.23633000
     H         1        -1.81857454     2.19034422     0.23633000
     H         1         0.00000000     0.00000000    -6.57320177
 ----------------------------------------------------------------
 
   Interatomic distance matrix (Angstroms) 
 
                 C             C             H             H             H    
                [ 1]        [ 2]        [ 3]        [ 4]        [ 5]
  C    [ 1]     0.00000
  C    [ 2]     1.32900     0.00000
  H    [ 3]     1.08200     2.06193     0.00000
  H    [ 4]     2.06193     1.08200     2.31816     0.00000
  H    [ 5]     1.08200     2.06193     1.92470     3.01303     0.00000
  H    [ 6]     2.06193     1.08200     3.01303     1.92470     2.31816
  H    [ 7]     3.66421     3.66421     3.90569     3.90569     3.90569
 
                 H             H    
                [ 6]        [ 7]
  H    [ 6]     0.00000
  H    [ 7]     3.90569     0.00000
 rotcon2
   Rotational constants (in cm-1): 
          0.5884886914             1.0300578467             0.8536890782
   Rotational constants (in MHz): 
      17642.4496018483         30880.3617014094         25592.9582983935
  ECPDATA file not present.   Using default ECPDATA. 
  There are   57 basis functions.
 @GEOPT-W, Archive file not created for single-point calculation.
 @CHECKOUT-I, Total execution time (CPU/WALL):        0.12/       0.13 seconds.
--executable xjoda finished with status     0 in        0.15 seconds (walltime).
 --invoking executable--
/home/tsommerfeld/zscale/bin/xvmol
 SERIAL VERSION OF MOLECULE STARTED
********************************************************************************
                    INPUT FROM MOL FILE
********************************************************************************
INTGRL        1    0    1    0    0    0    0    0    0                         
         *** CFOUR Program System (Release V0.1) ***                            
h_ethylene                                                                      
    3    2 X  Y       0.10E-08              0    0                              
   9999.00      3.00                                                            
          6.00000000    1    3    1    1    1                                   
C #1   0.000000000000000  -1.255723272983657   0.236330004979431                
    9    3                                                                      
   6665.00000000000       6.920000000000000E-004 -1.460000000000000E-004        
  0.000000000000000E+000                                                        
   1000.00000000000       5.329000000000000E-003 -1.154000000000000E-003        
  0.000000000000000E+000                                                        
   228.000000000000       2.707700000000000E-002 -5.725000000000000E-003        
  0.000000000000000E+000                                                        
   64.7100000000000       0.101718000000000      -2.331200000000000E-002        
  0.000000000000000E+000                                                        
   21.0600000000000       0.274740000000000      -6.395500000000000E-002        
  0.000000000000000E+000                                                        
   7.49500000000000       0.448564000000000      -0.149981000000000             
  0.000000000000000E+000                                                        
   2.79700000000000       0.285074000000000      -0.127262000000000             
  0.000000000000000E+000                                                        
  0.521500000000000       1.520400000000000E-002  0.544529000000000             
  0.000000000000000E+000                                                        
  0.159600000000000      -3.191000000000000E-003  0.580496000000000             
   1.00000000000000                                                             
    4    2                                                                      
   9.43900000000000       3.810900000000000E-002  0.000000000000000E+000        
   2.00200000000000       0.209480000000000       0.000000000000000E+000        
  0.545600000000000       0.508557000000000       0.000000000000000E+000        
  0.151700000000000       0.468842000000000        1.00000000000000             
    1    1                                                                      
  0.550000000000000        1.00000000000000                                     
          1.00000000    1    2    1    1                                        
H #2   1.818574537711477  -2.190344215575466   0.236330004979431                
    4    2                                                                      
   13.0100000000000       1.968500000000000E-002  0.000000000000000E+000        
   1.96200000000000       0.137977000000000       0.000000000000000E+000        
  0.444600000000000       0.478148000000000       0.000000000000000E+000        
  0.122000000000000       0.501240000000000        1.00000000000000             
    1    1                                                                      
  0.727000000000000        1.00000000000000                                     
          1.00000000    1    2    1    1                                        
H #3   0.000000000000000   0.000000000000000  -6.573201767771259                
    5    3                                                                      
   13.0100000000000       1.968500000000000E-002  0.000000000000000E+000        
  0.000000000000000E+000                                                        
   1.96200000000000       0.137977000000000       0.000000000000000E+000        
  0.000000000000000E+000                                                        
  0.444600000000000       0.478148000000000       0.000000000000000E+000        
  0.000000000000000E+000                                                        
  0.122000000000000       0.501240000000000        1.00000000000000             
  0.000000000000000E+000                                                        
  2.974000000000000E-002  0.000000000000000E+000  0.000000000000000E+000        
   1.00000000000000                                                             
    2    2                                                                      
  0.727000000000000        1.00000000000000       0.000000000000000E+000        
  0.141000000000000       0.000000000000000E+000   1.00000000000000             
FINISH                                                                          
 
********************************************************************************
 ONE- AND TWO-ELECTRON INTEGRALS OVER SYMMETRY-ADAPTED AOS ARE CALCULATED.

  SPHERICAL HARMONICS ARE USED.
  
  INTEGRALS LESS THAN  0.10E-13 ARE NEGLECTED.

  NUCLEAR REPULSION ENERGY :   35.8641861846 A.U.
  @MOLECU-I, ONE ELECTRON INTEGRALS (CPU/WALL):        0.01/       0.01 SECONDS.
  @TWOEL-I,      29549 INTEGRALS OF SYMMETRY TYPE  I I I I
  @TWOEL-I,     102147 INTEGRALS OF SYMMETRY TYPE  I J I J
  @TWOEL-I,      58054 INTEGRALS OF SYMMETRY TYPE  I I J J
  @TWOEL-I,      75371 INTEGRALS OF SYMMETRY TYPE  I J K L
  @TWOEL-I, TOTAL NUMBER OF 2-E INTEGRALS     265121.
  @MOLECU-I, TWO ELECTRON INTEGRALS (CPU/WALL):        0.22/       0.23 SECONDS.
 @CHECKOUT-I, Total execution time (CPU/WALL):        0.24/       0.25 seconds.

Running with 8 threads/proc

--executable xvmol finished with status     0 in        0.27 seconds (walltime).
 --invoking executable--
/home/tsommerfeld/zscale/bin/xvmol2ja
 @GETMEM-I,  Allocated   85830 MB of main memory.
 @CHECKOUT-I, Total execution time (CPU/WALL):        0.02/       0.01 seconds.
--executable xvmol2ja finished with status     0 in        0.03 seconds (walltime).
 --invoking executable--
/home/tsommerfeld/zscale/bin/xvscf
  There are   57 functions in the AO basis.

  There are 4 irreducible representations.

       Irrep        # of functions
         1                 20
         2                 11
         3                 17
         4                  9


  Parameters for SCF calculation: 
        SCF reference function:  RHF  
  Maximum number of iterations:  300
     Full symmetry point group: C2v 
     Computational point group: C2v 
        Initial density matrix: MOREAD                 
     SCF convergence tolerance: 10**(- 7)
  DIIS convergence acceleration:  ON
          Latest start for DIIS:   8
                     DIIS order:   6

  Memory information:     156410 words required.
  Fock matrices are constructed from AO integral file.
 @GETMEM-I,  Allocated       1 MB of main memory.
  Initialization and symmetry analysis required      0.001 seconds.

  @INITGES-I, Occupancies from core Hamiltonian:

          Alpha population by irrep:   3    1    4    1
           Beta population by irrep:   3    1    4    1


 total no. of electrons in initial guess :  0.000000000000000E+000
  --------------------------------------------------------------------
  Iteration         Total Energy            Largest Density Difference
  --------------------------------------------------------------------
       0            35.864186184615086              0.0000000000D+00
   current occupation vector 
     3  1  4  1
     3  1  4  1
  applying damping factor of   0.500000000000000     
       1           -39.250206878276650              0.8823734939D+01
   current occupation vector 
     3  1  4  1
     3  1  4  1
  applying damping factor of   0.500000000000000     
       2           -60.689422292104716              0.3200792181D+01
   current occupation vector 
     4  1  3  1
     4  1  3  1
  applying damping factor of   0.500000000000000     
       3           -69.775046083692786              0.2683083147D+01
   current occupation vector 
     5  1  2  1
     5  1  2  1
  applying damping factor of   0.500000000000000     
       4           -74.160416292101132              0.1425183177D+01
   current occupation vector 
     5  1  2  1
     5  1  2  1
  applying damping factor of   0.500000000000000     
       5           -76.332434965889689              0.7383456091D+00
   current occupation vector 
     5  1  2  1
     5  1  2  1
  applying damping factor of   0.500000000000000     
       6           -77.419336554897029              0.3791181195D+00
   current occupation vector 
     5  1  2  1
     5  1  2  1
  applying damping factor of   0.500000000000000     
       7           -77.965001162265366              0.2547480799D+00
   current occupation vector 
     5  1  2  1
     5  1  2  1
       8           -78.515081483312770              0.1363616770D+00
   current occupation vector 
     5  1  2  1
     5  1  2  1
       9           -78.515083249291223              0.2300277126D-02
   current occupation vector 
     5  1  2  1
     5  1  2  1
      10           -78.515083443919167              0.4968244887D-03
   current occupation vector 
     5  1  2  1
     5  1  2  1
      11           -78.515083453380782              0.7804456685D-04
   current occupation vector 
     5  1  2  1
     5  1  2  1
      12           -78.515083453700555              0.1277187500D-04
   current occupation vector 
     5  1  2  1
     5  1  2  1
      13           -78.515083453724372              0.3678222711D-05
   current occupation vector 
     5  1  2  1
     5  1  2  1
      14           -78.515083453725339              0.7614345400D-06
   current occupation vector 
     5  1  2  1
     5  1  2  1
      15           -78.515083453725225              0.1316370410D-06
   current occupation vector 
     5  1  2  1
     5  1  2  1

  SCF has converged.

 Density matrix saved to file den.dat
 total electron number:   18.0000000000000     
     E(SCF)=       -78.515083453725339              0.3607107268D-07


  Final occupancies:

     Alpha population by irrep:   5    1    2    1
      Beta population by irrep:   5    1    2    1


  Eigenvector printing suppressed.

 @PUTMOS-I, Writing converged MOs to NEWMOS. 
 @PUTMOS-I, Symmetry   1 Full Blocks  5 Partial Blocksize   0
 @PUTMOS-I, Symmetry   2 Full Blocks  2 Partial Blocksize   3
 @PUTMOS-I, Symmetry   3 Full Blocks  4 Partial Blocksize   1
 @PUTMOS-I, Symmetry   4 Full Blocks  2 Partial Blocksize   1
 @PUTFOCK-I, Writing converged Fock matrix to NEWFOCK. 
 @PUTFOCK-I, Symmetry   1 Full Blocks  5 Partial Blocksize   0
 @PUTFOCK-I, Symmetry   2 Full Blocks  2 Partial Blocksize   3
 @PUTFOCK-I, Symmetry   3 Full Blocks  4 Partial Blocksize   1
 @PUTFOCK-I, Symmetry   4 Full Blocks  2 Partial Blocksize   1


 
  ORBITAL EIGENVALUES (ALPHA)  (1H = 27.2113834 eV)

       MO #        E(hartree)               E(eV)           FULLSYM    COMPSYM
       ----   --------------------   --------------------   -------   ---------
    1     1         -11.0990694874        -302.0210352057      A1        A1 (1)
    2    32         -11.0973605127        -301.9745316392      B2        B2 (3)
    3     2          -0.9029404788         -24.5702595552      A1        A1 (1)
    4    33          -0.6463001793         -17.5867219698      B2        B2 (3)
    5    21          -0.5240190840         -14.2592842029      B1        B1 (2)
    6     3          -0.4307653606         -11.7217213828      A1        A1 (1)
    7    49          -0.3808297475         -10.3629042692      A2        A2 (4)
    8     4          -0.2382444954          -6.4829623080      A1        A1 (1)
    9     5          -0.0384744511          -1.0469430397      A1        A1 (1)
  +++++++++++++++++++++++++++++++++++++++++++++++++++++++++++++++++++++++++++++
   10     6           0.2860444531           7.7836652825      A1        A1 (1)
   11    34           0.3061911895           8.3318858518      B2        B2 (3)
   12     7           0.3358961037           9.1401976611      A1        A1 (1)
   13    22           0.3503990206           9.5348420920      B1        B1 (2)
   14    35           0.3673377867           9.9957693513      B2        B2 (3)
   15    50           0.4219906373          11.4829490236      A2        A2 (4)
   16     8           0.5588145674          15.2061174444      A1        A1 (1)
   17    23           0.5628294593          15.3153682068      B1        B1 (2)
   18    36           0.5633644441          15.3299258822      B2        B2 (3)
   19    37           0.5729450621          15.5906277508      B2        B2 (3)
   20     9           0.6906987878          18.7948695290      A1        A1 (1)
   21    24           0.7886161019          21.4593351038      B1        B1 (2)
   22    10           0.8206375112          22.3306819508      A1        A1 (1)
   23    11           0.9187857537          25.0014314060      A1        A1 (1)
   24    38           0.9238860282          25.1402169315      B2        B2 (3)
   25    39           0.9561060784          26.0169690698      B2        B2 (3)
   26    25           0.9952511066          27.0821594402      B1        B1 (2)
   27    51           1.0684769163          29.0747350225      A2        A2 (4)
   28    12           1.0861434629          29.5554661963      A1        A1 (1)
   29    40           1.0959323643          29.8218357454      B2        B2 (3)
   30    13           1.1682811457          31.7905461746      A1        A1 (1)
   31    26           1.2521026731          34.0714458935      B1        B1 (2)
   32    41           1.3725659276          37.3494176969      B2        B2 (3)
   33    52           1.4202989216          38.6482984989      A2        A2 (4)
   34    14           1.4273305732          38.8396394671      A1        A1 (1)
   35    53           1.4780310853          40.2192705399      A2        A2 (4)
   36    15           1.7301101923          47.0786917673      A1        A1 (1)
   37    54           1.7456934152          47.5027328209      A2        A2 (4)
   38    27           1.8225080578          49.5929655101      B1        B1 (2)
   39    42           1.9630154974          53.4163673210      B2        B2 (3)
   40    43           2.0091087440          54.6706283263      B2        B2 (3)
   41    16           2.0550626634          55.9210980461      A1        A1 (1)
   42    17           2.0660957165          56.2213226833      A1        A1 (1)
   43    28           2.1189919280          57.6607017736      B1        B1 (2)
   44    29           2.1491232184          58.4806158696      B1        B1 (2)
   45    30           2.1537837829          58.6074362778      B1        B1 (2)
   46    44           2.1560372380          58.6687559081      B2        B2 (3)
   47    18           2.1967929946          59.7777764258      A1        A1 (1)
   48    45           2.3037139562          62.6872437054      B2        B2 (3)
   49    46           2.4007123003          65.3267028363      B2        B2 (3)
   50    55           2.5491240539          69.3651919656      A2        A2 (4)
   51    19           2.5496930488          69.3806751038      A1        A1 (1)
   52    56           2.6202306680          71.3001013039      A2        A2 (4)
   53    47           2.6635183131          72.4780180107      B2        B2 (3)
   54    31           2.9206192067          79.4740889990      B1        B1 (2)
   55    20           2.9227062578          79.5308805452      A1        A1 (1)
   56    48           3.3633895902          91.5224836612      B2        B2 (3)
   57    57           3.4720558574          94.4794431218      A2        A2 (4)


  VSCF finished.

 @CHECKOUT-I, Total execution time (CPU/WALL):        0.26/       0.10 seconds.
--executable xvscf finished with status     0 in        0.11 seconds (walltime).
 --invoking executable--
/home/tsommerfeld/zscale/bin/xvtran
 @GETMEM-I,  Allocated   85830 MB of main memory.
  Full RHF integral transformation
  Transformation of IIII integrals :
  1 pass through the AO integral file was required.
       29549 AO integrals were read.
       37182 MO integrals were written to HF2.
  Transformation of IIJJ integrals :
  1 pass through the AO integral file was required.
       58054 AO integrals were read.
       75393 MO integrals were written to HF2.
  Transformation of IJIJ integrals :
  1 pass through the AO integral file was required.
      102147 AO integrals were read.
      132879 MO integrals were written to HF2.
  Transformation of IJKL integrals :
  1 pass through the AO integral file was required.
       75371 AO integrals were read.
      100980 MO integrals were written to HF2.
  Summary of active molecular orbitals: 
------------------------------------------------------------------------
 
  Index      Eigenvalue    Symmetry    Index      Eigenvalue    Symmetry
------------------------------------------------------------------------
     1       -11.0990695        1        30         1.8225081        2
     2        -0.9029405        1        31         2.1189919        2
     3        -0.4307654        1        32         2.1491232        2
     4        -0.2382445        1        33         2.1537838        2
     5        -0.0384745        1        34         2.9206192        2
     6        -0.5240191        2        35         0.3061912        3
     7       -11.0973605        3        36         0.3673378        3
     8        -0.6463002        3        37         0.5633644        3
     9        -0.3808297        4        38         0.5729451        3
    10         0.2860445        1        39         0.9238860        3
    11         0.3358961        1        40         0.9561061        3
    12         0.5588146        1        41         1.0959324        3
    13         0.6906988        1        42         1.3725659        3
    14         0.8206375        1        43         1.9630155        3
    15         0.9187858        1        44         2.0091087        3
    16         1.0861435        1        45         2.1560372        3
    17         1.1682811        1        46         2.3037140        3
    18         1.4273306        1        47         2.4007123        3
    19         1.7301102        1        48         2.6635183        3
    20         2.0550627        1        49         3.3633896        3
    21         2.0660957        1        50         0.4219906        4
    22         2.1967930        1        51         1.0684769        4
    23         2.5496930        1        52         1.4202989        4
    24         2.9227063        1        53         1.4780311        4
    25         0.3503990        2        54         1.7456934        4
    26         0.5628295        2        55         2.5491241        4
    27         0.7886161        2        56         2.6202307        4
    28         0.9952511        2        57         3.4720559        4
    29         1.2521027        2
------------------------------------------------------------------------
  -11.0990694874303      -0.902940478771566      -0.430765360601175     
 -0.238244495427658      -3.847445109036012E-002 -0.524019083973490     
  -11.0973605127046      -0.646300179278561      -0.380829747494517     
  0.286044453091466       0.335896103728575       0.558814567449556     
  0.690698787808823       0.820637511240879       0.918785753684386     
   1.08614346289868        1.16828114569942        1.42733057324375     
   1.73011019231220        2.05506266344677        2.06609571651744     
   2.19679299457585        2.54969304882190        2.92270625775031     
  0.350399020582210       0.562829459335878       0.788616101886221     
  0.995251106573496        1.25210267308545        1.82250805778770     
   2.11899192797197        2.14912321839526        2.15378378292159     
   2.92061920670142       0.306191189524231       0.367337786705081     
  0.563364444095078       0.572945062059926       0.923886028209611     
  0.956106078378347        1.09593236429829        1.37256592756982     
   1.96301549744126        2.00910874403779        2.15603723800634     
   2.30371395617373        2.40071230029140        2.66351831310024     
   3.36338959015115       0.421990637330864        1.06847691626315     
   1.42029892162506        1.47803108532457        1.74569341523995     
   2.54912405392844        2.62023066801975        3.47205585739351     
 @CHECKOUT-I, Total execution time (CPU/WALL):        0.54/       0.09 seconds.
--executable xvtran finished with status     0 in        0.11 seconds (walltime).
 --invoking executable--
/home/tsommerfeld/zscale/bin/xintprc
 @GETMEM-I,  Allocated   85830 MB of main memory.
  Processing integrals for CCSD calculation.
  @GMOIAA-I, Processing MO integrals for spin case AA.
  @GMOIAA-I, Generation of integral list completed.
                      TYPE                NUMBER
                      ----               --------
                      PPPP                174781
                      PPPH                128448
                      PPHH                 24003
                      PHPH                 13755
                      PHHH                  5115
                      HHHH                   332

                     TOTAL                346434

  @FORMT2-I, Second-order MP correlation energies:
            ------------------------------------------------
            E(SCF)                  =    -78.515083453725 a.u.
            E2(AA)                  =     -0.031425524314 a.u.
            E2(AB)                  =     -0.244633829843 a.u.
            E2(TOT)                 =     -0.307484878471 a.u.
            Total MP2 energy        =    -78.822568332196 a.u.
            ------------------------------------------------
   Largest T2 amplitudes for spin case AB:
       _       _                 _       _                 _       _
   i   j   a   b             i   j   a   b             i   j   a   b
-----------------------------------------------------------------------------
[  4   4  35  35]-0.09136 [  5   5  10  10]-0.08216 [  5   5  26  26]-0.04457
[  5   5  12  12]-0.03957 [  5   5  37  37]-0.03853 [  4   4  40  35] 0.02843
[  4   4  35  40] 0.02843 [  5   5  16  10] 0.02792 [  5   5  10  16] 0.02792
[  5   5  16  16]-0.02680 [  4   3  35  41] 0.02661 [  3   4  41  35] 0.02661
[  5   5  11  10] 0.02613 [  5   5  10  11] 0.02613 [  4   4  14  14]-0.02611
-----------------------------------------------------------------------------
   Norm of T2AB vector (    47574 symmetry allowed elements):  0.3162120891.
-----------------------------------------------------------------------------
 @CHECKOUT-I, Total execution time (CPU/WALL):        0.42/       0.10 seconds.
--executable xintprc finished with status     0 in        0.11 seconds (walltime).
  calling xvcc 
 --invoking executable--
/home/tsommerfeld/zscale/bin/xvcc
 @GETMEM-I,  Allocated   85830 MB of main memory.
   CCSD energy will be calculated.
   The total correlation energy is -0.307484878471 a.u.
   The total correlation energy is -0.333254951089 a.u.
  Convergence information after     1 iterations: 
  Largest element of residual vector : -0.32051447E-01.
  Largest element of DIIS residual   : -0.32051447E-01.
   The total correlation energy is -0.343286949142 a.u.
  Convergence information after     2 iterations: 
  Largest element of residual vector : -0.15099773E-01.
  Largest element of DIIS residual   : -0.10369318E-01.
   The total correlation energy is -0.347387549675 a.u.
  Convergence information after     3 iterations: 
  Largest element of residual vector : -0.53514909E-02.
  Largest element of DIIS residual   : -0.43969633E-02.
   The total correlation energy is -0.348454281723 a.u.
  Convergence information after     4 iterations: 
  Largest element of residual vector : -0.24257332E-02.
  Largest element of DIIS residual   : -0.12937520E-02.
   The total correlation energy is -0.348639079825 a.u.
  Convergence information after     5 iterations: 
  Largest element of residual vector : -0.64748146E-03.
  Largest element of DIIS residual   : -0.31783633E-03.
   The total correlation energy is -0.348635461367 a.u.
  Convergence information after     6 iterations: 
  Largest element of residual vector : -0.19537759E-03.
  Largest element of DIIS residual   :  0.18152955E-03.
   The total correlation energy is -0.348625429786 a.u.
  Convergence information after     7 iterations: 
  Largest element of residual vector :  0.86875062E-04.
  Largest element of DIIS residual   : -0.48440076E-04.
   The total correlation energy is -0.348618457281 a.u.
  Convergence information after     8 iterations: 
  Largest element of residual vector :  0.33586183E-04.
  Largest element of DIIS residual   : -0.19210337E-04.
   The total correlation energy is -0.348617785136 a.u.
  Convergence information after     9 iterations: 
  Largest element of residual vector : -0.12171267E-04.
  Largest element of DIIS residual   : -0.10150758E-04.
   The total correlation energy is -0.348618213746 a.u.
  Convergence information after    10 iterations: 
  Largest element of residual vector : -0.51146986E-05.
  Largest element of DIIS residual   : -0.48992360E-05.
   The total correlation energy is -0.348618758571 a.u.
  Convergence information after    11 iterations: 
  Largest element of residual vector : -0.31910482E-05.
  Largest element of DIIS residual   : -0.23280846E-05.
   The total correlation energy is -0.348619166964 a.u.
  Convergence information after    12 iterations: 
  Largest element of residual vector : -0.13308687E-05.
  Largest element of DIIS residual   : -0.78998655E-06.
   The total correlation energy is -0.348619339694 a.u.
  Convergence information after    13 iterations: 
  Largest element of residual vector : -0.52163813E-06.
  Largest element of DIIS residual   : -0.36980775E-06.
   The total correlation energy is -0.348619362195 a.u.
  Convergence information after    14 iterations: 
  Largest element of residual vector : -0.20845961E-06.
  Largest element of DIIS residual   :  0.16643012E-06.
   The total correlation energy is -0.348619357679 a.u.
  Convergence information after    15 iterations: 
  Largest element of residual vector : -0.94819053E-07.
  Largest element of DIIS residual   :  0.85844702E-07.
  Amplitude equations converged in    15iterations.
   The total correlation energy is -0.348619351145 a.u.
   The CC iterations have converged.

   Largest T1 amplitudes for spin case AA:
   i       a                 i       a                 i       a    
-----------------------------------------------------------------------------
[  5      10    ]-0.02449 [  4      14    ]-0.01714 [  4      18    ] 0.01611
[  4      15    ] 0.01363 [  5      16    ]-0.01158 [  5      17    ] 0.00904
[  4      12    ] 0.00839 [  6      27    ]-0.00623 [  4      21    ]-0.00563
[  3      13    ]-0.00476 [  9      56    ] 0.00448 [  9      50    ]-0.00442
[  3      23    ] 0.00402 [  6      30    ] 0.00398 [  3      19    ]-0.00374
-----------------------------------------------------------------------------
   Norm of T1AA vector (      123 symmetry allowed elements):  0.0444312625.
-----------------------------------------------------------------------------
   Largest T2 amplitudes for spin case AB:
       _       _                 _       _                 _       _
   i   j   a   b             i   j   a   b             i   j   a   b
-----------------------------------------------------------------------------
[  5   5  10  10]-0.15092 [  4   4  35  35]-0.13402 [  5   5  26  26]-0.06264
[  5   5  12  12]-0.05510 [  5   5  37  37]-0.05396 [  5   5  16  10] 0.05298
[  5   5  10  16] 0.05298 [  5   5  11  10] 0.04745 [  5   5  10  11] 0.04745
[  4   4  40  35] 0.03937 [  4   4  35  40] 0.03937 [  5   5  17  10]-0.03159
[  5   5  10  17]-0.03159 [  5   5  16  16]-0.03084 [  4   3  35  41] 0.02487
-----------------------------------------------------------------------------
   Norm of T2AB vector (    47574 symmetry allowed elements):  0.4110740312.
-----------------------------------------------------------------------------
       Summary of iterative solution of CC equations 
      -----------------------------------------------------------
                       Correlation           Total
       Iteration         Energy              Energy
      -----------------------------------------------------------
            0        -0.307484878471     -78.822568332196  DIIS 
            1        -0.333254951089     -78.848338404814  DIIS 
            2        -0.343286949142     -78.858370402868  DIIS 
            3        -0.347387549675     -78.862471003400  DIIS 
            4        -0.348454281723     -78.863537735448  DIIS 
            5        -0.348639079825     -78.863722533550  DIIS 
            6        -0.348635461367     -78.863718915093  DIIS 
            7        -0.348625429786     -78.863708883512  DIIS 
            8        -0.348618457281     -78.863701911006  DIIS 
            9        -0.348617785136     -78.863701238862  DIIS 
           10        -0.348618213746     -78.863701667472  DIIS 
           11        -0.348618758571     -78.863702212296  DIIS 
           12        -0.348619166964     -78.863702620689  DIIS 
           13        -0.348619339694     -78.863702793419  DIIS 
           14        -0.348619362195     -78.863702815921  DIIS 
           15        -0.348619351145     -78.863702804870  DIIS 
      -----------------------------------------------------------
      A miracle has come to pass. The CC iterations have converged.
      The reference energy is       -78.51508345372534 a.u.
      The correlation energy is      -0.34861935114515 a.u.
      The total energy is           -78.86370280487048 a.u.
 @CHECKOUT-I, Total execution time (CPU/WALL):        5.40/       0.69 seconds.
--executable xvcc finished with status     0 in        0.71 seconds (walltime).
 --invoking executable--
/home/tsommerfeld/zscale/bin/xlambda
 @GETMEM-I,  Allocated   85830 MB of main memory.
 Hbar is calculated for a CCSD wave function.
 Calculation of Hbar completed.
 @CHECKOUT-I, Total execution time (CPU/WALL):        0.91/       0.13 seconds.
--executable xlambda finished with status     0 in        0.14 seconds (walltime).
 --invoking executable--
/home/tsommerfeld/zscale/bin/xvee
 @GETMEM-I,  Allocated   85830 MB of main memory.
  cc2 and ccprog  F                     0
  EOMEE-CCSD excitation energies will be evaluated.
  @SETMET-I, VPROP property integrals are used.
  @SETMET-I, A total of   3 target states will be studied.
  Summary of active alpha molecular orbitals:
------------------------------------------------------------------------------
Orbital      Sym   Eigenvalue  <xx>     <yy>     <zz>     <xy>     <xz>     <yz>
        SCF
  #  position
------------------------------------------------------------------------------
   1      1    1     -11.0991   0.000    0.000    0.000    0.000    0.000    0.000
   2      3    1      -0.9029   0.000    0.000    0.000    0.000    0.000    0.000
   3      6    1      -0.4308   0.000    0.000    0.000    0.000    0.000    0.000
   4      8    1      -0.2382   0.000    0.000    0.000    0.000    0.000    0.000
   5      9    1      -0.0385   0.000    0.000    0.000    0.000    0.000    0.000
   6      5    2      -0.5240   0.000    0.000    0.000    0.000    0.000    0.000
   7      2    3     -11.0974   0.000    0.000    0.000    0.000    0.000    0.000
   8      4    3      -0.6463   0.000    0.000    0.000    0.000    0.000    0.000
   9      7    4      -0.3808   0.000    0.000    0.000    0.000    0.000    0.000
  10     10    1       0.2860   0.000    0.000    0.000    0.000    0.000    0.000
  11     12    1       0.3359   0.000    0.000    0.000    0.000    0.000    0.000
  12     16    1       0.5588   0.000    0.000    0.000    0.000    0.000    0.000
  13     20    1       0.6907   0.000    0.000    0.000    0.000    0.000    0.000
  14     22    1       0.8206   0.000    0.000    0.000    0.000    0.000    0.000
  15     23    1       0.9188   0.000    0.000    0.000    0.000    0.000    0.000
  16     28    1       1.0861   0.000    0.000    0.000    0.000    0.000    0.000
  17     30    1       1.1683   0.000    0.000    0.000    0.000    0.000    0.000
  18     34    1       1.4273   0.000    0.000    0.000    0.000    0.000    0.000
  19     36    1       1.7301   0.000    0.000    0.000    0.000    0.000    0.000
  20     41    1       2.0551   0.000    0.000    0.000    0.000    0.000    0.000
  21     42    1       2.0661   0.000    0.000    0.000    0.000    0.000    0.000
  22     47    1       2.1968   0.000    0.000    0.000    0.000    0.000    0.000
  23     51    1       2.5497   0.000    0.000    0.000    0.000    0.000    0.000
  24     55    1       2.9227   0.000    0.000    0.000    0.000    0.000    0.000
  25     13    2       0.3504   0.000    0.000    0.000    0.000    0.000    0.000
  26     17    2       0.5628   0.000    0.000    0.000    0.000    0.000    0.000
  27     21    2       0.7886   0.000    0.000    0.000    0.000    0.000    0.000
  28     26    2       0.9953   0.000    0.000    0.000    0.000    0.000    0.000
  29     31    2       1.2521   0.000    0.000    0.000    0.000    0.000    0.000
  30     38    2       1.8225   0.000    0.000    0.000    0.000    0.000    0.000
  31     43    2       2.1190   0.000    0.000    0.000    0.000    0.000    0.000
  32     44    2       2.1491   0.000    0.000    0.000    0.000    0.000    0.000
  33     45    2       2.1538   0.000    0.000    0.000    0.000    0.000    0.000
  34     54    2       2.9206   0.000    0.000    0.000    0.000    0.000    0.000
  35     11    3       0.3062   0.000    0.000    0.000    0.000    0.000    0.000
  36     14    3       0.3673   0.000    0.000    0.000    0.000    0.000    0.000
  37     18    3       0.5634   0.000    0.000    0.000    0.000    0.000    0.000
  38     19    3       0.5729   0.000    0.000    0.000    0.000    0.000    0.000
  39     24    3       0.9239   0.000    0.000    0.000    0.000    0.000    0.000
  40     25    3       0.9561   0.000    0.000    0.000    0.000    0.000    0.000
  41     29    3       1.0959   0.000    0.000    0.000    0.000    0.000    0.000
  42     32    3       1.3726   0.000    0.000    0.000    0.000    0.000    0.000
  43     39    3       1.9630   0.000    0.000    0.000    0.000    0.000    0.000
  44     40    3       2.0091   0.000    0.000    0.000    0.000    0.000    0.000
  45     46    3       2.1560   0.000    0.000    0.000    0.000    0.000    0.000
  46     48    3       2.3037   0.000    0.000    0.000    0.000    0.000    0.000
  47     49    3       2.4007   0.000    0.000    0.000    0.000    0.000    0.000
  48     53    3       2.6635   0.000    0.000    0.000    0.000    0.000    0.000
  49     56    3       3.3634   0.000    0.000    0.000    0.000    0.000    0.000
  50     15    4       0.4220   0.000    0.000    0.000    0.000    0.000    0.000
  51     27    4       1.0685   0.000    0.000    0.000    0.000    0.000    0.000
  52     33    4       1.4203   0.000    0.000    0.000    0.000    0.000    0.000
  53     35    4       1.4780   0.000    0.000    0.000    0.000    0.000    0.000
  54     37    4       1.7457   0.000    0.000    0.000    0.000    0.000    0.000
  55     50    4       2.5491   0.000    0.000    0.000    0.000    0.000    0.000
  56     52    4       2.6202   0.000    0.000    0.000    0.000    0.000    0.000
  57     57    4       3.4721   0.000    0.000    0.000    0.000    0.000    0.000
------------------------------------------------------------------------------
  @DRVTDA-I, Roots obtained by Davidson method.
  calling tda davidson                       6                     2
  after tda davidson                      6                     6
                     3                     3
  kroot is                      3
__________________________________________________________________________
    Tamm-Dancoff (CIS) Excitation Energies and Transition Moments

                Excitation         Transition Dipole         Oscillator
 Root  Symmetry  Energy         x           y           z     Strength
__________________________________________________________________________
   1       2    0.26214      0.0000      0.0000      0.0000  .00000000D+00
__________________________________________________________________________
 
__________________________________________________________________________
  TDA excitation ergy:             0.262142596290 a.u.    7.1333 eV
  Total TDA electronic energy:   -78.252940857435 a.u.
 
  Dominant contributions: 
  SCF eigenvalue ordering used in list below. 
--------------------------------------------------------------------------------
    I    j    A    b
--------------------------------------------------------------------------------
    9    0   13    0  -0.9903403124 AA  
    8    0   13    0  -0.1243090573 AA  
    9    0   17    0   0.0424395770 AA  
    8    0   26    0  -0.0220669767 AA  
    7    0   11    0   0.0178095671 AA  
    8    0   21    0   0.0167970533 AA  
    6    0   13    0   0.0129192584 AA  
    9    0   26    0  -0.0124303289 AA  
    7    0   14    0   0.0121975120 AA  
    9    0   21    0   0.0112439779 AA  
    5    0   12    0   0.0087560079 AA  
    8    0   17    0  -0.0065613419 AA  
    5    0   10    0   0.0043846952 AA  
    4    0   15    0   0.0043485664 AA  
    7    0   19    0  -0.0038804078 AA  
--------------------------------------------------------------------------------
   2       2    0.33769      0.0000      0.0000      0.0000  .00000000D+00
__________________________________________________________________________
 
__________________________________________________________________________
  TDA excitation ergy:             0.337685940016 a.u.    9.1889 eV
  Total TDA electronic energy:   -78.177397513709 a.u.
 
  Dominant contributions: 
  SCF eigenvalue ordering used in list below. 
--------------------------------------------------------------------------------
    I    j    A    b
--------------------------------------------------------------------------------
    8    0   13    0  -0.9624389603 AA  
    7    0   11    0   0.1776005300 AA  
    9    0   13    0   0.1280061141 AA  
    8    0   26    0  -0.1115485970 AA  
    8    0   21    0   0.1039389712 AA  
    8    0   17    0  -0.0312849636 AA  
    9    0   17    0  -0.0195971404 AA  
    7    0   25    0  -0.0191531136 AA  
    9    0   21    0   0.0112136429 AA  
    9    0   26    0  -0.0104712571 AA  
    8    0   43    0   0.0096563716 AA  
    7    0   18    0  -0.0087390155 AA  
    7    0   24    0  -0.0085121875 AA  
    8    0   38    0  -0.0082866265 AA  
    5    0   34    0   0.0080332327 AA  
--------------------------------------------------------------------------------
   3       2    0.36563      0.0000      0.0000      0.0000  .00000000D+00
__________________________________________________________________________
 
__________________________________________________________________________
  TDA excitation ergy:             0.365631388867 a.u.    9.9493 eV
  Total TDA electronic energy:   -78.149452064859 a.u.
 
  Dominant contributions: 
  SCF eigenvalue ordering used in list below. 
--------------------------------------------------------------------------------
    I    j    A    b
--------------------------------------------------------------------------------
    7    0   11    0  -0.9697694262 AA  
    8    0   13    0  -0.1773275732 AA  
    9    0   17    0  -0.1110022004 AA  
    7    0   25    0   0.0881792336 AA  
    7    0   18    0   0.0438326995 AA  
    5    0   34    0  -0.0410603266 AA  
    7    0   24    0   0.0378038192 AA  
    7    0   14    0  -0.0269086119 AA  
    8    0   26    0  -0.0218094847 AA  
    5    0   22    0   0.0209068905 AA  
    7    0   19    0  -0.0179018670 AA  
    5    0   16    0  -0.0153002502 AA  
    5    0   23    0  -0.0139845505 AA  
    5    0   42    0   0.0128499603 AA  
    4    0   33    0   0.0121512374 AA  
--------------------------------------------------------------------------------
__________________________________________________________________________
  @DOEOMEE-I, Excitation energies computed by the EOMEE-CCSD/CCSD-LR method.
  @DOEOMEE-I, right-hand eigenvectors will be computed.
  Beginning symmetry block   2.   3 roots requested.
  @DOEOMEE-I, Matrix dimension for diagonalization:    45852
  Creating initial guess for root
________________________________________________________________________
            Subspace          Eigenvalue           
 Iteration  Dimension   (a.u.)         (eV)       Overlap      Residual
________________________________________________________________________
  @NEWGES-I, Using TDA initial guess.
  1   1  0.3138614644D+00  0.8540604643D+01  0.0000000000D+00  0.1435383387D+01
  2   2  0.2366892737D+00  0.6440642573D+01  0.9376264421D+00  0.2077909432D+00
  3   3  0.2251718040D+00  0.6127236290D+01  0.9849509104D+00  0.5012646873D-01
  4   4  0.2232718755D+00  0.6075536606D+01  0.9986896492D+00  0.2765547140D-01
  5   5  0.2229163923D+00  0.6065863416D+01  0.9993956636D+00  0.7910579180D-02
  6   6  0.2228671391D+00  0.6064523168D+01  0.9999088342D+00  0.4355023753D-02
  L-O-C-K-I-N-G O-N R-O-O-T 
  7   7  0.2228753763D+00  0.6064747314D+01  0.9999895129D+00  0.9981516392D-03
  8   8  0.2228743158D+00  0.6064718458D+01  0.9999994802D+00  0.6363769643D-03
  9   9  0.2228724692D+00  0.6064668210D+01  0.9999996131D+00  0.1760555032D-03
 10  10  0.2228725567D+00  0.6064670588D+01  0.9999999619D+00  0.1411003734D-03
 11  11  0.2228726825D+00  0.6064674013D+01  0.9999999878D+00  0.3165265409D-04
 12  12  0.2228727014D+00  0.6064674527D+01  0.9999999993D+00  0.1058562387D-04
 13  13  0.2228727397D+00  0.6064675569D+01  0.9999999999D+00  0.3041758971D-05
  Converged eigenvalue:   0.222872739687478       a.u.
   Total EOMEE-CCSD electronic energy      -78.640830065183010 a.u.
  Converged eigenvector 
  SCF eigenvalue ordering used in list below. 
--------------------------------------------------------------------------------
    I    j    A    b
--------------------------------------------------------------------------------
    9    0   13    0   0.6515848319 AA  
    9    9   13   10   0.2197022141 ABAB
    9    9   10   13   0.2197022141 ABAB
    9    9   13   28  -0.0701280703 ABAB
    9    9   28   13  -0.0701280703 ABAB
    9    9   13   12  -0.0616861648 ABAB
    9    9   12   13  -0.0616861648 ABAB
    9    9   13   30   0.0425762463 ABAB
    9    9   30   13   0.0425762463 ABAB
    9    9   13   16  -0.0360254389 ABAB
    9    9   16   13  -0.0360254389 ABAB
    9    8   15   11  -0.0325123568 ABAB
    8    9   11   15  -0.0325123568 ABAB
    9    0   26    0   0.0277109432 AA  
    8    0   13    0   0.0244229107 AA  
--------------------------------------------------------------------------------
  Converged eigenvector, normalized to one 
  SCF eigenvalue ordering used in list below. 
--------------------------------------------------------------------------------
    I    j    A    b
--------------------------------------------------------------------------------
    9    0   13    0   0.6515848319 AA  
    9    9   13   10   0.2197022141 ABAB
    9    9   10   13   0.2197022141 ABAB
    9    9   13   28  -0.0701280703 ABAB
    9    9   28   13  -0.0701280703 ABAB
    9    9   13   12  -0.0616861648 ABAB
    9    9   12   13  -0.0616861648 ABAB
    9    9   13   30   0.0425762463 ABAB
    9    9   30   13   0.0425762463 ABAB
    9    9   13   16  -0.0360254389 ABAB
    9    9   16   13  -0.0360254389 ABAB
    9    8   15   11  -0.0325123568 ABAB
    8    9   11   15  -0.0325123568 ABAB
    9    0   26    0   0.0277109432 AA  
    8    0   13    0   0.0244229107 AA  
--------------------------------------------------------------------------------

  Eigenvector is saved on CCRE_2_1  

  Adding new vector to expansion space.
  Guess for next eigenvalue   0.337685940016017     
 14  14  0.3431817276D+00  0.9338449567D+01  0.6296512920D+00  0.1079177135D+00
 15  15  0.3391612958D+00  0.9229048055D+01  0.9927664023D+00  0.3287822838D-01
 16  16  0.3387594539D+00  0.9218113380D+01  0.9996427387D+00  0.1322618545D-01
  L-O-C-K-I-N-G O-N R-O-O-T 
 17  17  0.3387286356D+00  0.9217274772D+01  0.9999571887D+00  0.2825190888D-02
 18  18  0.3387261503D+00  0.9217207144D+01  0.9999913951D+00  0.7080272204D-03
 19  19  0.3387254395D+00  0.9217187802D+01  0.9999986262D+00  0.4284368690D-03
 20  20  0.3387252294D+00  0.9217182086D+01  0.9999997903D+00  0.1184920484D-03
 21  21  0.3387255062D+00  0.9217189618D+01  0.9999999890D+00  0.5831556485D-04
 22  22  0.3387255388D+00  0.9217190502D+01  0.9999999963D+00  0.2217157154D-04
 23  23  0.3387254941D+00  0.9217189288D+01  0.9999999993D+00  0.1508160461D-04
 24  24  0.3387254975D+00  0.9217189379D+01  0.9999999999D+00  0.5134674445D-05
  Converged eigenvalue:   0.338725497472596       a.u.
   Total EOMEE-CCSD electronic energy      -78.524977307397890 a.u.
  Converged eigenvector 
  SCF eigenvalue ordering used in list below. 
--------------------------------------------------------------------------------
    I    j    A    b
--------------------------------------------------------------------------------
    7    0   11    0  -0.4941097431 AA  
    8    0   13    0   0.4614940506 AA  
    5    8   11   11  -0.0697686470 ABAB
    8    5   11   11  -0.0697686470 ABAB
    7    0   25    0   0.0558391399 AA  
    8    0   26    0   0.0530840979 AA  
    8    0   21    0  -0.0525024063 AA  
    8    8   15   11  -0.0388887825 ABAB
    8    8   11   15  -0.0388887825 ABAB
    5    8   13   13   0.0260842221 ABAB
    8    5   13   13   0.0260842221 ABAB
    7    4   24   11   0.0244500793 ABAB
    4    7   11   24   0.0244500793 ABAB
    7    0   24    0   0.0238678969 AA  
    7    0   18    0   0.0235527246 AA  
--------------------------------------------------------------------------------
  Converged eigenvector, normalized to one 
  SCF eigenvalue ordering used in list below. 
--------------------------------------------------------------------------------
    I    j    A    b
--------------------------------------------------------------------------------
    7    0   11    0  -0.4941097431 AA  
    8    0   13    0   0.4614940506 AA  
    5    8   11   11  -0.0697686470 ABAB
    8    5   11   11  -0.0697686470 ABAB
    7    0   25    0   0.0558391399 AA  
    8    0   26    0   0.0530840979 AA  
    8    0   21    0  -0.0525024063 AA  
    8    8   15   11  -0.0388887825 ABAB
    8    8   11   15  -0.0388887825 ABAB
    5    8   13   13   0.0260842221 ABAB
    8    5   13   13   0.0260842221 ABAB
    7    4   24   11   0.0244500793 ABAB
    4    7   11   24   0.0244500793 ABAB
    7    0   24    0   0.0238678969 AA  
    7    0   18    0   0.0235527246 AA  
--------------------------------------------------------------------------------

  Eigenvector is saved on CCRE_2_2  

  Adding new vector to expansion space.
  Guess for next eigenvalue   0.365631388866540     
 25  25  0.3533864551D+00  0.9616134319D+01  0.5707749323D+00  0.6968712283D-01
 26  26  0.3517528202D+00  0.9571680853D+01  0.9987507115D+00  0.2488753744D-01
 27  27  0.3515592904D+00  0.9566414640D+01  0.9998868321D+00  0.7502928821D-02
  L-O-C-K-I-N-G O-N R-O-O-T 
 28  28  0.3515403564D+00  0.9565899420D+01  0.9999868647D+00  0.1600498484D-02
 29  29  0.3515408203D+00  0.9565912041D+01  0.9999988295D+00  0.5651211472D-03
 30  30  0.3515403944D+00  0.9565900452D+01  0.9999997402D+00  0.2213109332D-03
 31  31  0.3515403880D+00  0.9565900278D+01  0.9999999537D+00  0.8162520782D-04
 32  32  0.3515405023D+00  0.9565903389D+01  0.9999999943D+00  0.2257700058D-04
 33  33  0.3515404911D+00  0.9565903085D+01  0.9999999997D+00  0.7876390056D-05
  Converged eigenvalue:   0.351540491149906       a.u.
   Total EOMEE-CCSD electronic energy      -78.512162313720580 a.u.
  Converged eigenvector 
  SCF eigenvalue ordering used in list below. 
--------------------------------------------------------------------------------
    I    j    A    b
--------------------------------------------------------------------------------
    8    0   13    0   0.5003308403 AA  
    7    0   11    0   0.4606966812 AA  
    5    8   11   11   0.0603693216 ABAB
    8    5   11   11   0.0603693216 ABAB
    8    0   26    0   0.0566296146 AA  
    7    0   25    0  -0.0478752246 AA  
    8    0   21    0  -0.0371766171 AA  
    8    8   15   11  -0.0330032139 ABAB
    8    8   11   15  -0.0330032139 ABAB
    5    8   13   13   0.0284466005 ABAB
    8    5   13   13   0.0284466005 ABAB
    7    4   24   11  -0.0227781400 ABAB
    4    7   11   24  -0.0227781400 ABAB
    9    0   17    0   0.0220265246 AA  
    4    8   14   13   0.0214988547 ABAB
--------------------------------------------------------------------------------
  Converged eigenvector, normalized to one 
  SCF eigenvalue ordering used in list below. 
--------------------------------------------------------------------------------
    I    j    A    b
--------------------------------------------------------------------------------
    8    0   13    0   0.5003308403 AA  
    7    0   11    0   0.4606966812 AA  
    5    8   11   11   0.0603693216 ABAB
    8    5   11   11   0.0603693216 ABAB
    8    0   26    0   0.0566296146 AA  
    7    0   25    0  -0.0478752246 AA  
    8    0   21    0  -0.0371766171 AA  
    8    8   15   11  -0.0330032139 ABAB
    8    8   11   15  -0.0330032139 ABAB
    5    8   13   13   0.0284466005 ABAB
    8    5   13   13   0.0284466005 ABAB
    7    4   24   11  -0.0227781400 ABAB
    4    7   11   24  -0.0227781400 ABAB
    9    0   17    0   0.0220265246 AA  
    4    8   14   13   0.0214988547 ABAB
--------------------------------------------------------------------------------

  Eigenvector is saved on CCRE_2_3  

  Solution of   3 roots required   33 iterations.
 @CHECKOUT-I, Total execution time (CPU/WALL):       19.06/       2.39 seconds.
--executable xvee finished with status     0 in        2.41 seconds (walltime).
  The final electronic energy is       -78.512162313720580 a.u. 
  This computation required                            4.07 seconds (walltime).
