CFour on node01
 --invoking executable--
/home/tsommerfeld/zscale/bin/xjoda


   *************************************************************************
         <<<     CCCCCC     CCCCCC   |||     CCCCCC     CCCCCC   >>>
       <<<      CCC        CCC       |||    CCC        CCC         >>>
      <<<      CCC        CCC        |||   CCC        CCC            >>>
    <<<        CCC        CCC        |||   CCC        CCC              >>>
      <<<      CCC        CCC        |||   CCC        CCC            >>>
       <<<      CCC        CCC       |||    CCC        CCC         >>>
         <<<     CCCCCC     CCCCCC   |||     CCCCCC     CCCCCC   >>>
   *************************************************************************

     ****************************************************************
     * CFOUR Coupled-Cluster techniques for Computational Chemistry *
     ****************************************************************
 

   Department of Chemistry                Institut fuer Physikalische Chemie
   University of Florida                  Universitaet Mainz
   Gainesville, FL 32611, USA             D-55099 Mainz, Germany

   Department of Chemistry                Department of Chemistry
   Johns Hopkins University               Southern Methodist University
   Baltimore, MD 21218, USA               Dallas, TX 75275, USA

   Institute of Nanotechnology            Department of Physical Chemistry
   Karlsruhe Inst. of Technology          Eotvos Lorand University
   D-76021 Karlsruhe, Germany             H-1053 Budapest, Hungary

 
                       Version 2.1
 
                     node01                                            
                     Tue May  3 11:27:56 CDT 2022                      
                     integer*8 version is running
 
********************************************************************************
*                          Input from ZMAT file                                *
********************************************************************************
h_ethylene                                                                      
C       0.000000      0.0   -0.664500                                           
C       0.000000      0.0    0.664500                                           
H       0.962348      0.0   -1.159080                                           
H       0.962348      0.0    1.159080                                           
H      -0.962348      0.0   -1.159080                                           
H      -0.962348      0.0    1.159080                                           
H      0.000000      7.466666666666667      0.000000                            
                                                                                
*CFOUR(CALC=CCSD(T)                                                             
#EXCITE=EOMEE                                                                   
#ESTATE_SYM=0/3/0/0                                                             
CC_PROG=VCC                                                                     
CHARGE=-1                                                                       
COORDINATES=CARTESIAN                                                           
BASIS=SPECIAL                                                                   
REFERENCE=RHF                                                                   
MEM_SIZE=90,MEM_UNIT=GB)                                                        
                                                                                
C:cc-pVTZ                                                                       
C:cc-pVTZ                                                                       
H:cc-pVTZ                                                                       
H:cc-pVTZ                                                                       
H:cc-pVTZ                                                                       
H:cc-pVTZ                                                                       
H:aug-cc-pVTZ                                                                   
                                                                                
********************************************************************************
  @GTFLGS-W, Keyword #EXCITE not known and is ignored.
  @GTFLGS-W, Keyword #ESTATE_SYM not known and is ignored.
    -------------------------------------------------------------------
                    CFOUR Control Parameters 
    -------------------------------------------------------------------
        External           Internal           Value            Units
          Name               Name
    -------------------------------------------------------------------
       ABCDTYPE             IABCDT         STANDARD    [  0]    ***   
       ANHARMONIC           IANHAR         OFF         [  0]    ***   
       ANH_ALGORIT          IANALG         STANDARD    [  0]    ***   
       ANH_DERIVAT          IANDER         SECOND      [  1]    ***   
       ANH_MODE             ANHMOD         VIBRATION   [  0]    ***   
       ANH_STEPSIZ          ICUBST             50000          x 10-6  
       ANH_SYMMETR          IANHSM         ABELIAN     [  0]    ***   
       AO_LADDERS           IAOLAD         SINGLEPASS  [  1]    ***   
       AV_SCF               IAVSCF         OFF         [  0]    ***   
       BASIS                IBASIS         SPECIAL     [  0]    ***   
       BOTHVECTORS          BOTHVC         OFF         [  0]    ***   
       BOX_POTENT           IPIAB          OFF         [  0]    ***   
       BREIT                IBREIT         OFF         [  0]    ***   
       BRUCK_CONV           IBRTOL          10D-  4             ***   
       BRUECKNER            IBRKNR         OFF         [  0]    ***   
       BUFFERSIZE           IBUFFS              4096            ***   
       CACHE_RECS           ICHREC             10               ***   
       CALCLEVEL            ICLLVL         CCSD(T)     [ 22]    ***   
       CCORBOPT             ICCORB         OFF         [  0]  x 0.01  
       CC_CONV              ICCCNV          10D-  7             ***   
       CC_EXPORDER          ICCEOR              5               ***   
       CC_EXTRAPOL          ICCEXT         DIIS        [  1]    ***   
       CC_GUESS             ICCGES         MP2         [  0]    ***   
       CC_MAXCYC            ICCCYC            100              cycles 
       CC_PROGRAM           ICCPRO         VCC         [  0]    ***   
       CHARGE               ICHRGE             -1               ***   
       CHOLESKY             ICHOLE         OFF         [  0]    ***   
       CIS_CONV             ICISTL              5               ***   
       COMM_SIZE            IPSIZE            ***               ***   
       CONSTANT             ICONST         OLD         [  1]    ***   
       CONTINUUM            ICONTU         NONE        [  0]    ***   
       CONTRACTION          ICNTYP         GENERAL     [  1]    ***   
       COORDINATES          ICOORD         CARTESIAN   [  1]    ***   
       CPHF_CONVER          ICPHFT          10D- 16             ***   
       CPHF_MAXCYC          ICPHFC             64              cycles 
       CUBIC                ICUBIC         OFF         [  0]    ***   
       CURVILINEAR          ICURVY         OFF         [  0]    ***   
       DBOC                 IDBOC          OFF         [  0]    ***   
       DCT                  IDCT           OFF         [  0]    ***   
       DERIV_LEV            IDRLVL         ZERO        [  0]    ***   
       DEVMEM_SIZE          IDVMEM         *********           MByte  
       DIAG_MRCC            IEOMST          10D-  0             ***   
       DIFF_TYPE            IDIFTY         RELAXED     [  0]    ***   
       DIRECT               IDIRCT         OFF         [  0]    ***   
       DROPMO               IDRPMO      NONE         
       ECP                  IECP           OFF         [  0]    ***   
       EIGENVECTOR          IVEC                1               ***   
       EL_ANHARM            IELANH         OFF         [  0]    ***   
       EOMFOLLOW            IEOMSR         ENERGY      [  0]    ***   
       EOMIP                IEOMIP         OFF         [  0]    ***   
       EOMLEVEL             HBARFM         SAME        [  0]    ***   
       EOM_MRCC             IMRCCE         NEW         [  1]    ***   
       EOM_NONIT            EOMNON         OFF         [  0]    ***   
       EOM_NSING            IEOMSI          10D-  0             ***   
       EOM_NSTATES          IMRCCD         DAVIDSON    [  0]    ***   
       EOM_NTRIP            IEOMTR          10D-  0             ***   
       EOM_ORDER            IEXORD         ENERGY      [  0]    ***   
       EOM_PROPSTA          IEOMST              0               ***   
       ESTATE_CONV          IEXTOL          10D-  5             ***   
       ESTATE_DIAG          IEXDIG         ITERATIVE   [  0]    ***   
       ESTATE_LOCK          IESLOC         ON          [  1]    ***   
       ESTATE_MAXC          IEXMXC             40               ***   
       ESTATE_PROP          IEXPRP         OFF         [  0]    ***   
       EVAL_HESS            IRECAL              0            # of cyc.
       EXCITATION           IEXCIT              0               ***   
       EXCITE               IEXCIT         NONE        [  0]    ***   
       EXTERN_POT           IEXPOT         OFF         [  0]    ***   
       FCGRADNEW            IFCGNW         OFF         [  0]    ***   
       FC_FIELD             IFINFC              0             x 10-6  
       FD_CALTYPE           IFDCAL         GRADONLY    [  0]    ***   
       FD_PROJECT           IFDPRJ         OFF         [  1]    ***   
       FD_STEPSIZE          IDISFD              0            10-4 bohr
       FD_USEGROUP          IFDGRP         FULL        [  0]    ***   
       FILE_RECSIZ          IFLREC              4096           words  
       FINITE_PERT          IFIPER              0             x 10-6  
       FIXGEOM              IFIXGM         OFF         [  0]    ***   
       FOCK                 IFOCK          AO          [  1]    ***   
       FREQ_ALGORI          IVIALG         STANDARD    [  0]    ***   
       FROZEN_CORE          IFROCO         OFF         [  0]    ***   
       GAMMA_ABCD           IGABCD         STORE       [  0]    ***   
       GAMMA_ABCI           IGABCI         STORE       [  0]    ***   
       GENBAS_1             IGNBS1              0               ***   
       GENBAS_2             IGNBS2              0               ***   
       GENBAS_3             IGNBS3              0               ***   
       GENBAS_4             IGNBS4              0               ***   
       GEO_CONV             ICONTL              5              H/bohr 
       GEO_MAXCYC           IOPTCY             50               ***   
       GEO_MAXSTEP          IMXSTP            300            millibohr
       GEO_METHOD           INR            SINGLE_POINT[  5]    ***   
       GIAO                 IGIAO          OFF         [  1]    ***   
       GIMIC                IGIMIC         OFF         [  0]    ***   
       GRID                 IGRID          OFF         [  0]    ***   
       GRID_ALGO            IGALGO         SERIAL      [  0]    ***   
       GUESS                IGUESS         MOREAD      [  0]    ***   
       HBAR                 IHBAR          OFF         [  0]    ***   
       HESS_TYPE            IHESTP         SCF         [  0]    ***   
       HF2_FILE             IHF2Fl         USE         [  1]    ***   
       HFSTABILITY          ISTABL         OFF         [  0]    ***   
       INCORE               INCORE         OFF         [  0]    ***   
       INPUT_MRCC           IMRCC          ON          [  1]    ***   
       INTEGRALS            INTTYP         VMOL        [  1]    ***   
       JODA_PRINT           IJPRNT              0               ***   
       KEYWORD_OUT          IDMPKW         NO          [  0]    ***   
       LINDEP_TOL           ILINDP              8               ***   
       LINEQ_CONV           IZTACN          10D-  7           cycles  
       LINEQ_EXPOR          ILMAXD              5               ***   
       LINEQ_MAXCY          ILMAXC            100               ***   
       LINEQ_TYPE           ILTYPE         DIIS        [  1]    ***   
       LOCK_ORBOCC          ILOCOC         OFF         [  0]    ***   
       MEMORY_SIZE          IMEMSZ         *********           words  
       MEM_UNIT             IMEMU          GB          [  3]    ***   
       MRCC                 IMRCCC         OFF         [  0]    ***   
       MULTIPLICTY          IMULTP              1               ***   
       NACOUPLING           IVCOUP         OFF         [  0]    ***   
       NEGEVAL              IDIE           ABORT       [  0]    ***   
       NEWNORM              INEWNO         OFF         [  0]    ***   
       NON-HF               INONHF         OFF         [  0]    ***   
       NTOP_TAMP            ITOPT2             15               ***   
       NUC_MODEL            INUCMO         POINT       [  0]    ***   
       OCCUPATION           IOCCU   ESTIMATED BY SCF 
       OPEN-SHELL           IOPEN          SPIN-ORBITAL[  0]    ***   
       OPTVIB               IOPTVB         OFF         [  0]    ***   
       ORBITALS             IORBTP         STANDARD    [  0]    ***   
       PARALLEL             IPARAL         ON          [  1]    ***   
       PARA_INT             IPINTS         ON          [  1]    ***   
       PARA_PRINT           IPPRIN              0               ***   
       PERT_ORB             IPTORB         STANDARD    [  0]    ***   
       POINTS               IGRDFD              0               ***   
       PRINT                IPRNT               0               ***   
       PROPS                IPROPS         OFF         [  0]    ***   
       PROP_INTEGR          IINTYP         INTERNAL    [  0]    ***   
       PSI                  IPSI           OFF         [  0]    ***   
       QC_ALG               IQCALG         FLM         [  0]    ***   
       QC_LINALG            IQCLIN         TRIDIAG     [  2]    ***   
       QC_MAXCYC            IQCMAX          10D-100           cycles  
       QC_MAXSCFCY          IQCMSC          10D- 15           cycles  
       QC_RTRUST            IQCRTR          10D-  0           x 10-3  
       QC_SKIPSCF           IQCSKI         OFF         [  0]    ***   
       QC_START             IQCSTA          10D-  1             ***   
       QRHFGUESS            IQGUES         OFF         [  0]    ***   
       QUARTIC              IQUART         OFF         [  0]    ***   
       RAMAN_INT            IRAMIN         OFF         [  0]    ***   
       RAMAN_ORB            IRAMRE         UNRELAXED   [  0]    ***   
       RDO                  IRDOFM         OFF         [  0]    ***   
       REDUCE_REPR          REDREP         Ir          [  0]    ***   
       REFERENCE            IREFNC         RHF         [  0]    ***   
       RELATIVIST           IRELAT         OFF         [  0]    ***   
       RELAX_DENS           IRDENS         OFF         [  0]    ***   
       RESET_FLAGS          IRESET         OFF         [  0]    ***   
       RESTART_CC           ICCRES         OFF         [  0]    ***   
       ROT_EVEC             ROTVEC              0               ***   
       SAVE_INTS            ISVINT         OFF         [  0]    ***   
       SCALE_ON             ISTCRT              0               ***   
       SCF_CONV             ISCFCV          10D-  7             ***   
       SCF_DAMPING          IDAMP               0             x 10-3  
       SCF_EXPORDE          IRPPOR              6               ***   
       SCF_EXPSTAR          IRPPLS              8               ***   
       SCF_EXTRAPO          IRPP           ON          [  1]    ***   
       SCF_MAXCYC           ISCFCY            150              cycles 
       SCF_NOSTOP           ISCFST         OFF         [  0]    ***   
       SCF_PRINT            ISCFPR              0               ***   
       SCF_PROG             ISCFPR         SCF         [  0]    ***   
       SD_FIELD             IFINSD              0             x 10-6  
       SOPERT               IPERSO         OFF         [  0]    ***   
       SPHERICAL            IDFGHI         ON          [  1]    ***   
       SPINORBIT            ISOCAL         OFF         [  0]    ***   
       SPINROTATIO          ISRCON         OFF         [  0]    ***   
       SPIN_FLIP            ISPFLP         OFF         [  0]    ***   
       SPIN_ORBIT           ISPORB         OFF         [  0]    ***   
       SPIN_SCAL            ISCSMP         OFF         [  0]    ***   
       STEEPSCALE           ISTPSC              1000          x 10-3  
       SUBGROUP             ISUBGP         DEFAULT     [  0]    ***   
       SUBGRPAXIS           ISBXYZ         X           [  0]    ***   
       SYMMETRY             ISYM           ON          [  0]    ***   
       SYM_CHECK            ISYMCK         OVERRIDE    [  1]    ***   
       T3_EXTRAPOL          IT3EXT         OFF         [  0]    ***   
       T4_EXTRAPOL          IT4EXP         OFF         [  0]    ***   
       TAMP_SUM             IEVERY              5               ***   
       TESTSUITE            ITESTS         OFF         [  0]    ***   
       THERMOCH             ITHERM         OFF         [  0]    ***   
       TOL_CHOLESK          ITOLCH          10D-  4             ***   
       TRANGRAD             IRESRM         OFF         [  0]    ***   
       TRANS_INV            ITRAIN         USE         [  0]    ***   
       TREAT_PERT           ITREAT         SIMULTANEOUS[  0]    ***   
       TRIP_ALGORI          ITRALG         NORMAL      [  0]    ***   
       UIJ_THRESHO          IUIJTH              1               ***   
       UNITS                IUNITS         ANGSTROM    [  0]    ***   
       UNOS                 IUNOS          OFF         [  0]    ***   
       UPDATE_HESS          IHUPDT         ON          [  1]    ***   
       VIBPHASE             ISETPH         STANDARD    [  0]    ***   
       VIBRATION            IVIB           NO          [  0]    ***   
       VIB_ALGORIT          IGEALG         STANDARD    [  0]    ***   
       VNATORB              IVNORB         OFF         [  0]    ***   
       VTRAN                IVTRAN         FULL/PARTIAL[  0]    ***   
       XFIELD               IXEFLD              0             x 10-6  
       XFORM_TOL            IXFTOL          10D- 11             ***   
       YFIELD               IYEFLD              0             x 10-6  
       ZFIELD               IZEFLD              0             x 10-6  
       ZSCALE_EXP           IZEXPS         OFF         [  0]    ***   
    -------------------------------------------------------------------
  @GETXYZ-I,     7 atoms read from ZMAT.
   Rotational constants (in cm-1): 
          0.2399638845             0.2907953079             0.8536890782
   Rotational constants (in MHz): 
       7193.9372837205          8717.8252330618         25592.9582983935
********************************************************************************
   The full molecular point group is C2v .
   The largest Abelian subgroup of the full molecular point group is C2v .
   The computational point group is C2v .
********************************************************************************


 ----------------------------------------------------------------
         Coordinates used in calculation (QCOMP) 
 ----------------------------------------------------------------
 Z-matrix   Atomic            Coordinates (in bohr)
  Symbol    Number           X              Y              Z
 ----------------------------------------------------------------
     C         6        -1.25572327     0.00000000    -0.48969688
     C         6         1.25572327     0.00000000    -0.48969688
     H         1        -2.19034422     1.81857454    -0.48969688
     H         1         2.19034422     1.81857454    -0.48969688
     H         1        -2.19034422    -1.81857454    -0.48969688
     H         1         2.19034422    -1.81857454    -0.48969688
     H         1         0.00000000     0.00000000    13.62026114
 ----------------------------------------------------------------
 
   Interatomic distance matrix (Angstroms) 
 
                 C             C             H             H             H    
                [ 1]        [ 2]        [ 3]        [ 4]        [ 5]
  C    [ 1]     0.00000
  C    [ 2]     1.32900     0.00000
  H    [ 3]     1.08200     2.06193     0.00000
  H    [ 4]     2.06193     1.08200     2.31816     0.00000
  H    [ 5]     1.08200     2.06193     1.92470     3.01303     0.00000
  H    [ 6]     2.06193     1.08200     3.01303     1.92470     2.31816
  H    [ 7]     7.49618     7.49618     7.61713     7.61713     7.61713
 
                 H             H    
                [ 6]        [ 7]
  H    [ 6]     0.00000
  H    [ 7]     7.61713     0.00000
 rotcon2
   Rotational constants (in cm-1): 
          0.2907953079             0.2399638845             0.8536890782
   Rotational constants (in MHz): 
       8717.8252330618          7193.9372837205         25592.9582983935
  ECPDATA file not present.   Using default ECPDATA. 
  @GTFLGS-W, Keyword #EXCITE not known and is ignored.
  @GTFLGS-W, Keyword #ESTATE_SYM not known and is ignored.
  There are  139 basis functions.
 @GEOPT-W, Archive file not created for single-point calculation.
 @CHECKOUT-I, Total execution time (CPU/WALL):        0.12/       0.14 seconds.
--executable xjoda finished with status     0 in        0.16 seconds (walltime).
 --invoking executable--
/home/tsommerfeld/zscale/bin/xvmol
 SERIAL VERSION OF MOLECULE STARTED
********************************************************************************
                    INPUT FROM MOL FILE
********************************************************************************
INTGRL        1    0    1    0    0    0    0    0    0                         
         *** CFOUR Program System (Release V0.1) ***                            
h_ethylene                                                                      
    3    2 X  Y       0.10E-08              0    0                              
   9999.00      3.00                                                            
          6.00000000    1    4    1    1    1    1                              
C #1  -1.255723272983657   0.000000000000000  -0.489696877941431                
   10    4                                                                      
   8236.00000000000       5.310000000000000E-004  0.000000000000000E+000        
 -1.130000000000000E-004  0.000000000000000E+000                                
   1235.00000000000       4.108000000000000E-003  0.000000000000000E+000        
 -8.780000000000000E-004  0.000000000000000E+000                                
   280.800000000000       2.108700000000000E-002  0.000000000000000E+000        
 -4.540000000000000E-003  0.000000000000000E+000                                
   79.2700000000000       8.185300000000000E-002  0.000000000000000E+000        
 -1.813300000000000E-002  0.000000000000000E+000                                
   25.5900000000000       0.234817000000000       0.000000000000000E+000        
 -5.576000000000000E-002  0.000000000000000E+000                                
   8.99700000000000       0.434401000000000       0.000000000000000E+000        
 -0.126895000000000       0.000000000000000E+000                                
   3.31900000000000       0.346129000000000       0.000000000000000E+000        
 -0.170352000000000       0.000000000000000E+000                                
  0.905900000000000       3.937800000000000E-002   1.00000000000000             
  0.140382000000000       0.000000000000000E+000                                
  0.364300000000000      -8.983000000000000E-003  0.000000000000000E+000        
  0.598684000000000       0.000000000000000E+000                                
  0.128500000000000       2.385000000000000E-003  0.000000000000000E+000        
  0.395389000000000        1.00000000000000                                     
    5    3                                                                      
   18.7100000000000       0.000000000000000E+000  1.403100000000000E-002        
  0.000000000000000E+000                                                        
   4.13300000000000       0.000000000000000E+000  8.686600000000000E-002        
  0.000000000000000E+000                                                        
   1.20000000000000       0.000000000000000E+000  0.290216000000000             
  0.000000000000000E+000                                                        
  0.382700000000000        1.00000000000000       0.501008000000000             
  0.000000000000000E+000                                                        
  0.120900000000000       0.000000000000000E+000  0.343406000000000             
   1.00000000000000                                                             
    2    2                                                                      
   1.09700000000000        1.00000000000000       0.000000000000000E+000        
  0.318000000000000       0.000000000000000E+000   1.00000000000000             
    1    1                                                                      
  0.761000000000000        1.00000000000000                                     
          1.00000000    1    3    1    1    1                                   
H #2  -2.190344215575466   1.818574537711477  -0.489696877941431                
    5    3                                                                      
   33.8700000000000       0.000000000000000E+000  6.068000000000000E-003        
  0.000000000000000E+000                                                        
   5.09500000000000       0.000000000000000E+000  4.530800000000000E-002        
  0.000000000000000E+000                                                        
   1.15900000000000       0.000000000000000E+000  0.202822000000000             
  0.000000000000000E+000                                                        
  0.325800000000000        1.00000000000000       0.503903000000000             
  0.000000000000000E+000                                                        
  0.102700000000000       0.000000000000000E+000  0.383421000000000             
   1.00000000000000                                                             
    2    2                                                                      
   1.40700000000000        1.00000000000000       0.000000000000000E+000        
  0.388000000000000       0.000000000000000E+000   1.00000000000000             
    1    1                                                                      
   1.05700000000000        1.00000000000000                                     
          1.00000000    1    3    1    1    1                                   
H #3   0.000000000000000   0.000000000000000  13.620261143043733                
    6    4                                                                      
   33.8700000000000       0.000000000000000E+000  6.068000000000000E-003        
  0.000000000000000E+000  0.000000000000000E+000                                
   5.09500000000000       0.000000000000000E+000  4.530800000000000E-002        
  0.000000000000000E+000  0.000000000000000E+000                                
   1.15900000000000       0.000000000000000E+000  0.202822000000000             
  0.000000000000000E+000  0.000000000000000E+000                                
  0.325800000000000        1.00000000000000       0.503903000000000             
  0.000000000000000E+000  0.000000000000000E+000                                
  0.102700000000000       0.000000000000000E+000  0.383421000000000             
   1.00000000000000       0.000000000000000E+000                                
  2.526000000000000E-002  0.000000000000000E+000  0.000000000000000E+000        
  0.000000000000000E+000   1.00000000000000                                     
    3    3                                                                      
   1.40700000000000        1.00000000000000       0.000000000000000E+000        
  0.000000000000000E+000                                                        
  0.388000000000000       0.000000000000000E+000   1.00000000000000             
  0.000000000000000E+000                                                        
  0.102000000000000       0.000000000000000E+000  0.000000000000000E+000        
   1.00000000000000                                                             
    2    2                                                                      
   1.05700000000000        1.00000000000000       0.000000000000000E+000        
  0.247000000000000       0.000000000000000E+000   1.00000000000000             
FINISH                                                                          
 
********************************************************************************
 ONE- AND TWO-ELECTRON INTEGRALS OVER SYMMETRY-ADAPTED AOS ARE CALCULATED.

  SPHERICAL HARMONICS ARE USED.
  
  INTEGRALS LESS THAN  0.10E-13 ARE NEGLECTED.

  NUCLEAR REPULSION ENERGY :   34.7142185303 A.U.
  @MOLECU-I, ONE ELECTRON INTEGRALS (CPU/WALL):        0.04/       0.04 SECONDS.
  @TWOEL-I,     500629 INTEGRALS OF SYMMETRY TYPE  I I I I
  @TWOEL-I,    2057572 INTEGRALS OF SYMMETRY TYPE  I J I J
  @TWOEL-I,    1180471 INTEGRALS OF SYMMETRY TYPE  I I J J
  @TWOEL-I,    1780035 INTEGRALS OF SYMMETRY TYPE  I J K L
  @TWOEL-I, TOTAL NUMBER OF 2-E INTEGRALS    5518707.
  @MOLECU-I, TWO ELECTRON INTEGRALS (CPU/WALL):       35.58/       3.97 SECONDS.
 @CHECKOUT-I, Total execution time (CPU/WALL):       35.65/       4.02 seconds.

Running with 12 threads/proc

--executable xvmol finished with status     0 in        4.05 seconds (walltime).
 --invoking executable--
/home/tsommerfeld/zscale/bin/xvmol2ja
 @GETMEM-I,  Allocated   85830 MB of main memory.
 @CHECKOUT-I, Total execution time (CPU/WALL):        0.11/       0.02 seconds.
--executable xvmol2ja finished with status     0 in        0.03 seconds (walltime).
 --invoking executable--
/home/tsommerfeld/zscale/bin/xvscf
  There are  139 functions in the AO basis.

  There are 4 irreducible representations.

       Irrep        # of functions
         1                 45
         2                 39
         3                 29
         4                 26


  Parameters for SCF calculation: 
        SCF reference function:  RHF  
  Maximum number of iterations:  150
     Full symmetry point group: C2v 
     Computational point group: C2v 
        Initial density matrix: MOREAD                 
     SCF convergence tolerance: 10**(- 7)
  DIIS convergence acceleration:  ON
          Latest start for DIIS:   8
                     DIIS order:   6

  Memory information:     823082 words required.
  Fock matrices are constructed from AO integral file.
 @GETMEM-I,  Allocated       6 MB of main memory.
  Initialization and symmetry analysis required      0.001 seconds.

  @INITGES-I, Occupancies from core Hamiltonian:

          Alpha population by irrep:   4    3    1    1
           Beta population by irrep:   4    3    1    1


 total no. of electrons in initial guess :  0.000000000000000E+000
  --------------------------------------------------------------------
  Iteration         Total Energy            Largest Density Difference
  --------------------------------------------------------------------
       0            34.714218530346812              0.0000000000D+00
   current occupation vector 
     4  3  1  1
     4  3  1  1
       1           -51.714205566253938              0.8749713909D+01
   current occupation vector 
     4  3  1  1
     4  3  1  1
       2           -41.934087293857814              0.3148954676D+02
   current occupation vector 
     5  3  1  0
     5  3  1  0
       3           -68.005402041068848              0.3122865328D+02
   current occupation vector 
     4  3  1  1
     4  3  1  1
       4           -44.012169403476122              0.1243851504D+02
   current occupation vector 
     6  2  1  0
     6  2  1  0
       5           -68.667674020841730              0.1243851491D+02
   current occupation vector 
     4  3  1  1
     4  3  1  1
       6           -44.290794936432960              0.1243807063D+02
   current occupation vector 
     6  2  1  0
     6  2  1  0
       7           -68.760234158465124              0.1243807063D+02
   current occupation vector 
     4  3  1  1
     4  3  1  1
       8           -44.328235585908985              0.1243800429D+02
   current occupation vector 
     6  2  1  0
     6  2  1  0
       9           -73.562468010995985              0.1243800514D+02
   current occupation vector 
     4  3  1  1
     4  3  1  1
      10           -75.830106367110716              0.9247304364D+00
   current occupation vector 
     4  3  1  1
     4  3  1  1
      11           -78.507462019664729              0.1652227965D+01
   current occupation vector 
     5  2  1  1
     5  2  1  1
      12           -78.543450024509568              0.3250820268D+00
   current occupation vector 
     5  2  1  1
     5  2  1  1
      13           -78.546410031783552              0.5900152695D-01
   current occupation vector 
     5  2  1  1
     5  2  1  1
      14           -78.546561466225626              0.1734135215D-01
   current occupation vector 
     5  2  1  1
     5  2  1  1
      15           -78.546571437261520              0.5695410289D-02
   current occupation vector 
     5  2  1  1
     5  2  1  1
      16           -78.546571984935056              0.1965098661D-02
   current occupation vector 
     5  2  1  1
     5  2  1  1
      17           -78.546571993355329              0.1898533291D-03
   current occupation vector 
     5  2  1  1
     5  2  1  1
      18           -78.546571993574588              0.3960716159D-04
   current occupation vector 
     5  2  1  1
     5  2  1  1
      19           -78.546571993581026              0.2720866111D-05
   current occupation vector 
     5  2  1  1
     5  2  1  1
      20           -78.546571993581239              0.4334921975D-06
   current occupation vector 
     5  2  1  1
     5  2  1  1
      21           -78.546571993581324              0.1462842297D-06
   current occupation vector 
     5  2  1  1
     5  2  1  1

  SCF has converged.

 Density matrix saved to file den.dat
 total electron number:   18.0000000000001     
     E(SCF)=       -78.546571993582077              0.1273756063D-07


  Final occupancies:

     Alpha population by irrep:   5    2    1    1
      Beta population by irrep:   5    2    1    1


  Eigenvector printing suppressed.

 @PUTMOS-I, Writing converged MOs to NEWMOS. 
 @PUTMOS-I, Symmetry   1 Full Blocks 11 Partial Blocksize   1
 @PUTMOS-I, Symmetry   2 Full Blocks  9 Partial Blocksize   3
 @PUTMOS-I, Symmetry   3 Full Blocks  7 Partial Blocksize   1
 @PUTMOS-I, Symmetry   4 Full Blocks  6 Partial Blocksize   2
 @PUTFOCK-I, Writing converged Fock matrix to NEWFOCK. 
 @PUTFOCK-I, Symmetry   1 Full Blocks 11 Partial Blocksize   1
 @PUTFOCK-I, Symmetry   2 Full Blocks  9 Partial Blocksize   3
 @PUTFOCK-I, Symmetry   3 Full Blocks  7 Partial Blocksize   1
 @PUTFOCK-I, Symmetry   4 Full Blocks  6 Partial Blocksize   2


 
  ORBITAL EIGENVALUES (ALPHA)  (1H = 27.2113834 eV)

       MO #        E(hartree)               E(eV)           FULLSYM    COMPSYM
       ----   --------------------   --------------------   -------   ---------
    1     1         -11.1561011888        -303.5729466983      A1        A1 (1)
    2    46         -11.1543371489        -303.5249447308      B1        B1 (2)
    3     2          -0.9677290438         -26.3332460394      A1        A1 (1)
    4    47          -0.7099459745         -19.3186121066      B1        B1 (2)
    5    85          -0.5892254014         -16.0336383059      B2        B2 (3)
    6     3          -0.4962902053         -13.5047430537      A1        A1 (1)
    7   114          -0.4448901594         -12.1060766997      A2        A2 (4)
    8     4          -0.3061208525          -8.3299718849      A1        A1 (1)
    9     5          -0.0451906671          -1.2297005691      A1        A1 (1)
  +++++++++++++++++++++++++++++++++++++++++++++++++++++++++++++++++++++++++++++
   10     6           0.2250209449           6.1231312059      A1        A1 (1)
   11    48           0.2252576208           6.1295714844      B1        B1 (2)
   12     7           0.2440087176           6.6398147674      A1        A1 (1)
   13    86           0.2533438260           6.8938359809      B2        B2 (3)
   14    49           0.2608500926           7.0980918795      B1        B1 (2)
   15   115           0.3071914495           8.3591043100      A2        A2 (4)
   16    50           0.4238682964          11.5340427235      B1        B1 (2)
   17     8           0.4296074921          11.6902141800      A1        A1 (1)
   18    87           0.4497098766          12.2372278706      E         B2 (3)
   19    51           0.4497181626          12.2374533449      E         B1 (2)
   20     9           0.4498693196          12.2415665361      A1        A1 (1)
   21    10           0.5177401429          14.0884255293      A1        A1 (1)
   22    88           0.5415703086          14.7368773044      B2        B2 (3)
   23    11           0.5516871586          15.0121707887      A1        A1 (1)
   24    52           0.6354327134          17.2910031884      B1        B1 (2)
   25    53           0.6606673285          17.9776719760      B1        B1 (2)
   26    89           0.6661373900          18.1265199155      B2        B2 (3)
   27    12           0.6950710020          18.9138435245      A1        A1 (1)
   28    54           0.7088220748          19.2880292387      B1        B1 (2)
   29    90           0.7377203710          20.0743918566      B2        B2 (3)
   30   116           0.7631632741          20.7667284472      A2        A2 (4)
   31    13           0.7839094780          21.3312613568      A1        A1 (1)
   32    55           0.8548167054          23.2607451067      B1        B1 (2)
   33   117           0.8985159437          24.4498618342      A2        A2 (4)
   34    14           0.9668004244          26.3079770205      A1        A1 (1)
   35   118           0.9742153657          26.5097478314      A2        A2 (4)
   36    15           1.0559660103          28.7342959623      A1        A1 (1)
   37   119           1.0910901890          29.6900734579      A2        A2 (4)
   38   120           1.1024365656          29.9988240600      E         A2 (4)
   39    16           1.1024365736          29.9988242784      E         A1 (1)
   40    91           1.1024903195          30.0002867776      E         B2 (3)
   41    56           1.1024938230          30.0003821146      E         B1 (2)
   42    17           1.1025204022          30.0011053712      A1        A1 (1)
   43    92           1.1073832293          30.1334296239      B2        B2 (3)
   44    18           1.2524162409          34.0799785087      A1        A1 (1)
   45    57           1.2527996652          34.0904120121      B1        B1 (2)
   46    19           1.2992539298          35.3544968176      A1        A1 (1)
   47    93           1.3245558995          36.0429984168      B2        B2 (3)
   48    94           1.3387388790          36.4289369091      E         B2 (3)
   49    58           1.3387421317          36.4290254207      E         B1 (2)
   50    20           1.3388048388          36.4307317674      A1        A1 (1)
   51    59           1.3915127139          37.8649859631      B1        B1 (2)
   52    95           1.4150430662          38.5052794012      B2        B2 (3)
   53    60           1.4344682418          39.0338653027      B1        B1 (2)
   54    96           1.5332823377          41.7227335520      B2        B2 (3)
   55    61           1.5479022188          42.1205607408      B1        B1 (2)
   56    21           1.5772286358          42.9185731193      A1        A1 (1)
   57    62           1.6030850419          43.6221616991      B1        B1 (2)
   58   121           1.6669411665          45.3597751878      A2        A2 (4)
   59   122           1.7063522051          46.4322040688      A2        A2 (4)
   60    63           1.8699814950          50.8847834120      B1        B1 (2)
   61    22           1.9219042101          52.2976723178      A1        A1 (1)
   62   123           2.0402896174          55.5191030255      A2        A2 (4)
   63    23           2.3567813971          64.1312821866      A1        A1 (1)
   64    24           2.4351787379          66.2645822844      A1        A1 (1)
   65    25           2.6182846335          71.2471470112      A1        A1 (1)
   66    64           2.6350079939          71.7022127846      B1        B1 (2)
   67    97           2.6940438556          73.3086602510      B2        B2 (3)
   68    98           2.7791061313          75.6233224475      B2        B2 (3)
   69    65           2.8113040279          76.4994717570      B1        B1 (2)
   70    26           2.8320223634          77.0632463284      A1        A1 (1)
   71   124           2.9118395247          79.2351817072      A2        A2 (4)
   72    27           2.9774201774          81.0197219893      A1        A1 (1)
   73    99           2.9862371549          81.2596441459      B2        B2 (3)
   74   125           3.1348820982          85.3044786866      A2        A2 (4)
   75    28           3.1670158802          86.1788833508      A1        A1 (1)
   76   100           3.1772298082          86.4568184605      B2        B2 (3)
   77    29           3.1792055231          86.5105803967      A1        A1 (1)
   78   101           3.1912370444          86.8379747341      B2        B2 (3)
   79   126           3.2234536349          87.7146327318      A2        A2 (4)
   80    30           3.2490312546          88.4106351469      A1        A1 (1)
   81    66           3.2992716754          89.7777464997      B1        B1 (2)
   82    67           3.3364509387          90.7894456886      B1        B1 (2)
   83   102           3.4081490976          92.7404517788      B2        B2 (3)
   84    68           3.4725334437          94.4924389059      B1        B1 (2)
   85    69           3.4963022787          95.1392217875      B1        B1 (2)
   86   127           3.4969537492          95.1569492028      A2        A2 (4)
   87   128           3.5177960826          95.7240979254      A2        A2 (4)
   88    70           3.5239460513          95.8914470819      B1        B1 (2)
   89    31           3.6209423576          98.5308507631      A1        A1 (1)
   90    32           3.6465556457          99.2278237636      A1        A1 (1)
   91   103           3.7120678906         101.0105025768      B2        B2 (3)
   92   104           3.7928489600         103.2086672294      B2        B2 (3)
   93   129           3.8863169741         105.7520611960      A2        A2 (4)
   94    71           3.9466250496         107.3931273599      B1        B1 (2)
   95   130           3.9823519222         108.3653049898      A2        A2 (4)
   96    72           4.0388206069         109.9018960178      B1        B1 (2)
   97   131           4.0474046132         110.1354787050      A2        A2 (4)
   98    33           4.0773212931         110.9495529528      A1        A1 (1)
   99   105           4.0820502503         111.0782344194      B2        B2 (3)
  100    34           4.1275584927         112.3165766500      A1        A1 (1)
  101    35           4.2165397529         114.7378798386      E         A1 (1)
  102   132           4.2165397546         114.7378798829      E         A2 (4)
  103   106           4.2165528432         114.7382360429                B2 (3)
  104    73           4.2165536425         114.7382577914                B1 (2)
  105    36           4.2165593335         114.7384126523                A1 (1)
  106    74           4.2549113172         115.7820231859      B1        B1 (2)
  107   133           4.2618269504         115.9702071313      A2        A2 (4)
  108    37           4.2630894312         116.0045609808      A1        A1 (1)
  109   107           4.2726070049         116.2635473280      B2        B2 (3)
  110    38           4.3999695986         119.7292596952      A1        A1 (1)
  111    75           4.4207618846         120.2950465617      B1        B1 (2)
  112   108           4.4446229027         120.9443378738      E         B2 (3)
  113    76           4.4446238679         120.9443641372      E         B1 (2)
  114    39           4.4446421057         120.9448604132      A1        A1 (1)
  115   109           4.5401324831         123.5432856833      B2        B2 (3)
  116    77           4.5762272778         124.5254749812      B1        B1 (2)
  117   134           4.6769785668         127.2670569342      A2        A2 (4)
  118    40           4.7119332488         128.2182221874      A1        A1 (1)
  119    78           4.8283635502         131.3864517578      B1        B1 (2)
  120    79           4.8841925938         132.9056372686      B1        B1 (2)
  121    41           4.9986723520         136.0207898616      A1        A1 (1)
  122    42           5.0444955308         137.2677019481      A1        A1 (1)
  123   135           5.0983347790         138.7327423718      A2        A2 (4)
  124   110           5.1976723498         141.4358550984      B2        B2 (3)
  125   111           5.2872545330         143.8735102317      B2        B2 (3)
  126    43           5.3697286223         146.1177442943      A1        A1 (1)
  127    80           5.3749336033         146.2593790282      B1        B1 (2)
  128   136           5.4973275642         149.5898880247      A2        A2 (4)
  129   137           5.5127315257         150.0090511261      A2        A2 (4)
  130    81           5.6080258119         152.6021404842      B1        B1 (2)
  131    44           5.6332584000         153.2887541145      A1        A1 (1)
  132   112           5.6879044787         154.7757495128      B2        B2 (3)
  133    82           6.0274445106         164.0151035000      B1        B1 (2)
  134   138           6.1632436373         167.7103856022      A2        A2 (4)
  135   113           6.3410343887         172.5483179045      B2        B2 (3)
  136    83           6.5803645619         179.0608230056      B1        B1 (2)
  137   139           6.9438334184         188.9513134132      A2        A2 (4)
  138    45          11.9678477825         325.6616944835      A1        A1 (1)
  139    84          14.8198024529         403.2673264588      B1        B1 (2)


  VSCF finished.

 @CHECKOUT-I, Total execution time (CPU/WALL):       15.03/       1.26 seconds.
--executable xvscf finished with status     0 in        1.28 seconds (walltime).
 --invoking executable--
/home/tsommerfeld/zscale/bin/xvtran
 @GETMEM-I,  Allocated   85830 MB of main memory.
  Full RHF integral transformation
  Transformation of IIII integrals :
  1 pass through the AO integral file was required.
      500629 AO integrals were read.
      997321 MO integrals were written to HF2.
  Transformation of IIJJ integrals :
  1 pass through the AO integral file was required.
     1180471 AO integrals were read.
     2386572 MO integrals were written to HF2.
  Transformation of IJIJ integrals :
  1 pass through the AO integral file was required.
     2057572 AO integrals were read.
     4517475 MO integrals were written to HF2.
  Transformation of IJKL integrals :
  1 pass through the AO integral file was required.
     1780035 AO integrals were read.
     3969807 MO integrals were written to HF2.
  Summary of active molecular orbitals: 
------------------------------------------------------------------------
 
  Index      Eigenvalue    Symmetry    Index      Eigenvalue    Symmetry
------------------------------------------------------------------------
     1       -11.1561012        1        71         3.4963023        2
     2        -0.9677290        1        72         3.5239461        2
     3        -0.4962902        1        73         3.9466250        2
     4        -0.3061209        1        74         4.0388206        2
     5        -0.0451907        1        75         4.2165536        2
     6       -11.1543371        2        76         4.2549113        2
     7        -0.7099460        2        77         4.4207619        2
     8        -0.5892254        3        78         4.4446239        2
     9        -0.4448902        4        79         4.5762273        2
    10         0.2250209        1        80         4.8283636        2
    11         0.2440087        1        81         4.8841926        2
    12         0.4296075        1        82         5.3749336        2
    13         0.4498693        1        83         5.6080258        2
    14         0.5177401        1        84         6.0274445        2
    15         0.5516872        1        85         6.5803646        2
    16         0.6950710        1        86        14.8198025        2
    17         0.7839095        1        87         0.2533438        3
    18         0.9668004        1        88         0.4497099        3
    19         1.0559660        1        89         0.5415703        3
    20         1.1024366        1        90         0.6661374        3
    21         1.1025204        1        91         0.7377204        3
    22         1.2524162        1        92         1.1024903        3
    23         1.2992539        1        93         1.1073832        3
    24         1.3388048        1        94         1.3245559        3
    25         1.5772286        1        95         1.3387389        3
    26         1.9219042        1        96         1.4150431        3
    27         2.3567814        1        97         1.5332823        3
    28         2.4351787        1        98         2.6940439        3
    29         2.6182846        1        99         2.7791061        3
    30         2.8320224        1       100         2.9862372        3
    31         2.9774202        1       101         3.1772298        3
    32         3.1670159        1       102         3.1912370        3
    33         3.1792055        1       103         3.4081491        3
    34         3.2490313        1       104         3.7120679        3
    35         3.6209424        1       105         3.7928490        3
    36         3.6465556        1       106         4.0820503        3
    37         4.0773213        1       107         4.2165528        3
    38         4.1275585        1       108         4.2726070        3
    39         4.2165398        1       109         4.4446229        3
    40         4.2165593        1       110         4.5401325        3
    41         4.2630894        1       111         5.1976723        3
    42         4.3999696        1       112         5.2872545        3
    43         4.4446421        1       113         5.6879045        3
    44         4.7119332        1       114         6.3410344        3
    45         4.9986724        1       115         0.3071914        4
    46         5.0444955        1       116         0.7631633        4
    47         5.3697286        1       117         0.8985159        4
    48         5.6332584        1       118         0.9742154        4
    49        11.9678478        1       119         1.0910902        4
    50         0.2252576        2       120         1.1024366        4
    51         0.2608501        2       121         1.6669412        4
    52         0.4238683        2       122         1.7063522        4
    53         0.4497182        2       123         2.0402896        4
    54         0.6354327        2       124         2.9118395        4
    55         0.6606673        2       125         3.1348821        4
    56         0.7088221        2       126         3.2234536        4
    57         0.8548167        2       127         3.4969537        4
    58         1.1024938        2       128         3.5177961        4
    59         1.2527997        2       129         3.8863170        4
    60         1.3387421        2       130         3.9823519        4
    61         1.3915127        2       131         4.0474046        4
    62         1.4344682        2       132         4.2165398        4
    63         1.5479022        2       133         4.2618270        4
    64         1.6030850        2       134         4.6769786        4
    65         1.8699815        2       135         5.0983348        4
    66         2.6350080        2       136         5.4973276        4
    67         2.8113040        2       137         5.5127315        4
    68         3.2992717        2       138         6.1632436        4
    69         3.3364509        2       139         6.9438334        4
    70         3.4725334        2
------------------------------------------------------------------------
  -11.1561011888262      -0.967729043846472      -0.496290205285720     
 -0.306120852528639      -4.519066711988948E-002  -11.1543371488700     
 -0.709945974544711      -0.589225401376317      -0.444890159449026     
  0.225020944943732       0.244008717595205       0.429607492135365     
  0.449869319619039       0.517740142872312       0.551687158568267     
  0.695071001958993       0.783909478000370       0.966800424431621     
   1.05596601025033        1.10243657359782        1.10252040222109     
   1.25241624094187        1.29925392979607        1.33880483883748     
   1.57722863584037        1.92190421005366        2.35678139710637     
   2.43517873789402        2.61828463345360        2.83202236342029     
   2.97742017737100        3.16701588022722        3.17920552310705     
   3.24903125457870        3.62094235764055        3.64655564566570     
   4.07732129314772        4.12755849267115        4.21653975294087     
   4.21655933348594        4.26308943119805        4.39996959857776     
   4.44464210567008        4.71193324876663        4.99867235201292     
   5.04449553079792        5.36972862226208        5.63325840003085     
   11.9678477825395       0.225257620836464       0.260850092595019     
  0.423868296365461       0.449718162615173       0.635432713367773     
  0.660667328511398       0.708822074759277       0.854816705376288     
   1.10249382303002        1.25279966516327        1.33874213174714     
   1.39151271387157        1.43446824179664        1.54790221877600     
   1.60308504194238        1.86998149502477        2.63500799392056     
   2.81130402789484        3.29927167538621        3.33645093871342     
   3.47253344370030        3.49630227868141        3.52394605126416     
   3.94662504956918        4.03882060688620        4.21655364245103     
   4.25491131722180        4.42076188458890        4.44462386786298     
   4.57622727778073        4.82836355015221        4.88419259377222     
   5.37493360327328        5.60802581188116        6.02744451059231     
   6.58036456189840        14.8198024529241       0.253343825986567     
  0.449709876586412       0.541570308563183       0.666137389966605     
  0.737720370974982        1.10249031946086        1.10738322932612     
   1.32455589952846        1.33873887900551        1.41504306617596     
   1.53328233771599        2.69404385559300        2.77910613127670     
   2.98623715492179        3.17722980818751        3.19123704435211     
   3.40814909758701        3.71206789055789        3.79284896001894     
   4.08205025031603        4.21655284320712        4.27260700490459     
   4.44462290270148        4.54013248305876        5.19767234981696     
   5.28725453303035        5.68790447871092        6.34103438873750     
  0.307191449515884       0.763163274057427       0.898515943668707     
  0.974215365742035        1.09109018903814        1.10243656557174     
   1.66694116653349        1.70635220511507        2.04028961737649     
   2.91183952474793        3.13488209815264        3.22345363491660     
   3.49695374924606        3.51779608255439        3.88631697409513     
   3.98235192224146        4.04740461321183        4.21653975456840     
   4.26182695038352        4.67697856677973        5.09833477895853     
   5.49732756419539        5.51273152566231        6.16324363729947     
   6.94383341837906     
 @CHECKOUT-I, Total execution time (CPU/WALL):       16.74/       1.99 seconds.
--executable xvtran finished with status     0 in        2.01 seconds (walltime).
 --invoking executable--
/home/tsommerfeld/zscale/bin/xintprc
 @GETMEM-I,  Allocated   85830 MB of main memory.
  @GMOIAA-I, Processing MO integrals for spin case AA.
  @GMOIAA-I, Generation of integral list completed.
                      TYPE                NUMBER
                      ----               --------
                      PPPP               9084366
                      PPPH               2501599
                      PPHH                173538
                      PHPH                 97627
                      PHHH                 13713
                      HHHH                   332

                     TOTAL              11871175

  @FORMT2-I, Second-order MP correlation energies:
            ------------------------------------------------
            E(SCF)                  =    -78.546571993582 a.u.
            E2(AA)                  =     -0.037955988559 a.u.
            E2(AB)                  =     -0.319280858572 a.u.
            E2(TOT)                 =     -0.395192835690 a.u.
            Total MP2 energy        =    -78.941764829272 a.u.
            ------------------------------------------------
   Largest T2 amplitudes for spin case AB:
       _       _                 _       _                 _       _
   i   j   a   b             i   j   a   b             i   j   a   b
-----------------------------------------------------------------------------
[  4   4  50  50]-0.08264 [  5   5  11  11]-0.07579 [  5   5  17  17]-0.04747
[  5   5  17  11] 0.04151 [  5   5  11  17] 0.04151 [  5   5  88  88]-0.04091
[  5   5  53  53]-0.04091 [  5   5  13  13]-0.04089 [  4   4  54  50]-0.03669
[  4   4  50  54]-0.03669 [  4   4  14  14]-0.03047 [  4   4  15  15]-0.02679
[  4   3  50  57] 0.02650 [  3   4  57  50] 0.02650 [  4   4  54  54]-0.02621
-----------------------------------------------------------------------------
   Norm of T2AB vector (   345906 symmetry allowed elements):  0.3321964481.
-----------------------------------------------------------------------------
 @CHECKOUT-I, Total execution time (CPU/WALL):        5.63/       2.75 seconds.
--executable xintprc finished with status     0 in        2.78 seconds (walltime).
  calling xvcc 
 --invoking executable--
/home/tsommerfeld/zscale/bin/xvcc
 @GETMEM-I,  Allocated   85830 MB of main memory.
   CCSD(T) energy will be calculated.
   The total correlation energy is -0.395192835690 a.u.
   The total correlation energy is -0.415083571936 a.u.
  Convergence information after     1 iterations: 
  Largest element of residual vector : -0.26704325E-01.
  Largest element of DIIS residual   : -0.26704325E-01.
   The total correlation energy is -0.426247453404 a.u.
  Convergence information after     2 iterations: 
  Largest element of residual vector : -0.12396936E-01.
  Largest element of DIIS residual   : -0.10650788E-01.
   The total correlation energy is -0.429150418291 a.u.
  Convergence information after     3 iterations: 
  Largest element of residual vector : -0.66056529E-02.
  Largest element of DIIS residual   : -0.55779986E-02.
   The total correlation energy is -0.430774564694 a.u.
  Convergence information after     4 iterations: 
  Largest element of residual vector : -0.33590911E-02.
  Largest element of DIIS residual   : -0.19219482E-02.
   The total correlation energy is -0.430948255279 a.u.
  Convergence information after     5 iterations: 
  Largest element of residual vector : -0.97895935E-03.
  Largest element of DIIS residual   : -0.34448254E-03.
   The total correlation energy is -0.430953489637 a.u.
  Convergence information after     6 iterations: 
  Largest element of residual vector :  0.24528788E-03.
  Largest element of DIIS residual   :  0.20261873E-03.
   The total correlation energy is -0.430944753282 a.u.
  Convergence information after     7 iterations: 
  Largest element of residual vector :  0.12148297E-03.
  Largest element of DIIS residual   :  0.79125106E-04.
   The total correlation energy is -0.430940928345 a.u.
  Convergence information after     8 iterations: 
  Largest element of residual vector : -0.71068169E-04.
  Largest element of DIIS residual   :  0.27090712E-04.
   The total correlation energy is -0.430940382382 a.u.
  Convergence information after     9 iterations: 
  Largest element of residual vector :  0.27718699E-04.
  Largest element of DIIS residual   :  0.12198300E-04.
   The total correlation energy is -0.430940733009 a.u.
  Convergence information after    10 iterations: 
  Largest element of residual vector : -0.13381307E-04.
  Largest element of DIIS residual   :  0.46720465E-05.
   The total correlation energy is -0.430941382744 a.u.
  Convergence information after    11 iterations: 
  Largest element of residual vector :  0.44366355E-05.
  Largest element of DIIS residual   : -0.29427371E-05.
   The total correlation energy is -0.430941737805 a.u.
  Convergence information after    12 iterations: 
  Largest element of residual vector : -0.15813541E-05.
  Largest element of DIIS residual   : -0.14660963E-05.
   The total correlation energy is -0.430942020953 a.u.
  Convergence information after    13 iterations: 
  Largest element of residual vector : -0.93611106E-06.
  Largest element of DIIS residual   :  0.72811609E-06.
   The total correlation energy is -0.430942139347 a.u.
  Convergence information after    14 iterations: 
  Largest element of residual vector : -0.73829318E-06.
  Largest element of DIIS residual   : -0.36234265E-06.
   The total correlation energy is -0.430942177366 a.u.
  Convergence information after    15 iterations: 
  Largest element of residual vector :  0.38394984E-06.
  Largest element of DIIS residual   : -0.21434183E-06.
   The total correlation energy is -0.430942193071 a.u.
  Convergence information after    16 iterations: 
  Largest element of residual vector : -0.14492281E-06.
  Largest element of DIIS residual   :  0.77051252E-07.
   The total correlation energy is -0.430942196996 a.u.
  Convergence information after    17 iterations: 
  Largest element of residual vector :  0.76947119E-07.
  Largest element of DIIS residual   :  0.34398037E-07.
  Amplitude equations converged in    17iterations.
   The total correlation energy is -0.430942200003 a.u.
   The CC iterations have converged.

   Largest T1 amplitudes for spin case AA:
   i       a                 i       a                 i       a    
-----------------------------------------------------------------------------
[  5      11    ]-0.02622 [  4      14    ] 0.02406 [  5      17    ]-0.01558
[  4      18    ]-0.01485 [  4      22    ]-0.00979 [  5      10    ] 0.00948
[  4      28    ]-0.00946 [  8      89    ]-0.00791 [  8      90    ] 0.00618
[  3      12    ] 0.00554 [  5      31    ]-0.00492 [  9     121    ]-0.00448
[  8      97    ]-0.00433 [  4      30    ]-0.00396 [  7      56    ] 0.00393
-----------------------------------------------------------------------------
   Norm of T1AA vector (      327 symmetry allowed elements):  0.0494801446.
-----------------------------------------------------------------------------
   Largest T2 amplitudes for spin case AB:
       _       _                 _       _                 _       _
   i   j   a   b             i   j   a   b             i   j   a   b
-----------------------------------------------------------------------------
[  5   5  11  11]-0.13833 [  4   4  50  50]-0.11606 [  5   5  17  11] 0.08216
[  5   5  11  17] 0.08216 [  5   5  17  17]-0.06402 [  5   5  88  88]-0.05420
[  5   5  53  53]-0.05420 [  5   5  13  13]-0.05415 [  4   4  54  50]-0.05092
[  4   4  50  54]-0.05092 [  5   5  11  10] 0.04039 [  5   5  10  11] 0.04039
[  4   4  54  54]-0.02892 [  4   4  15  15]-0.02606 [  4   4  14  14]-0.02557
-----------------------------------------------------------------------------
   Norm of T2AB vector (   345906 symmetry allowed elements):  0.4178962598.
-----------------------------------------------------------------------------
       Summary of iterative solution of CC equations 
      -----------------------------------------------------------
                       Correlation           Total
       Iteration         Energy              Energy
      -----------------------------------------------------------
            0        -0.395192835690     -78.941764829272  DIIS 
            1        -0.415083571936     -78.961655565519  DIIS 
            2        -0.426247453404     -78.972819446987  DIIS 
            3        -0.429150418291     -78.975722411873  DIIS 
            4        -0.430774564694     -78.977346558276  DIIS 
            5        -0.430948255279     -78.977520248861  DIIS 
            6        -0.430953489637     -78.977525483219  DIIS 
            7        -0.430944753282     -78.977516746864  DIIS 
            8        -0.430940928345     -78.977512921927  DIIS 
            9        -0.430940382382     -78.977512375965  DIIS 
           10        -0.430940733009     -78.977512726591  DIIS 
           11        -0.430941382744     -78.977513376326  DIIS 
           12        -0.430941737805     -78.977513731387  DIIS 
           13        -0.430942020953     -78.977514014535  DIIS 
           14        -0.430942139347     -78.977514132929  DIIS 
           15        -0.430942177366     -78.977514170948  DIIS 
           16        -0.430942193071     -78.977514186653  DIIS 
           17        -0.430942200003     -78.977514193585  DIIS 
      -----------------------------------------------------------
      A miracle has come to pass. The CC iterations have converged.
        E(CCSD)           =     -78.977514193585
        E(CCSD + T(CCSD)) =     -78.993327442185
        E(CCSD(T))        =     -78.992906696487
 @CHECKOUT-I, Total execution time (CPU/WALL):      209.62/      17.50 seconds.
--executable xvcc finished with status     0 in       17.53 seconds (walltime).
  The final electronic energy is       -78.992906696486799 a.u. 
  This computation required                           27.86 seconds (walltime).
