CFour on node01
 --invoking executable--
/home/tsommerfeld/zscale/bin/xjoda


   *************************************************************************
         <<<     CCCCCC     CCCCCC   |||     CCCCCC     CCCCCC   >>>
       <<<      CCC        CCC       |||    CCC        CCC         >>>
      <<<      CCC        CCC        |||   CCC        CCC            >>>
    <<<        CCC        CCC        |||   CCC        CCC              >>>
      <<<      CCC        CCC        |||   CCC        CCC            >>>
       <<<      CCC        CCC       |||    CCC        CCC         >>>
         <<<     CCCCCC     CCCCCC   |||     CCCCCC     CCCCCC   >>>
   *************************************************************************

     ****************************************************************
     * CFOUR Coupled-Cluster techniques for Computational Chemistry *
     ****************************************************************
 

   Department of Chemistry                Institut fuer Physikalische Chemie
   University of Florida                  Universitaet Mainz
   Gainesville, FL 32611, USA             D-55099 Mainz, Germany

   Department of Chemistry                Department of Chemistry
   Johns Hopkins University               Southern Methodist University
   Baltimore, MD 21218, USA               Dallas, TX 75275, USA

   Institute of Nanotechnology            Department of Physical Chemistry
   Karlsruhe Inst. of Technology          Eotvos Lorand University
   D-76021 Karlsruhe, Germany             H-1053 Budapest, Hungary

 
                       Version 2.1
 
                     node01                                            
                     Tue May  3 11:40:54 CDT 2022                      
                     integer*8 version is running
 
********************************************************************************
*                          Input from ZMAT file                                *
********************************************************************************
h_ethylene                                                                      
C       0.000000      0.0   -0.664500                                           
C       0.000000      0.0    0.664500                                           
H       0.962348      0.0   -1.159080                                           
H       0.962348      0.0    1.159080                                           
H      -0.962348      0.0   -1.159080                                           
H      -0.962348      0.0    1.159080                                           
H      0.000000      9.333333333333332      0.000000                            
                                                                                
*CFOUR(CALC=CCSD(T)                                                             
#EXCITE=EOMEE                                                                   
#ESTATE_SYM=0/3/0/0                                                             
CC_PROG=VCC                                                                     
CHARGE=-1                                                                       
COORDINATES=CARTESIAN                                                           
BASIS=SPECIAL                                                                   
REFERENCE=RHF                                                                   
MEM_SIZE=90,MEM_UNIT=GB)                                                        
                                                                                
C:cc-pVTZ                                                                       
C:cc-pVTZ                                                                       
H:cc-pVTZ                                                                       
H:cc-pVTZ                                                                       
H:cc-pVTZ                                                                       
H:cc-pVTZ                                                                       
H:aug-cc-pVTZ                                                                   
                                                                                
********************************************************************************
  @GTFLGS-W, Keyword #EXCITE not known and is ignored.
  @GTFLGS-W, Keyword #ESTATE_SYM not known and is ignored.
    -------------------------------------------------------------------
                    CFOUR Control Parameters 
    -------------------------------------------------------------------
        External           Internal           Value            Units
          Name               Name
    -------------------------------------------------------------------
       ABCDTYPE             IABCDT         STANDARD    [  0]    ***   
       ANHARMONIC           IANHAR         OFF         [  0]    ***   
       ANH_ALGORIT          IANALG         STANDARD    [  0]    ***   
       ANH_DERIVAT          IANDER         SECOND      [  1]    ***   
       ANH_MODE             ANHMOD         VIBRATION   [  0]    ***   
       ANH_STEPSIZ          ICUBST             50000          x 10-6  
       ANH_SYMMETR          IANHSM         ABELIAN     [  0]    ***   
       AO_LADDERS           IAOLAD         SINGLEPASS  [  1]    ***   
       AV_SCF               IAVSCF         OFF         [  0]    ***   
       BASIS                IBASIS         SPECIAL     [  0]    ***   
       BOTHVECTORS          BOTHVC         OFF         [  0]    ***   
       BOX_POTENT           IPIAB          OFF         [  0]    ***   
       BREIT                IBREIT         OFF         [  0]    ***   
       BRUCK_CONV           IBRTOL          10D-  4             ***   
       BRUECKNER            IBRKNR         OFF         [  0]    ***   
       BUFFERSIZE           IBUFFS              4096            ***   
       CACHE_RECS           ICHREC             10               ***   
       CALCLEVEL            ICLLVL         CCSD(T)     [ 22]    ***   
       CCORBOPT             ICCORB         OFF         [  0]  x 0.01  
       CC_CONV              ICCCNV          10D-  7             ***   
       CC_EXPORDER          ICCEOR              5               ***   
       CC_EXTRAPOL          ICCEXT         DIIS        [  1]    ***   
       CC_GUESS             ICCGES         MP2         [  0]    ***   
       CC_MAXCYC            ICCCYC            100              cycles 
       CC_PROGRAM           ICCPRO         VCC         [  0]    ***   
       CHARGE               ICHRGE             -1               ***   
       CHOLESKY             ICHOLE         OFF         [  0]    ***   
       CIS_CONV             ICISTL              5               ***   
       COMM_SIZE            IPSIZE            ***               ***   
       CONSTANT             ICONST         OLD         [  1]    ***   
       CONTINUUM            ICONTU         NONE        [  0]    ***   
       CONTRACTION          ICNTYP         GENERAL     [  1]    ***   
       COORDINATES          ICOORD         CARTESIAN   [  1]    ***   
       CPHF_CONVER          ICPHFT          10D- 16             ***   
       CPHF_MAXCYC          ICPHFC             64              cycles 
       CUBIC                ICUBIC         OFF         [  0]    ***   
       CURVILINEAR          ICURVY         OFF         [  0]    ***   
       DBOC                 IDBOC          OFF         [  0]    ***   
       DCT                  IDCT           OFF         [  0]    ***   
       DERIV_LEV            IDRLVL         ZERO        [  0]    ***   
       DEVMEM_SIZE          IDVMEM         *********           MByte  
       DIAG_MRCC            IEOMST          10D-  0             ***   
       DIFF_TYPE            IDIFTY         RELAXED     [  0]    ***   
       DIRECT               IDIRCT         OFF         [  0]    ***   
       DROPMO               IDRPMO      NONE         
       ECP                  IECP           OFF         [  0]    ***   
       EIGENVECTOR          IVEC                1               ***   
       EL_ANHARM            IELANH         OFF         [  0]    ***   
       EOMFOLLOW            IEOMSR         ENERGY      [  0]    ***   
       EOMIP                IEOMIP         OFF         [  0]    ***   
       EOMLEVEL             HBARFM         SAME        [  0]    ***   
       EOM_MRCC             IMRCCE         NEW         [  1]    ***   
       EOM_NONIT            EOMNON         OFF         [  0]    ***   
       EOM_NSING            IEOMSI          10D-  0             ***   
       EOM_NSTATES          IMRCCD         DAVIDSON    [  0]    ***   
       EOM_NTRIP            IEOMTR          10D-  0             ***   
       EOM_ORDER            IEXORD         ENERGY      [  0]    ***   
       EOM_PROPSTA          IEOMST              0               ***   
       ESTATE_CONV          IEXTOL          10D-  5             ***   
       ESTATE_DIAG          IEXDIG         ITERATIVE   [  0]    ***   
       ESTATE_LOCK          IESLOC         ON          [  1]    ***   
       ESTATE_MAXC          IEXMXC             40               ***   
       ESTATE_PROP          IEXPRP         OFF         [  0]    ***   
       EVAL_HESS            IRECAL              0            # of cyc.
       EXCITATION           IEXCIT              0               ***   
       EXCITE               IEXCIT         NONE        [  0]    ***   
       EXTERN_POT           IEXPOT         OFF         [  0]    ***   
       FCGRADNEW            IFCGNW         OFF         [  0]    ***   
       FC_FIELD             IFINFC              0             x 10-6  
       FD_CALTYPE           IFDCAL         GRADONLY    [  0]    ***   
       FD_PROJECT           IFDPRJ         OFF         [  1]    ***   
       FD_STEPSIZE          IDISFD              0            10-4 bohr
       FD_USEGROUP          IFDGRP         FULL        [  0]    ***   
       FILE_RECSIZ          IFLREC              4096           words  
       FINITE_PERT          IFIPER              0             x 10-6  
       FIXGEOM              IFIXGM         OFF         [  0]    ***   
       FOCK                 IFOCK          AO          [  1]    ***   
       FREQ_ALGORI          IVIALG         STANDARD    [  0]    ***   
       FROZEN_CORE          IFROCO         OFF         [  0]    ***   
       GAMMA_ABCD           IGABCD         STORE       [  0]    ***   
       GAMMA_ABCI           IGABCI         STORE       [  0]    ***   
       GENBAS_1             IGNBS1              0               ***   
       GENBAS_2             IGNBS2              0               ***   
       GENBAS_3             IGNBS3              0               ***   
       GENBAS_4             IGNBS4              0               ***   
       GEO_CONV             ICONTL              5              H/bohr 
       GEO_MAXCYC           IOPTCY             50               ***   
       GEO_MAXSTEP          IMXSTP            300            millibohr
       GEO_METHOD           INR            SINGLE_POINT[  5]    ***   
       GIAO                 IGIAO          OFF         [  1]    ***   
       GIMIC                IGIMIC         OFF         [  0]    ***   
       GRID                 IGRID          OFF         [  0]    ***   
       GRID_ALGO            IGALGO         SERIAL      [  0]    ***   
       GUESS                IGUESS         MOREAD      [  0]    ***   
       HBAR                 IHBAR          OFF         [  0]    ***   
       HESS_TYPE            IHESTP         SCF         [  0]    ***   
       HF2_FILE             IHF2Fl         USE         [  1]    ***   
       HFSTABILITY          ISTABL         OFF         [  0]    ***   
       INCORE               INCORE         OFF         [  0]    ***   
       INPUT_MRCC           IMRCC          ON          [  1]    ***   
       INTEGRALS            INTTYP         VMOL        [  1]    ***   
       JODA_PRINT           IJPRNT              0               ***   
       KEYWORD_OUT          IDMPKW         NO          [  0]    ***   
       LINDEP_TOL           ILINDP              8               ***   
       LINEQ_CONV           IZTACN          10D-  7           cycles  
       LINEQ_EXPOR          ILMAXD              5               ***   
       LINEQ_MAXCY          ILMAXC            100               ***   
       LINEQ_TYPE           ILTYPE         DIIS        [  1]    ***   
       LOCK_ORBOCC          ILOCOC         OFF         [  0]    ***   
       MEMORY_SIZE          IMEMSZ         *********           words  
       MEM_UNIT             IMEMU          GB          [  3]    ***   
       MRCC                 IMRCCC         OFF         [  0]    ***   
       MULTIPLICTY          IMULTP              1               ***   
       NACOUPLING           IVCOUP         OFF         [  0]    ***   
       NEGEVAL              IDIE           ABORT       [  0]    ***   
       NEWNORM              INEWNO         OFF         [  0]    ***   
       NON-HF               INONHF         OFF         [  0]    ***   
       NTOP_TAMP            ITOPT2             15               ***   
       NUC_MODEL            INUCMO         POINT       [  0]    ***   
       OCCUPATION           IOCCU   ESTIMATED BY SCF 
       OPEN-SHELL           IOPEN          SPIN-ORBITAL[  0]    ***   
       OPTVIB               IOPTVB         OFF         [  0]    ***   
       ORBITALS             IORBTP         STANDARD    [  0]    ***   
       PARALLEL             IPARAL         ON          [  1]    ***   
       PARA_INT             IPINTS         ON          [  1]    ***   
       PARA_PRINT           IPPRIN              0               ***   
       PERT_ORB             IPTORB         STANDARD    [  0]    ***   
       POINTS               IGRDFD              0               ***   
       PRINT                IPRNT               0               ***   
       PROPS                IPROPS         OFF         [  0]    ***   
       PROP_INTEGR          IINTYP         INTERNAL    [  0]    ***   
       PSI                  IPSI           OFF         [  0]    ***   
       QC_ALG               IQCALG         FLM         [  0]    ***   
       QC_LINALG            IQCLIN         TRIDIAG     [  2]    ***   
       QC_MAXCYC            IQCMAX          10D-100           cycles  
       QC_MAXSCFCY          IQCMSC          10D- 15           cycles  
       QC_RTRUST            IQCRTR          10D-  0           x 10-3  
       QC_SKIPSCF           IQCSKI         OFF         [  0]    ***   
       QC_START             IQCSTA          10D-  1             ***   
       QRHFGUESS            IQGUES         OFF         [  0]    ***   
       QUARTIC              IQUART         OFF         [  0]    ***   
       RAMAN_INT            IRAMIN         OFF         [  0]    ***   
       RAMAN_ORB            IRAMRE         UNRELAXED   [  0]    ***   
       RDO                  IRDOFM         OFF         [  0]    ***   
       REDUCE_REPR          REDREP         Ir          [  0]    ***   
       REFERENCE            IREFNC         RHF         [  0]    ***   
       RELATIVIST           IRELAT         OFF         [  0]    ***   
       RELAX_DENS           IRDENS         OFF         [  0]    ***   
       RESET_FLAGS          IRESET         OFF         [  0]    ***   
       RESTART_CC           ICCRES         OFF         [  0]    ***   
       ROT_EVEC             ROTVEC              0               ***   
       SAVE_INTS            ISVINT         OFF         [  0]    ***   
       SCALE_ON             ISTCRT              0               ***   
       SCF_CONV             ISCFCV          10D-  7             ***   
       SCF_DAMPING          IDAMP               0             x 10-3  
       SCF_EXPORDE          IRPPOR              6               ***   
       SCF_EXPSTAR          IRPPLS              8               ***   
       SCF_EXTRAPO          IRPP           ON          [  1]    ***   
       SCF_MAXCYC           ISCFCY            150              cycles 
       SCF_NOSTOP           ISCFST         OFF         [  0]    ***   
       SCF_PRINT            ISCFPR              0               ***   
       SCF_PROG             ISCFPR         SCF         [  0]    ***   
       SD_FIELD             IFINSD              0             x 10-6  
       SOPERT               IPERSO         OFF         [  0]    ***   
       SPHERICAL            IDFGHI         ON          [  1]    ***   
       SPINORBIT            ISOCAL         OFF         [  0]    ***   
       SPINROTATIO          ISRCON         OFF         [  0]    ***   
       SPIN_FLIP            ISPFLP         OFF         [  0]    ***   
       SPIN_ORBIT           ISPORB         OFF         [  0]    ***   
       SPIN_SCAL            ISCSMP         OFF         [  0]    ***   
       STEEPSCALE           ISTPSC              1000          x 10-3  
       SUBGROUP             ISUBGP         DEFAULT     [  0]    ***   
       SUBGRPAXIS           ISBXYZ         X           [  0]    ***   
       SYMMETRY             ISYM           ON          [  0]    ***   
       SYM_CHECK            ISYMCK         OVERRIDE    [  1]    ***   
       T3_EXTRAPOL          IT3EXT         OFF         [  0]    ***   
       T4_EXTRAPOL          IT4EXP         OFF         [  0]    ***   
       TAMP_SUM             IEVERY              5               ***   
       TESTSUITE            ITESTS         OFF         [  0]    ***   
       THERMOCH             ITHERM         OFF         [  0]    ***   
       TOL_CHOLESK          ITOLCH          10D-  4             ***   
       TRANGRAD             IRESRM         OFF         [  0]    ***   
       TRANS_INV            ITRAIN         USE         [  0]    ***   
       TREAT_PERT           ITREAT         SIMULTANEOUS[  0]    ***   
       TRIP_ALGORI          ITRALG         NORMAL      [  0]    ***   
       UIJ_THRESHO          IUIJTH              1               ***   
       UNITS                IUNITS         ANGSTROM    [  0]    ***   
       UNOS                 IUNOS          OFF         [  0]    ***   
       UPDATE_HESS          IHUPDT         ON          [  1]    ***   
       VIBPHASE             ISETPH         STANDARD    [  0]    ***   
       VIBRATION            IVIB           NO          [  0]    ***   
       VIB_ALGORIT          IGEALG         STANDARD    [  0]    ***   
       VNATORB              IVNORB         OFF         [  0]    ***   
       VTRAN                IVTRAN         FULL/PARTIAL[  0]    ***   
       XFIELD               IXEFLD              0             x 10-6  
       XFORM_TOL            IXFTOL          10D- 11             ***   
       YFIELD               IYEFLD              0             x 10-6  
       ZFIELD               IZEFLD              0             x 10-6  
       ZSCALE_EXP           IZEXPS         OFF         [  0]    ***   
    -------------------------------------------------------------------
  @GETXYZ-I,     7 atoms read from ZMAT.
   Rotational constants (in cm-1): 
          0.1673061161             0.1905263054             0.8536890782
   Rotational constants (in MHz): 
       5015.7118803065          5711.8357404091         25592.9582983935
********************************************************************************
   The full molecular point group is C2v .
   The largest Abelian subgroup of the full molecular point group is C2v .
   The computational point group is C2v .
********************************************************************************


 ----------------------------------------------------------------
         Coordinates used in calculation (QCOMP) 
 ----------------------------------------------------------------
 Z-matrix   Atomic            Coordinates (in bohr)
  Symbol    Number           X              Y              Z
 ----------------------------------------------------------------
     C         6        -1.25572327     0.00000000    -0.61212110
     C         6         1.25572327     0.00000000    -0.61212110
     H         1        -2.19034422     1.81857454    -0.61212110
     H         1         2.19034422     1.81857454    -0.61212110
     H         1        -2.19034422    -1.81857454    -0.61212110
     H         1         2.19034422    -1.81857454    -0.61212110
     H         1         0.00000000     0.00000000    17.02532643
 ----------------------------------------------------------------
 
   Interatomic distance matrix (Angstroms) 
 
                 C             C             H             H             H    
                [ 1]        [ 2]        [ 3]        [ 4]        [ 5]
  C    [ 1]     0.00000
  C    [ 2]     1.32900     0.00000
  H    [ 3]     1.08200     2.06193     0.00000
  H    [ 4]     2.06193     1.08200     2.31816     0.00000
  H    [ 5]     1.08200     2.06193     1.92470     3.01303     0.00000
  H    [ 6]     2.06193     1.08200     3.01303     1.92470     2.31816
  H    [ 7]     9.35696     9.35696     9.45414     9.45414     9.45414
 
                 H             H    
                [ 6]        [ 7]
  H    [ 6]     0.00000
  H    [ 7]     9.45414     0.00000
 rotcon2
   Rotational constants (in cm-1): 
          0.1905263054             0.1673061161             0.8536890782
   Rotational constants (in MHz): 
       5711.8357404091          5015.7118803065         25592.9582983935
  ECPDATA file not present.   Using default ECPDATA. 
  @GTFLGS-W, Keyword #EXCITE not known and is ignored.
  @GTFLGS-W, Keyword #ESTATE_SYM not known and is ignored.
  There are  139 basis functions.
 @GEOPT-W, Archive file not created for single-point calculation.
 @CHECKOUT-I, Total execution time (CPU/WALL):        0.15/       0.17 seconds.
--executable xjoda finished with status     0 in        0.19 seconds (walltime).
 --invoking executable--
/home/tsommerfeld/zscale/bin/xvmol
 SERIAL VERSION OF MOLECULE STARTED
********************************************************************************
                    INPUT FROM MOL FILE
********************************************************************************
INTGRL        1    0    1    0    0    0    0    0    0                         
         *** CFOUR Program System (Release V0.1) ***                            
h_ethylene                                                                      
    3    2 X  Y       0.10E-08              0    0                              
   9999.00      3.00                                                            
          6.00000000    1    4    1    1    1    1                              
C #1  -1.255723272983657   0.000000000000000  -0.612121097426788                
   10    4                                                                      
   8236.00000000000       5.310000000000000E-004  0.000000000000000E+000        
 -1.130000000000000E-004  0.000000000000000E+000                                
   1235.00000000000       4.108000000000000E-003  0.000000000000000E+000        
 -8.780000000000000E-004  0.000000000000000E+000                                
   280.800000000000       2.108700000000000E-002  0.000000000000000E+000        
 -4.540000000000000E-003  0.000000000000000E+000                                
   79.2700000000000       8.185300000000000E-002  0.000000000000000E+000        
 -1.813300000000000E-002  0.000000000000000E+000                                
   25.5900000000000       0.234817000000000       0.000000000000000E+000        
 -5.576000000000000E-002  0.000000000000000E+000                                
   8.99700000000000       0.434401000000000       0.000000000000000E+000        
 -0.126895000000000       0.000000000000000E+000                                
   3.31900000000000       0.346129000000000       0.000000000000000E+000        
 -0.170352000000000       0.000000000000000E+000                                
  0.905900000000000       3.937800000000000E-002   1.00000000000000             
  0.140382000000000       0.000000000000000E+000                                
  0.364300000000000      -8.983000000000000E-003  0.000000000000000E+000        
  0.598684000000000       0.000000000000000E+000                                
  0.128500000000000       2.385000000000000E-003  0.000000000000000E+000        
  0.395389000000000        1.00000000000000                                     
    5    3                                                                      
   18.7100000000000       0.000000000000000E+000  1.403100000000000E-002        
  0.000000000000000E+000                                                        
   4.13300000000000       0.000000000000000E+000  8.686600000000000E-002        
  0.000000000000000E+000                                                        
   1.20000000000000       0.000000000000000E+000  0.290216000000000             
  0.000000000000000E+000                                                        
  0.382700000000000        1.00000000000000       0.501008000000000             
  0.000000000000000E+000                                                        
  0.120900000000000       0.000000000000000E+000  0.343406000000000             
   1.00000000000000                                                             
    2    2                                                                      
   1.09700000000000        1.00000000000000       0.000000000000000E+000        
  0.318000000000000       0.000000000000000E+000   1.00000000000000             
    1    1                                                                      
  0.761000000000000        1.00000000000000                                     
          1.00000000    1    3    1    1    1                                   
H #2  -2.190344215575466   1.818574537711477  -0.612121097426788                
    5    3                                                                      
   33.8700000000000       0.000000000000000E+000  6.068000000000000E-003        
  0.000000000000000E+000                                                        
   5.09500000000000       0.000000000000000E+000  4.530800000000000E-002        
  0.000000000000000E+000                                                        
   1.15900000000000       0.000000000000000E+000  0.202822000000000             
  0.000000000000000E+000                                                        
  0.325800000000000        1.00000000000000       0.503903000000000             
  0.000000000000000E+000                                                        
  0.102700000000000       0.000000000000000E+000  0.383421000000000             
   1.00000000000000                                                             
    2    2                                                                      
   1.40700000000000        1.00000000000000       0.000000000000000E+000        
  0.388000000000000       0.000000000000000E+000   1.00000000000000             
    1    1                                                                      
   1.05700000000000        1.00000000000000                                     
          1.00000000    1    3    1    1    1                                   
H #3   0.000000000000000   0.000000000000000  17.025326428804664                
    6    4                                                                      
   33.8700000000000       0.000000000000000E+000  6.068000000000000E-003        
  0.000000000000000E+000  0.000000000000000E+000                                
   5.09500000000000       0.000000000000000E+000  4.530800000000000E-002        
  0.000000000000000E+000  0.000000000000000E+000                                
   1.15900000000000       0.000000000000000E+000  0.202822000000000             
  0.000000000000000E+000  0.000000000000000E+000                                
  0.325800000000000        1.00000000000000       0.503903000000000             
  0.000000000000000E+000  0.000000000000000E+000                                
  0.102700000000000       0.000000000000000E+000  0.383421000000000             
   1.00000000000000       0.000000000000000E+000                                
  2.526000000000000E-002  0.000000000000000E+000  0.000000000000000E+000        
  0.000000000000000E+000   1.00000000000000                                     
    3    3                                                                      
   1.40700000000000        1.00000000000000       0.000000000000000E+000        
  0.000000000000000E+000                                                        
  0.388000000000000       0.000000000000000E+000   1.00000000000000             
  0.000000000000000E+000                                                        
  0.102000000000000       0.000000000000000E+000  0.000000000000000E+000        
   1.00000000000000                                                             
    2    2                                                                      
   1.05700000000000        1.00000000000000       0.000000000000000E+000        
  0.247000000000000       0.000000000000000E+000   1.00000000000000             
FINISH                                                                          
 
********************************************************************************
 ONE- AND TWO-ELECTRON INTEGRALS OVER SYMMETRY-ADAPTED AOS ARE CALCULATED.

  SPHERICAL HARMONICS ARE USED.
  
  INTEGRALS LESS THAN  0.10E-13 ARE NEGLECTED.

  NUCLEAR REPULSION ENERGY :   34.4917605345 A.U.
  @MOLECU-I, ONE ELECTRON INTEGRALS (CPU/WALL):        0.04/       0.04 SECONDS.
  @TWOEL-I,     418118 INTEGRALS OF SYMMETRY TYPE  I I I I
  @TWOEL-I,    1698667 INTEGRALS OF SYMMETRY TYPE  I J I J
  @TWOEL-I,    1001172 INTEGRALS OF SYMMETRY TYPE  I I J J
  @TWOEL-I,    1484578 INTEGRALS OF SYMMETRY TYPE  I J K L
  @TWOEL-I, TOTAL NUMBER OF 2-E INTEGRALS    4602535.
  @MOLECU-I, TWO ELECTRON INTEGRALS (CPU/WALL):       31.34/       3.58 SECONDS.
 @CHECKOUT-I, Total execution time (CPU/WALL):       31.41/       3.64 seconds.

Running with 12 threads/proc

--executable xvmol finished with status     0 in        3.66 seconds (walltime).
 --invoking executable--
/home/tsommerfeld/zscale/bin/xvmol2ja
 @GETMEM-I,  Allocated   85830 MB of main memory.
 @CHECKOUT-I, Total execution time (CPU/WALL):        0.11/       0.02 seconds.
--executable xvmol2ja finished with status     0 in        0.03 seconds (walltime).
 --invoking executable--
/home/tsommerfeld/zscale/bin/xvscf
  There are  139 functions in the AO basis.

  There are 4 irreducible representations.

       Irrep        # of functions
         1                 45
         2                 39
         3                 29
         4                 26


  Parameters for SCF calculation: 
        SCF reference function:  RHF  
  Maximum number of iterations:  150
     Full symmetry point group: C2v 
     Computational point group: C2v 
        Initial density matrix: MOREAD                 
     SCF convergence tolerance: 10**(- 7)
  DIIS convergence acceleration:  ON
          Latest start for DIIS:   8
                     DIIS order:   6

  Memory information:     823082 words required.
  Fock matrices are constructed from AO integral file.
 @GETMEM-I,  Allocated       6 MB of main memory.
  Initialization and symmetry analysis required      0.001 seconds.

  @INITGES-I, Occupancies from core Hamiltonian:

          Alpha population by irrep:   4    3    1    1
           Beta population by irrep:   4    3    1    1


 total no. of electrons in initial guess :  0.000000000000000E+000
  --------------------------------------------------------------------
  Iteration         Total Energy            Largest Density Difference
  --------------------------------------------------------------------
       0            34.491760534547268              0.0000000000D+00
   current occupation vector 
     4  3  1  1
     4  3  1  1
       1           -51.683667824486278              0.8749589753D+01
   current occupation vector 
     4  3  1  1
     4  3  1  1
       2           -40.399387052929811              0.3176769263D+02
   current occupation vector 
     5  3  1  0
     5  3  1  0
       3           -67.954345197667621              0.3150549193D+02
   current occupation vector 
     4  3  1  1
     4  3  1  1
       4           -42.483014218887405              0.1243471910D+02
   current occupation vector 
     6  2  1  0
     6  2  1  0
       5           -68.612536155390387              0.1243471909D+02
   current occupation vector 
     4  3  1  1
     4  3  1  1
       6           -42.760890354831830              0.1243471221D+02
   current occupation vector 
     6  2  1  0
     6  2  1  0
       7           -68.704379164477771              0.1243471221D+02
   current occupation vector 
     4  3  1  1
     4  3  1  1
       8           -42.798214499604640              0.1243471117D+02
   current occupation vector 
     6  2  1  0
     6  2  1  0
       9           -73.497516228070623              0.1243471118D+02
   current occupation vector 
     4  3  1  1
     4  3  1  1
      10           -75.737474430326174              0.9150286281D+00
   current occupation vector 
     4  3  1  1
     4  3  1  1
      11           -77.532642364772414              0.9072035763D+00
   current occupation vector 
     4  3  1  1
     4  3  1  1
      12           -76.498702035392029              0.2864553150D+01
   current occupation vector 
     5  2  1  1
     5  2  1  1
      13           -78.380841525662206              0.2856375912D+01
   current occupation vector 
     5  2  1  1
     5  2  1  1
      14           -78.422991912687849              0.2669225485D+00
   current occupation vector 
     5  2  1  1
     5  2  1  1
      15           -78.480457956940015              0.2483750799D+00
   current occupation vector 
     5  2  1  1
     5  2  1  1
      16           -78.545043520965478              0.3647457671D+00
   current occupation vector 
     5  2  1  1
     5  2  1  1
      17           -78.546840991298097              0.7938908599D-01
   current occupation vector 
     5  2  1  1
     5  2  1  1
      18           -78.546892376730540              0.1932498121D-01
   current occupation vector 
     5  2  1  1
     5  2  1  1
      19           -78.546892407190725              0.2614854900D-03
   current occupation vector 
     5  2  1  1
     5  2  1  1
      20           -78.546892408881305              0.6089896172D-04
   current occupation vector 
     5  2  1  1
     5  2  1  1
      21           -78.546892409013282              0.1269911093D-04
   current occupation vector 
     5  2  1  1
     5  2  1  1
      22           -78.546892409016266              0.1536360453D-05
   current occupation vector 
     5  2  1  1
     5  2  1  1
      23           -78.546892409016834              0.4060981115D-06
   current occupation vector 
     5  2  1  1
     5  2  1  1
      24           -78.546892409016749              0.1491842818D-06
   current occupation vector 
     5  2  1  1
     5  2  1  1

  SCF has converged.

 Density matrix saved to file den.dat
 total electron number:   18.0000000000000     
     E(SCF)=       -78.546892409016948              0.1043539665D-07


  Final occupancies:

     Alpha population by irrep:   5    2    1    1
      Beta population by irrep:   5    2    1    1


  Eigenvector printing suppressed.

 @PUTMOS-I, Writing converged MOs to NEWMOS. 
 @PUTMOS-I, Symmetry   1 Full Blocks 11 Partial Blocksize   1
 @PUTMOS-I, Symmetry   2 Full Blocks  9 Partial Blocksize   3
 @PUTMOS-I, Symmetry   3 Full Blocks  7 Partial Blocksize   1
 @PUTMOS-I, Symmetry   4 Full Blocks  6 Partial Blocksize   2
 @PUTFOCK-I, Writing converged Fock matrix to NEWFOCK. 
 @PUTFOCK-I, Symmetry   1 Full Blocks 11 Partial Blocksize   1
 @PUTFOCK-I, Symmetry   2 Full Blocks  9 Partial Blocksize   3
 @PUTFOCK-I, Symmetry   3 Full Blocks  7 Partial Blocksize   1
 @PUTFOCK-I, Symmetry   4 Full Blocks  6 Partial Blocksize   2


 
  ORBITAL EIGENVALUES (ALPHA)  (1H = 27.2113834 eV)

       MO #        E(hartree)               E(eV)           FULLSYM    COMPSYM
       ----   --------------------   --------------------   -------   ---------
    1     1         -11.1697629859        -303.9447030976      A1        A1 (1)
    2    46         -11.1679989660        -303.8967016739      B1        B1 (2)
    3     2          -0.9815204078         -26.7085281314      A1        A1 (1)
    4    47          -0.7235606185         -19.6890854039      B1        B1 (2)
    5    85          -0.6028768296         -16.4051125527      B2        B2 (3)
    6     3          -0.5099097791         -13.8753504986      A1        A1 (1)
    7   114          -0.4584379001         -12.4747294655      A2        A2 (4)
    8     4          -0.3201374707          -8.7113834548      A1        A1 (1)
    9     5          -0.0454044680          -1.2355183871      A1        A1 (1)
  +++++++++++++++++++++++++++++++++++++++++++++++++++++++++++++++++++++++++++++
   10    48           0.2113077476           5.7499761364      B1        B1 (2)
   11     6           0.2133560823           5.8057141552      A1        A1 (1)
   12    86           0.2407089221           6.5500227658      B2        B2 (3)
   13     7           0.2423781624           6.5954451043      A1        A1 (1)
   14    49           0.2482485174           6.7551855862      B1        B1 (2)
   15   115           0.2949145860           8.0250338695      A2        A2 (4)
   16    50           0.4109515299          11.1825596382      B1        B1 (2)
   17     8           0.4163606051          11.3297480586      A1        A1 (1)
   18    87           0.4495363168          12.2325050689      E         B2 (3)
   19    51           0.4495392634          12.2325852493      E         B1 (2)
   20     9           0.4495959075          12.2341266153      A1        A1 (1)
   21    10           0.5032785206          13.6949047805      A1        A1 (1)
   22    88           0.5278726617          14.3641453829      B2        B2 (3)
   23    11           0.5363378517          14.5944949138      A1        A1 (1)
   24    52           0.6220020804          16.9255370863      B1        B1 (2)
   25    53           0.6455608515          17.5666038384      B1        B1 (2)
   26    89           0.6529423068          17.7674634482      B2        B2 (3)
   27    12           0.6818187517          18.5532314611      A1        A1 (1)
   28    54           0.6954867419          18.9251563846      B1        B1 (2)
   29    90           0.7238408918          19.6967120272      B2        B2 (3)
   30   116           0.7499568842          20.4073643095      A2        A2 (4)
   31    13           0.7831235148          21.3098742121      A1        A1 (1)
   32    55           0.8413839627          22.8952215963      B1        B1 (2)
   33   117           0.8848782575          24.0787615260      A2        A2 (4)
   34    14           0.9527484292          25.9256027905      A1        A1 (1)
   35   118           0.9604308426          26.1346518879      A2        A2 (4)
   36    15           1.0424600596          28.3667803601      A1        A1 (1)
   37   119           1.0778541751          29.3299032080      A2        A2 (4)
   38    91           1.0937083040          29.7613159878      B2        B2 (3)
   39    16           1.1022458711          29.9936350006      E         A1 (1)
   40   120           1.1022458767          29.9936351525      E         A2 (4)
   41    92           1.1022657468          29.9941758453                B2 (3)
   42    56           1.1022669366          29.9942082218                B1 (2)
   43    17           1.1022754211          29.9944390954                A1 (1)
   44    18           1.2385487810          33.7026257380      A1        A1 (1)
   45    57           1.2390501470          33.7162686014      B1        B1 (2)
   46    19           1.2854313121          34.9783642690      A1        A1 (1)
   47    93           1.3108343189          35.6696152249      B2        B2 (3)
   48    94           1.3385333892          36.4233452471      E         B2 (3)
   49    58           1.3385345230          36.4233760993      E         B1 (2)
   50    20           1.3385563164          36.4239691277      A1        A1 (1)
   51    59           1.3781288560          37.5007926751      B1        B1 (2)
   52    95           1.4016561427          38.1410026944      B2        B2 (3)
   53    60           1.4206491628          38.6578290466      B1        B1 (2)
   54    96           1.5200202378          41.3618534665      B2        B2 (3)
   55    61           1.5345710444          41.7578010443      B1        B1 (2)
   56    21           1.5637761460          42.5525122601      A1        A1 (1)
   57    62           1.5892309262          43.2451720453      B1        B1 (2)
   58   121           1.6537746517          45.0014961056      A2        A2 (4)
   59   122           1.6925798505          46.0574392484      A2        A2 (4)
   60    63           1.8563847658          50.5147975988      B1        B1 (2)
   61    22           1.9085094250          51.9331816863      A1        A1 (1)
   62   123           2.0268415806          55.1531633412      A2        A2 (4)
   63    23           2.3427319900          63.7489783843      A1        A1 (1)
   64    24           2.4209486109          65.8773608430      A1        A1 (1)
   65    25           2.6044243156          70.8699885876      A1        A1 (1)
   66    64           2.6210957509          71.3236414051      B1        B1 (2)
   67    97           2.6803757947          72.9367334059      B2        B2 (3)
   68    98           2.7653404640          75.2487395965      B2        B2 (3)
   69    65           2.7977102643          76.1295666450      B1        B1 (2)
   70    26           2.8182337036          76.6880378198      A1        A1 (1)
   71   124           2.8981219313          78.8619070131      A2        A2 (4)
   72    99           2.9725731421          80.8878274541      B2        B2 (3)
   73    27           2.9768102475          81.0031249546      A1        A1 (1)
   74   125           3.1212622005          84.9338624309      A2        A2 (4)
   75    28           3.1531370211          85.8012203929      A1        A1 (1)
   76   100           3.1633303239          86.0785942640      B2        B2 (3)
   77    29           3.1655703747          86.1395491444      A1        A1 (1)
   78   101           3.1775778471          86.4662890802      B2        B2 (3)
   79   126           3.2097714741          87.3423222071      A2        A2 (4)
   80    30           3.2352113099          88.0345753328      A1        A1 (1)
   81    66           3.2855144053          89.4033921476      B1        B1 (2)
   82    67           3.3229743626          90.4227294086      B1        B1 (2)
   83   102           3.3945785925          92.3711795621      B2        B2 (3)
   84    68           3.4587926176          94.1185320196      B1        B1 (2)
   85    69           3.4825330166          94.7645411166      B1        B1 (2)
   86   127           3.4831960964          94.7825844377      A2        A2 (4)
   87   128           3.5043198214          95.3573902166      A2        A2 (4)
   88    70           3.5102173125          95.5178691066      B1        B1 (2)
   89    31           3.6071827789          98.1564335907      A1        A1 (1)
   90    32           3.6329329510          98.8571313954      A1        A1 (1)
   91   103           3.6985295916         100.6421067335      B2        B2 (3)
   92   104           3.7794022001         102.8427622900      B2        B2 (3)
   93   129           3.8727725982         105.3834999901      A2        A2 (4)
   94    71           3.9329631474         107.0213681031      B1        B1 (2)
   95   130           3.9688407464         107.9976472034      A2        A2 (4)
   96    72           4.0252787146         109.5334023956      B1        B1 (2)
   97   131           4.0338307599         109.7661153788      A2        A2 (4)
   98    33           4.0637901317         110.5813513295      A1        A1 (1)
   99   105           4.0685312273         110.7103631013      B2        B2 (3)
  100    34           4.1139428644         111.9460765675      A1        A1 (1)
  101    35           4.2163190334         114.7318737538                A1 (1)
  102   132           4.2163190353         114.7318738063                A2 (4)
  103   106           4.2163238271         114.7320041987                B2 (3)
  104    73           4.2163241017         114.7320116694                B1 (2)
  105    36           4.2163259745         114.7320626322                A1 (1)
  106    74           4.2414391912         115.4154279982      B1        B1 (2)
  107   133           4.2483299612         115.6029353850      A2        A2 (4)
  108    37           4.2495756034         115.6368310320      A1        A1 (1)
  109   107           4.2590929198         115.8958103758      B2        B2 (3)
  110    38           4.3863517336         119.3586987512      A1        A1 (1)
  111    75           4.4072108809         119.9263050040      B1        B1 (2)
  112   108           4.4443984226         120.9382294610                B2 (3)
  113    76           4.4443987506         120.9382383846                B1 (2)
  114    39           4.4444050556         120.9384099528                A1 (1)
  115   109           4.5267011860         123.1778015099      B2        B2 (3)
  116    77           4.5628309116         124.1609413240      B1        B1 (2)
  117   134           4.6633950178         126.8974297747      A2        A2 (4)
  118    40           4.6983077440         127.8474533528      A1        A1 (1)
  119    78           4.8147211550         131.0152233120      B1        B1 (2)
  120    79           4.8704092276         132.5305728081      B1        B1 (2)
  121    41           4.9850590227         135.6503523384      A1        A1 (1)
  122    42           5.0310275603         136.9012198392      A1        A1 (1)
  123   135           5.0848721662         138.3664060543      A2        A2 (4)
  124   110           5.1841905412         141.0689964355      B2        B2 (3)
  125   111           5.2736367137         143.5029505291      B2        B2 (3)
  126    43           5.3561670965         145.7487164172      A1        A1 (1)
  127    80           5.3614620943         145.8928006326      B1        B1 (2)
  128   136           5.4837105009         149.2193488938      A2        A2 (4)
  129   137           5.4992313565         149.6416928483      A2        A2 (4)
  130    81           5.5943708014         152.2305687576      B1        B1 (2)
  131    44           5.6197443481         152.9210180664      A1        A1 (1)
  132   112           5.6743359280         154.4065304785      B2        B2 (3)
  133    82           6.0138828834         163.6460728637      B1        B1 (2)
  134   138           6.1497406219         167.3429498723      A2        A2 (4)
  135   113           6.3275054591         172.1801770127      B2        B2 (3)
  136    83           6.5667972515         178.6916377203      B1        B1 (2)
  137   139           6.9302689939         188.5822066571      A2        A2 (4)
  138    45          11.9537598585         325.2783425810      A1        A1 (1)
  139    84          14.8061175157         402.8949403844      B1        B1 (2)


  VSCF finished.

 @CHECKOUT-I, Total execution time (CPU/WALL):       15.18/       1.28 seconds.
--executable xvscf finished with status     0 in        1.30 seconds (walltime).
 --invoking executable--
/home/tsommerfeld/zscale/bin/xvtran
 @GETMEM-I,  Allocated   85830 MB of main memory.
  Full RHF integral transformation
  Transformation of IIII integrals :
  1 pass through the AO integral file was required.
      418118 AO integrals were read.
      996172 MO integrals were written to HF2.
  Transformation of IIJJ integrals :
  1 pass through the AO integral file was required.
     1001172 AO integrals were read.
     2382542 MO integrals were written to HF2.
  Transformation of IJIJ integrals :
  1 pass through the AO integral file was required.
     1698667 AO integrals were read.
     4508736 MO integrals were written to HF2.
  Transformation of IJKL integrals :
  1 pass through the AO integral file was required.
     1484578 AO integrals were read.
     3960258 MO integrals were written to HF2.
  Summary of active molecular orbitals: 
------------------------------------------------------------------------
 
  Index      Eigenvalue    Symmetry    Index      Eigenvalue    Symmetry
------------------------------------------------------------------------
     1       -11.1697630        1        71         3.4825330        2
     2        -0.9815204        1        72         3.5102173        2
     3        -0.5099098        1        73         3.9329631        2
     4        -0.3201375        1        74         4.0252787        2
     5        -0.0454045        1        75         4.2163241        2
     6       -11.1679990        2        76         4.2414392        2
     7        -0.7235606        2        77         4.4072109        2
     8        -0.6028768        3        78         4.4443988        2
     9        -0.4584379        4        79         4.5628309        2
    10         0.2133561        1        80         4.8147212        2
    11         0.2423782        1        81         4.8704092        2
    12         0.4163606        1        82         5.3614621        2
    13         0.4495959        1        83         5.5943708        2
    14         0.5032785        1        84         6.0138829        2
    15         0.5363379        1        85         6.5667973        2
    16         0.6818188        1        86        14.8061175        2
    17         0.7831235        1        87         0.2407089        3
    18         0.9527484        1        88         0.4495363        3
    19         1.0424601        1        89         0.5278727        3
    20         1.1022459        1        90         0.6529423        3
    21         1.1022754        1        91         0.7238409        3
    22         1.2385488        1        92         1.0937083        3
    23         1.2854313        1        93         1.1022657        3
    24         1.3385563        1        94         1.3108343        3
    25         1.5637761        1        95         1.3385334        3
    26         1.9085094        1        96         1.4016561        3
    27         2.3427320        1        97         1.5200202        3
    28         2.4209486        1        98         2.6803758        3
    29         2.6044243        1        99         2.7653405        3
    30         2.8182337        1       100         2.9725731        3
    31         2.9768102        1       101         3.1633303        3
    32         3.1531370        1       102         3.1775778        3
    33         3.1655704        1       103         3.3945786        3
    34         3.2352113        1       104         3.6985296        3
    35         3.6071828        1       105         3.7794022        3
    36         3.6329330        1       106         4.0685312        3
    37         4.0637901        1       107         4.2163238        3
    38         4.1139429        1       108         4.2590929        3
    39         4.2163190        1       109         4.4443984        3
    40         4.2163260        1       110         4.5267012        3
    41         4.2495756        1       111         5.1841905        3
    42         4.3863517        1       112         5.2736367        3
    43         4.4444051        1       113         5.6743359        3
    44         4.6983077        1       114         6.3275055        3
    45         4.9850590        1       115         0.2949146        4
    46         5.0310276        1       116         0.7499569        4
    47         5.3561671        1       117         0.8848783        4
    48         5.6197443        1       118         0.9604308        4
    49        11.9537599        1       119         1.0778542        4
    50         0.2113077        2       120         1.1022459        4
    51         0.2482485        2       121         1.6537747        4
    52         0.4109515        2       122         1.6925799        4
    53         0.4495393        2       123         2.0268416        4
    54         0.6220021        2       124         2.8981219        4
    55         0.6455609        2       125         3.1212622        4
    56         0.6954867        2       126         3.2097715        4
    57         0.8413840        2       127         3.4831961        4
    58         1.1022669        2       128         3.5043198        4
    59         1.2390501        2       129         3.8727726        4
    60         1.3385345        2       130         3.9688407        4
    61         1.3781289        2       131         4.0338308        4
    62         1.4206492        2       132         4.2163190        4
    63         1.5345710        2       133         4.2483300        4
    64         1.5892309        2       134         4.6633950        4
    65         1.8563848        2       135         5.0848722        4
    66         2.6210958        2       136         5.4837105        4
    67         2.7977103        2       137         5.4992314        4
    68         3.2855144        2       138         6.1497406        4
    69         3.3229744        2       139         6.9302690        4
    70         3.4587926        2
------------------------------------------------------------------------
  -11.1697629859430      -0.981520407794648      -0.509909779103531     
 -0.320137470658964      -4.540446800893882E-002  -11.1679989659741     
 -0.723560618527935      -0.602876829581093      -0.458437900129583     
  0.213356082264043       0.242378162380413       0.416360605121473     
  0.449595907544338       0.503278520579552       0.536337851671580     
  0.681818751673484       0.783123514846851       0.952748429192854     
   1.04246005956651        1.10224587113871        1.10227542107964     
   1.23854878095018        1.28543131214088        1.33855631638651     
   1.56377614598324        1.90850942500400        2.34273199003713     
   2.42094861090271        2.60442431558381        2.81823370361242     
   2.97681024753217        3.15313702106217        3.16557037465249     
   3.23521130986776        3.60718277890749        3.63293295097051     
   4.06379013165075        4.11394286435045        4.21631903337172     
   4.21632597452534        4.24957560342219        4.38635173363479     
   4.44440505559870        4.69830774398770        4.98505902270416     
   5.03102756029633        5.35616709649665        5.61974434811040     
   11.9537598584943       0.211307747637620       0.248248517426357     
  0.410951529873340       0.449539263382675       0.622002080432978     
  0.645560851508898       0.695486741940992       0.841383962725584     
   1.10226693663198        1.23905014698482        1.33853452299240     
   1.37812885599430        1.42064916282837        1.53457104442285     
   1.58923092624945        1.85638476575251        2.62109575087215     
   2.79771026433625        3.28551440525576        3.32297436258262     
   3.45879261763673        3.48253301655427        3.51021731245882     
   3.93296314744280        4.02527871462749        4.21632410167738     
   4.24143919115050        4.40721088087094        4.44439875058269     
   4.56283091156485        4.81472115497131        4.87040922763751     
   5.36146209430280        5.59437080135988        6.01388288343042     
   6.56679725148663        14.8061175156707       0.240708922051952     
  0.449536316809766       0.527872661664541       0.652942306793385     
  0.723840891795242        1.09370830399594        1.10226574681535     
   1.31083431887989        1.33853338919580        1.40165614271649     
   1.52002023779968        2.68037579470926        2.76534046396623     
   2.97257314209681        3.16333032388036        3.17757784707988     
   3.39457859250648        3.69852959160724        3.77940220011040     
   4.06853122731411        4.21632382713310        4.25909291975975     
   4.44439842264722        4.52670118601480        5.18419054120932     
   5.27363671370931        5.67433592804598        6.32750545908367     
  0.294914585986795       0.749956884201665       0.884878257456259     
  0.960430842626081        1.07785417510374        1.10224587672098     
   1.65377465173791        1.69257985054724        2.02684158061714     
   2.89812193131961        3.12126220054391        3.20977147406115     
   3.48319609644329        3.50431982141092        3.87277259817983     
   3.96884074638481        4.03383075991787        4.21631903530226     
   4.24832996124043        4.66339501778951        5.08487216619350     
   5.48371050087090        5.49923135654784        6.14974062187168     
   6.93026899386237     
 @CHECKOUT-I, Total execution time (CPU/WALL):       16.16/       1.83 seconds.
--executable xvtran finished with status     0 in        1.85 seconds (walltime).
 --invoking executable--
/home/tsommerfeld/zscale/bin/xintprc
 @GETMEM-I,  Allocated   85830 MB of main memory.
  @GMOIAA-I, Processing MO integrals for spin case AA.
  @GMOIAA-I, Generation of integral list completed.
                      TYPE                NUMBER
                      ----               --------
                      PPPP               9065550
                      PPPH               2497174
                      PPHH                173312
                      PHPH                 97627
                      PHHH                 13713
                      HHHH                   332

                     TOTAL              11847708

  @FORMT2-I, Second-order MP correlation energies:
            ------------------------------------------------
            E(SCF)                  =    -78.546892409017 a.u.
            E2(AA)                  =     -0.037950244923 a.u.
            E2(AB)                  =     -0.319227982692 a.u.
            E2(TOT)                 =     -0.395128472538 a.u.
            Total MP2 energy        =    -78.942020881555 a.u.
            ------------------------------------------------
   Largest T2 amplitudes for spin case AB:
       _       _                 _       _                 _       _
   i   j   a   b             i   j   a   b             i   j   a   b
-----------------------------------------------------------------------------
[  4   4  50  50]-0.08270 [  5   5  11  11]-0.08225 [  5   5  17  17]-0.04763
[  5   5  17  11] 0.04322 [  5   5  11  17] 0.04322 [  5   5  88  88]-0.04090
[  5   5  53  53]-0.04090 [  5   5  13  13]-0.04090 [  4   4  54  50]-0.03717
[  4   4  50  54]-0.03717 [  4   4  14  14]-0.03057 [  4   4  15  15]-0.02692
[  4   4  54  54]-0.02662 [  4   3  50  57] 0.02651 [  3   4  57  50] 0.02651
-----------------------------------------------------------------------------
   Norm of T2AB vector (   345906 symmetry allowed elements):  0.3321353223.
-----------------------------------------------------------------------------
 @CHECKOUT-I, Total execution time (CPU/WALL):        5.51/       2.70 seconds.
--executable xintprc finished with status     0 in        2.72 seconds (walltime).
  calling xvcc 
 --invoking executable--
/home/tsommerfeld/zscale/bin/xvcc
 @GETMEM-I,  Allocated   85830 MB of main memory.
   CCSD(T) energy will be calculated.
   The total correlation energy is -0.395128472538 a.u.
   The total correlation energy is -0.415028960856 a.u.
  Convergence information after     1 iterations: 
  Largest element of residual vector : -0.28850221E-01.
  Largest element of DIIS residual   : -0.28850221E-01.
   The total correlation energy is -0.426187912985 a.u.
  Convergence information after     2 iterations: 
  Largest element of residual vector : -0.13444544E-01.
  Largest element of DIIS residual   : -0.10650255E-01.
   The total correlation energy is -0.429089984527 a.u.
  Convergence information after     3 iterations: 
  Largest element of residual vector : -0.71794554E-02.
  Largest element of DIIS residual   : -0.58650527E-02.
   The total correlation energy is -0.430712457052 a.u.
  Convergence information after     4 iterations: 
  Largest element of residual vector : -0.35214115E-02.
  Largest element of DIIS residual   : -0.21155666E-02.
   The total correlation energy is -0.430885669638 a.u.
  Convergence information after     5 iterations: 
  Largest element of residual vector : -0.10442288E-02.
  Largest element of DIIS residual   : -0.38619271E-03.
   The total correlation energy is -0.430890791338 a.u.
  Convergence information after     6 iterations: 
  Largest element of residual vector :  0.24383068E-03.
  Largest element of DIIS residual   :  0.18507280E-03.
   The total correlation energy is -0.430881292121 a.u.
  Convergence information after     7 iterations: 
  Largest element of residual vector :  0.81495215E-04.
  Largest element of DIIS residual   : -0.39288001E-04.
   The total correlation energy is -0.430878941768 a.u.
  Convergence information after     8 iterations: 
  Largest element of residual vector :  0.31975126E-04.
  Largest element of DIIS residual   : -0.17349362E-04.
   The total correlation energy is -0.430879295951 a.u.
  Convergence information after     9 iterations: 
  Largest element of residual vector :  0.20684061E-04.
  Largest element of DIIS residual   :  0.69046526E-05.
   The total correlation energy is -0.430879035021 a.u.
  Convergence information after    10 iterations: 
  Largest element of residual vector : -0.88149047E-05.
  Largest element of DIIS residual   : -0.30367309E-05.
   The total correlation energy is -0.430879265819 a.u.
  Convergence information after    11 iterations: 
  Largest element of residual vector :  0.24857467E-05.
  Largest element of DIIS residual   : -0.15688798E-05.
   The total correlation energy is -0.430879380731 a.u.
  Convergence information after    12 iterations: 
  Largest element of residual vector : -0.18229658E-05.
  Largest element of DIIS residual   : -0.97265951E-06.
   The total correlation energy is -0.430879494041 a.u.
  Convergence information after    13 iterations: 
  Largest element of residual vector : -0.66287229E-06.
  Largest element of DIIS residual   : -0.40596648E-06.
   The total correlation energy is -0.430879536469 a.u.
  Convergence information after    14 iterations: 
  Largest element of residual vector : -0.27713119E-06.
  Largest element of DIIS residual   : -0.18645304E-06.
   The total correlation energy is -0.430879561537 a.u.
  Convergence information after    15 iterations: 
  Largest element of residual vector : -0.10860705E-06.
  Largest element of DIIS residual   :  0.10014476E-06.
   The total correlation energy is -0.430879564974 a.u.
  Convergence information after    16 iterations: 
  Largest element of residual vector : -0.95577880E-07.
  Largest element of DIIS residual   :  0.35290705E-07.
  Amplitude equations converged in    16iterations.
   The total correlation energy is -0.430879569468 a.u.
   The CC iterations have converged.

   Largest T1 amplitudes for spin case AA:
   i       a                 i       a                 i       a    
-----------------------------------------------------------------------------
[  5      11    ]-0.02770 [  4      14    ] 0.02434 [  5      17    ]-0.01560
[  4      18    ]-0.01481 [  4      22    ]-0.00980 [  4      28    ]-0.00946
[  8      89    ]-0.00790 [  8      90    ] 0.00618 [  3      12    ] 0.00554
[  5      31    ]-0.00493 [  9     121    ]-0.00447 [  8      97    ]-0.00432
[  7      56    ] 0.00397 [  4      30    ]-0.00395 [  3      16    ]-0.00379
-----------------------------------------------------------------------------
   Norm of T1AA vector (      327 symmetry allowed elements):  0.0493989669.
-----------------------------------------------------------------------------
   Largest T2 amplitudes for spin case AB:
       _       _                 _       _                 _       _
   i   j   a   b             i   j   a   b             i   j   a   b
-----------------------------------------------------------------------------
[  5   5  11  11]-0.15007 [  4   4  50  50]-0.11612 [  5   5  17  11] 0.08571
[  5   5  11  17] 0.08571 [  5   5  17  17]-0.06427 [  5   5  88  88]-0.05420
[  5   5  53  53]-0.05420 [  5   5  13  13]-0.05418 [  4   4  54  50]-0.05158
[  4   4  50  54]-0.05158 [  4   4  54  54]-0.02946 [  4   4  15  15]-0.02628
[  4   4  14  14]-0.02556 [  4   3  50  57] 0.02554 [  3   4  57  50] 0.02554
-----------------------------------------------------------------------------
   Norm of T2AB vector (   345906 symmetry allowed elements):  0.4178156754.
-----------------------------------------------------------------------------
       Summary of iterative solution of CC equations 
      -----------------------------------------------------------
                       Correlation           Total
       Iteration         Energy              Energy
      -----------------------------------------------------------
            0        -0.395128472538     -78.942020881555  DIIS 
            1        -0.415028960856     -78.961921369872  DIIS 
            2        -0.426187912985     -78.973080322002  DIIS 
            3        -0.429089984527     -78.975982393544  DIIS 
            4        -0.430712457052     -78.977604866069  DIIS 
            5        -0.430885669638     -78.977778078655  DIIS 
            6        -0.430890791338     -78.977783200355  DIIS 
            7        -0.430881292121     -78.977773701138  DIIS 
            8        -0.430878941768     -78.977771350785  DIIS 
            9        -0.430879295951     -78.977771704968  DIIS 
           10        -0.430879035021     -78.977771444038  DIIS 
           11        -0.430879265819     -78.977771674836  DIIS 
           12        -0.430879380731     -78.977771789747  DIIS 
           13        -0.430879494041     -78.977771903058  DIIS 
           14        -0.430879536469     -78.977771945485  DIIS 
           15        -0.430879561537     -78.977771970554  DIIS 
           16        -0.430879569468     -78.977771978485  DIIS 
      -----------------------------------------------------------
      A miracle has come to pass. The CC iterations have converged.
        E(CCSD)           =     -78.977771978485
        E(CCSD + T(CCSD)) =     -78.993572821815
        E(CCSD(T))        =     -78.993152521972
 @CHECKOUT-I, Total execution time (CPU/WALL):      201.31/      16.79 seconds.
--executable xvcc finished with status     0 in       16.82 seconds (walltime).
  The final electronic energy is       -78.993152521972036 a.u. 
  This computation required                           26.60 seconds (walltime).
