CFour on node01
 --invoking executable--
/home/tsommerfeld/zscale/bin/xjoda


   *************************************************************************
         <<<     CCCCCC     CCCCCC   |||     CCCCCC     CCCCCC   >>>
       <<<      CCC        CCC       |||    CCC        CCC         >>>
      <<<      CCC        CCC        |||   CCC        CCC            >>>
    <<<        CCC        CCC        |||   CCC        CCC              >>>
      <<<      CCC        CCC        |||   CCC        CCC            >>>
       <<<      CCC        CCC       |||    CCC        CCC         >>>
         <<<     CCCCCC     CCCCCC   |||     CCCCCC     CCCCCC   >>>
   *************************************************************************

     ****************************************************************
     * CFOUR Coupled-Cluster techniques for Computational Chemistry *
     ****************************************************************
 

   Department of Chemistry                Institut fuer Physikalische Chemie
   University of Florida                  Universitaet Mainz
   Gainesville, FL 32611, USA             D-55099 Mainz, Germany

   Department of Chemistry                Department of Chemistry
   Johns Hopkins University               Southern Methodist University
   Baltimore, MD 21218, USA               Dallas, TX 75275, USA

   Institute of Nanotechnology            Department of Physical Chemistry
   Karlsruhe Inst. of Technology          Eotvos Lorand University
   D-76021 Karlsruhe, Germany             H-1053 Budapest, Hungary

 
                       Version 2.1
 
                     node01                                            
                     Tue May  3 11:33:59 CDT 2022                      
                     integer*8 version is running
 
********************************************************************************
*                          Input from ZMAT file                                *
********************************************************************************
h_ethylene                                                                      
C       0.000000      0.0   -0.664500                                           
C       0.000000      0.0    0.664500                                           
H       0.962348      0.0   -1.159080                                           
H       0.962348      0.0    1.159080                                           
H      -0.962348      0.0   -1.159080                                           
H      -0.962348      0.0    1.159080                                           
H      0.000000      8.333333333333332      0.000000                            
                                                                                
*CFOUR(CALC=CCSD(T)                                                             
#EXCITE=EOMEE                                                                   
#ESTATE_SYM=0/3/0/0                                                             
CC_PROG=VCC                                                                     
CHARGE=-1                                                                       
COORDINATES=CARTESIAN                                                           
BASIS=SPECIAL                                                                   
REFERENCE=RHF                                                                   
MEM_SIZE=90,MEM_UNIT=GB)                                                        
                                                                                
C:cc-pVTZ                                                                       
C:cc-pVTZ                                                                       
H:cc-pVTZ                                                                       
H:cc-pVTZ                                                                       
H:cc-pVTZ                                                                       
H:cc-pVTZ                                                                       
H:aug-cc-pVTZ                                                                   
                                                                                
********************************************************************************
  @GTFLGS-W, Keyword #EXCITE not known and is ignored.
  @GTFLGS-W, Keyword #ESTATE_SYM not known and is ignored.
    -------------------------------------------------------------------
                    CFOUR Control Parameters 
    -------------------------------------------------------------------
        External           Internal           Value            Units
          Name               Name
    -------------------------------------------------------------------
       ABCDTYPE             IABCDT         STANDARD    [  0]    ***   
       ANHARMONIC           IANHAR         OFF         [  0]    ***   
       ANH_ALGORIT          IANALG         STANDARD    [  0]    ***   
       ANH_DERIVAT          IANDER         SECOND      [  1]    ***   
       ANH_MODE             ANHMOD         VIBRATION   [  0]    ***   
       ANH_STEPSIZ          ICUBST             50000          x 10-6  
       ANH_SYMMETR          IANHSM         ABELIAN     [  0]    ***   
       AO_LADDERS           IAOLAD         SINGLEPASS  [  1]    ***   
       AV_SCF               IAVSCF         OFF         [  0]    ***   
       BASIS                IBASIS         SPECIAL     [  0]    ***   
       BOTHVECTORS          BOTHVC         OFF         [  0]    ***   
       BOX_POTENT           IPIAB          OFF         [  0]    ***   
       BREIT                IBREIT         OFF         [  0]    ***   
       BRUCK_CONV           IBRTOL          10D-  4             ***   
       BRUECKNER            IBRKNR         OFF         [  0]    ***   
       BUFFERSIZE           IBUFFS              4096            ***   
       CACHE_RECS           ICHREC             10               ***   
       CALCLEVEL            ICLLVL         CCSD(T)     [ 22]    ***   
       CCORBOPT             ICCORB         OFF         [  0]  x 0.01  
       CC_CONV              ICCCNV          10D-  7             ***   
       CC_EXPORDER          ICCEOR              5               ***   
       CC_EXTRAPOL          ICCEXT         DIIS        [  1]    ***   
       CC_GUESS             ICCGES         MP2         [  0]    ***   
       CC_MAXCYC            ICCCYC            100              cycles 
       CC_PROGRAM           ICCPRO         VCC         [  0]    ***   
       CHARGE               ICHRGE             -1               ***   
       CHOLESKY             ICHOLE         OFF         [  0]    ***   
       CIS_CONV             ICISTL              5               ***   
       COMM_SIZE            IPSIZE            ***               ***   
       CONSTANT             ICONST         OLD         [  1]    ***   
       CONTINUUM            ICONTU         NONE        [  0]    ***   
       CONTRACTION          ICNTYP         GENERAL     [  1]    ***   
       COORDINATES          ICOORD         CARTESIAN   [  1]    ***   
       CPHF_CONVER          ICPHFT          10D- 16             ***   
       CPHF_MAXCYC          ICPHFC             64              cycles 
       CUBIC                ICUBIC         OFF         [  0]    ***   
       CURVILINEAR          ICURVY         OFF         [  0]    ***   
       DBOC                 IDBOC          OFF         [  0]    ***   
       DCT                  IDCT           OFF         [  0]    ***   
       DERIV_LEV            IDRLVL         ZERO        [  0]    ***   
       DEVMEM_SIZE          IDVMEM         *********           MByte  
       DIAG_MRCC            IEOMST          10D-  0             ***   
       DIFF_TYPE            IDIFTY         RELAXED     [  0]    ***   
       DIRECT               IDIRCT         OFF         [  0]    ***   
       DROPMO               IDRPMO      NONE         
       ECP                  IECP           OFF         [  0]    ***   
       EIGENVECTOR          IVEC                1               ***   
       EL_ANHARM            IELANH         OFF         [  0]    ***   
       EOMFOLLOW            IEOMSR         ENERGY      [  0]    ***   
       EOMIP                IEOMIP         OFF         [  0]    ***   
       EOMLEVEL             HBARFM         SAME        [  0]    ***   
       EOM_MRCC             IMRCCE         NEW         [  1]    ***   
       EOM_NONIT            EOMNON         OFF         [  0]    ***   
       EOM_NSING            IEOMSI          10D-  0             ***   
       EOM_NSTATES          IMRCCD         DAVIDSON    [  0]    ***   
       EOM_NTRIP            IEOMTR          10D-  0             ***   
       EOM_ORDER            IEXORD         ENERGY      [  0]    ***   
       EOM_PROPSTA          IEOMST              0               ***   
       ESTATE_CONV          IEXTOL          10D-  5             ***   
       ESTATE_DIAG          IEXDIG         ITERATIVE   [  0]    ***   
       ESTATE_LOCK          IESLOC         ON          [  1]    ***   
       ESTATE_MAXC          IEXMXC             40               ***   
       ESTATE_PROP          IEXPRP         OFF         [  0]    ***   
       EVAL_HESS            IRECAL              0            # of cyc.
       EXCITATION           IEXCIT              0               ***   
       EXCITE               IEXCIT         NONE        [  0]    ***   
       EXTERN_POT           IEXPOT         OFF         [  0]    ***   
       FCGRADNEW            IFCGNW         OFF         [  0]    ***   
       FC_FIELD             IFINFC              0             x 10-6  
       FD_CALTYPE           IFDCAL         GRADONLY    [  0]    ***   
       FD_PROJECT           IFDPRJ         OFF         [  1]    ***   
       FD_STEPSIZE          IDISFD              0            10-4 bohr
       FD_USEGROUP          IFDGRP         FULL        [  0]    ***   
       FILE_RECSIZ          IFLREC              4096           words  
       FINITE_PERT          IFIPER              0             x 10-6  
       FIXGEOM              IFIXGM         OFF         [  0]    ***   
       FOCK                 IFOCK          AO          [  1]    ***   
       FREQ_ALGORI          IVIALG         STANDARD    [  0]    ***   
       FROZEN_CORE          IFROCO         OFF         [  0]    ***   
       GAMMA_ABCD           IGABCD         STORE       [  0]    ***   
       GAMMA_ABCI           IGABCI         STORE       [  0]    ***   
       GENBAS_1             IGNBS1              0               ***   
       GENBAS_2             IGNBS2              0               ***   
       GENBAS_3             IGNBS3              0               ***   
       GENBAS_4             IGNBS4              0               ***   
       GEO_CONV             ICONTL              5              H/bohr 
       GEO_MAXCYC           IOPTCY             50               ***   
       GEO_MAXSTEP          IMXSTP            300            millibohr
       GEO_METHOD           INR            SINGLE_POINT[  5]    ***   
       GIAO                 IGIAO          OFF         [  1]    ***   
       GIMIC                IGIMIC         OFF         [  0]    ***   
       GRID                 IGRID          OFF         [  0]    ***   
       GRID_ALGO            IGALGO         SERIAL      [  0]    ***   
       GUESS                IGUESS         MOREAD      [  0]    ***   
       HBAR                 IHBAR          OFF         [  0]    ***   
       HESS_TYPE            IHESTP         SCF         [  0]    ***   
       HF2_FILE             IHF2Fl         USE         [  1]    ***   
       HFSTABILITY          ISTABL         OFF         [  0]    ***   
       INCORE               INCORE         OFF         [  0]    ***   
       INPUT_MRCC           IMRCC          ON          [  1]    ***   
       INTEGRALS            INTTYP         VMOL        [  1]    ***   
       JODA_PRINT           IJPRNT              0               ***   
       KEYWORD_OUT          IDMPKW         NO          [  0]    ***   
       LINDEP_TOL           ILINDP              8               ***   
       LINEQ_CONV           IZTACN          10D-  7           cycles  
       LINEQ_EXPOR          ILMAXD              5               ***   
       LINEQ_MAXCY          ILMAXC            100               ***   
       LINEQ_TYPE           ILTYPE         DIIS        [  1]    ***   
       LOCK_ORBOCC          ILOCOC         OFF         [  0]    ***   
       MEMORY_SIZE          IMEMSZ         *********           words  
       MEM_UNIT             IMEMU          GB          [  3]    ***   
       MRCC                 IMRCCC         OFF         [  0]    ***   
       MULTIPLICTY          IMULTP              1               ***   
       NACOUPLING           IVCOUP         OFF         [  0]    ***   
       NEGEVAL              IDIE           ABORT       [  0]    ***   
       NEWNORM              INEWNO         OFF         [  0]    ***   
       NON-HF               INONHF         OFF         [  0]    ***   
       NTOP_TAMP            ITOPT2             15               ***   
       NUC_MODEL            INUCMO         POINT       [  0]    ***   
       OCCUPATION           IOCCU   ESTIMATED BY SCF 
       OPEN-SHELL           IOPEN          SPIN-ORBITAL[  0]    ***   
       OPTVIB               IOPTVB         OFF         [  0]    ***   
       ORBITALS             IORBTP         STANDARD    [  0]    ***   
       PARALLEL             IPARAL         ON          [  1]    ***   
       PARA_INT             IPINTS         ON          [  1]    ***   
       PARA_PRINT           IPPRIN              0               ***   
       PERT_ORB             IPTORB         STANDARD    [  0]    ***   
       POINTS               IGRDFD              0               ***   
       PRINT                IPRNT               0               ***   
       PROPS                IPROPS         OFF         [  0]    ***   
       PROP_INTEGR          IINTYP         INTERNAL    [  0]    ***   
       PSI                  IPSI           OFF         [  0]    ***   
       QC_ALG               IQCALG         FLM         [  0]    ***   
       QC_LINALG            IQCLIN         TRIDIAG     [  2]    ***   
       QC_MAXCYC            IQCMAX          10D-100           cycles  
       QC_MAXSCFCY          IQCMSC          10D- 15           cycles  
       QC_RTRUST            IQCRTR          10D-  0           x 10-3  
       QC_SKIPSCF           IQCSKI         OFF         [  0]    ***   
       QC_START             IQCSTA          10D-  1             ***   
       QRHFGUESS            IQGUES         OFF         [  0]    ***   
       QUARTIC              IQUART         OFF         [  0]    ***   
       RAMAN_INT            IRAMIN         OFF         [  0]    ***   
       RAMAN_ORB            IRAMRE         UNRELAXED   [  0]    ***   
       RDO                  IRDOFM         OFF         [  0]    ***   
       REDUCE_REPR          REDREP         Ir          [  0]    ***   
       REFERENCE            IREFNC         RHF         [  0]    ***   
       RELATIVIST           IRELAT         OFF         [  0]    ***   
       RELAX_DENS           IRDENS         OFF         [  0]    ***   
       RESET_FLAGS          IRESET         OFF         [  0]    ***   
       RESTART_CC           ICCRES         OFF         [  0]    ***   
       ROT_EVEC             ROTVEC              0               ***   
       SAVE_INTS            ISVINT         OFF         [  0]    ***   
       SCALE_ON             ISTCRT              0               ***   
       SCF_CONV             ISCFCV          10D-  7             ***   
       SCF_DAMPING          IDAMP               0             x 10-3  
       SCF_EXPORDE          IRPPOR              6               ***   
       SCF_EXPSTAR          IRPPLS              8               ***   
       SCF_EXTRAPO          IRPP           ON          [  1]    ***   
       SCF_MAXCYC           ISCFCY            150              cycles 
       SCF_NOSTOP           ISCFST         OFF         [  0]    ***   
       SCF_PRINT            ISCFPR              0               ***   
       SCF_PROG             ISCFPR         SCF         [  0]    ***   
       SD_FIELD             IFINSD              0             x 10-6  
       SOPERT               IPERSO         OFF         [  0]    ***   
       SPHERICAL            IDFGHI         ON          [  1]    ***   
       SPINORBIT            ISOCAL         OFF         [  0]    ***   
       SPINROTATIO          ISRCON         OFF         [  0]    ***   
       SPIN_FLIP            ISPFLP         OFF         [  0]    ***   
       SPIN_ORBIT           ISPORB         OFF         [  0]    ***   
       SPIN_SCAL            ISCSMP         OFF         [  0]    ***   
       STEEPSCALE           ISTPSC              1000          x 10-3  
       SUBGROUP             ISUBGP         DEFAULT     [  0]    ***   
       SUBGRPAXIS           ISBXYZ         X           [  0]    ***   
       SYMMETRY             ISYM           ON          [  0]    ***   
       SYM_CHECK            ISYMCK         OVERRIDE    [  1]    ***   
       T3_EXTRAPOL          IT3EXT         OFF         [  0]    ***   
       T4_EXTRAPOL          IT4EXP         OFF         [  0]    ***   
       TAMP_SUM             IEVERY              5               ***   
       TESTSUITE            ITESTS         OFF         [  0]    ***   
       THERMOCH             ITHERM         OFF         [  0]    ***   
       TOL_CHOLESK          ITOLCH          10D-  4             ***   
       TRANGRAD             IRESRM         OFF         [  0]    ***   
       TRANS_INV            ITRAIN         USE         [  0]    ***   
       TREAT_PERT           ITREAT         SIMULTANEOUS[  0]    ***   
       TRIP_ALGORI          ITRALG         NORMAL      [  0]    ***   
       UIJ_THRESHO          IUIJTH              1               ***   
       UNITS                IUNITS         ANGSTROM    [  0]    ***   
       UNOS                 IUNOS          OFF         [  0]    ***   
       UPDATE_HESS          IHUPDT         ON          [  1]    ***   
       VIBPHASE             ISETPH         STANDARD    [  0]    ***   
       VIBRATION            IVIB           NO          [  0]    ***   
       VIB_ALGORIT          IGEALG         STANDARD    [  0]    ***   
       VNATORB              IVNORB         OFF         [  0]    ***   
       VTRAN                IVTRAN         FULL/PARTIAL[  0]    ***   
       XFIELD               IXEFLD              0             x 10-6  
       XFORM_TOL            IXFTOL          10D- 11             ***   
       YFIELD               IYEFLD              0             x 10-6  
       ZFIELD               IZEFLD              0             x 10-6  
       ZSCALE_EXP           IZEXPS         OFF         [  0]    ***   
    -------------------------------------------------------------------
  @GETXYZ-I,     7 atoms read from ZMAT.
   Rotational constants (in cm-1): 
          0.2017133131             0.2364579217             0.8536890782
   Rotational constants (in MHz): 
       6047.2138430705          7088.8311503716         25592.9582983936
********************************************************************************
   The full molecular point group is C2v .
   The largest Abelian subgroup of the full molecular point group is C2v .
   The computational point group is C2v .
********************************************************************************


 ----------------------------------------------------------------
         Coordinates used in calculation (QCOMP) 
 ----------------------------------------------------------------
 Z-matrix   Atomic            Coordinates (in bohr)
  Symbol    Number           X              Y              Z
 ----------------------------------------------------------------
     C         6        -1.25572327     0.00000000    -0.54653669
     C         6         1.25572327     0.00000000    -0.54653669
     H         1        -2.19034422     1.81857454    -0.54653669
     H         1         2.19034422     1.81857454    -0.54653669
     H         1        -2.19034422    -1.81857454    -0.54653669
     H         1         2.19034422    -1.81857454    -0.54653669
     H         1         0.00000000     0.00000000    15.20118431
 ----------------------------------------------------------------
 
   Interatomic distance matrix (Angstroms) 
 
                 C             C             H             H             H    
                [ 1]        [ 2]        [ 3]        [ 4]        [ 5]
  C    [ 1]     0.00000
  C    [ 2]     1.32900     0.00000
  H    [ 3]     1.08200     2.06193     0.00000
  H    [ 4]     2.06193     1.08200     2.31816     0.00000
  H    [ 5]     1.08200     2.06193     1.92470     3.01303     0.00000
  H    [ 6]     2.06193     1.08200     3.01303     1.92470     2.31816
  H    [ 7]     8.35979     8.35979     8.46842     8.46842     8.46842
 
                 H             H    
                [ 6]        [ 7]
  H    [ 6]     0.00000
  H    [ 7]     8.46842     0.00000
 rotcon2
   Rotational constants (in cm-1): 
          0.2364579217             0.2017133131             0.8536890782
   Rotational constants (in MHz): 
       7088.8311503716          6047.2138430705         25592.9582983936
  ECPDATA file not present.   Using default ECPDATA. 
  @GTFLGS-W, Keyword #EXCITE not known and is ignored.
  @GTFLGS-W, Keyword #ESTATE_SYM not known and is ignored.
  There are  139 basis functions.
 @GEOPT-W, Archive file not created for single-point calculation.
 @CHECKOUT-I, Total execution time (CPU/WALL):        0.15/       0.17 seconds.
--executable xjoda finished with status     0 in        0.19 seconds (walltime).
 --invoking executable--
/home/tsommerfeld/zscale/bin/xvmol
 SERIAL VERSION OF MOLECULE STARTED
********************************************************************************
                    INPUT FROM MOL FILE
********************************************************************************
INTGRL        1    0    1    0    0    0    0    0    0                         
         *** CFOUR Program System (Release V0.1) ***                            
h_ethylene                                                                      
    3    2 X  Y       0.10E-08              0    0                              
   9999.00      3.00                                                            
          6.00000000    1    4    1    1    1    1                              
C #1  -1.255723272983657   0.000000000000000  -0.546536694131061                
   10    4                                                                      
   8236.00000000000       5.310000000000000E-004  0.000000000000000E+000        
 -1.130000000000000E-004  0.000000000000000E+000                                
   1235.00000000000       4.108000000000000E-003  0.000000000000000E+000        
 -8.780000000000000E-004  0.000000000000000E+000                                
   280.800000000000       2.108700000000000E-002  0.000000000000000E+000        
 -4.540000000000000E-003  0.000000000000000E+000                                
   79.2700000000000       8.185300000000000E-002  0.000000000000000E+000        
 -1.813300000000000E-002  0.000000000000000E+000                                
   25.5900000000000       0.234817000000000       0.000000000000000E+000        
 -5.576000000000000E-002  0.000000000000000E+000                                
   8.99700000000000       0.434401000000000       0.000000000000000E+000        
 -0.126895000000000       0.000000000000000E+000                                
   3.31900000000000       0.346129000000000       0.000000000000000E+000        
 -0.170352000000000       0.000000000000000E+000                                
  0.905900000000000       3.937800000000000E-002   1.00000000000000             
  0.140382000000000       0.000000000000000E+000                                
  0.364300000000000      -8.983000000000000E-003  0.000000000000000E+000        
  0.598684000000000       0.000000000000000E+000                                
  0.128500000000000       2.385000000000000E-003  0.000000000000000E+000        
  0.395389000000000        1.00000000000000                                     
    5    3                                                                      
   18.7100000000000       0.000000000000000E+000  1.403100000000000E-002        
  0.000000000000000E+000                                                        
   4.13300000000000       0.000000000000000E+000  8.686600000000000E-002        
  0.000000000000000E+000                                                        
   1.20000000000000       0.000000000000000E+000  0.290216000000000             
  0.000000000000000E+000                                                        
  0.382700000000000        1.00000000000000       0.501008000000000             
  0.000000000000000E+000                                                        
  0.120900000000000       0.000000000000000E+000  0.343406000000000             
   1.00000000000000                                                             
    2    2                                                                      
   1.09700000000000        1.00000000000000       0.000000000000000E+000        
  0.318000000000000       0.000000000000000E+000   1.00000000000000             
    1    1                                                                      
  0.761000000000000        1.00000000000000                                     
          1.00000000    1    3    1    1    1                                   
H #2  -2.190344215575466   1.818574537711477  -0.546536694131061                
    5    3                                                                      
   33.8700000000000       0.000000000000000E+000  6.068000000000000E-003        
  0.000000000000000E+000                                                        
   5.09500000000000       0.000000000000000E+000  4.530800000000000E-002        
  0.000000000000000E+000                                                        
   1.15900000000000       0.000000000000000E+000  0.202822000000000             
  0.000000000000000E+000                                                        
  0.325800000000000        1.00000000000000       0.503903000000000             
  0.000000000000000E+000                                                        
  0.102700000000000       0.000000000000000E+000  0.383421000000000             
   1.00000000000000                                                             
    2    2                                                                      
   1.40700000000000        1.00000000000000       0.000000000000000E+000        
  0.388000000000000       0.000000000000000E+000   1.00000000000000             
    1    1                                                                      
   1.05700000000000        1.00000000000000                                     
          1.00000000    1    3    1    1    1                                   
H #3   0.000000000000000   0.000000000000000  15.201184311432733                
    6    4                                                                      
   33.8700000000000       0.000000000000000E+000  6.068000000000000E-003        
  0.000000000000000E+000  0.000000000000000E+000                                
   5.09500000000000       0.000000000000000E+000  4.530800000000000E-002        
  0.000000000000000E+000  0.000000000000000E+000                                
   1.15900000000000       0.000000000000000E+000  0.202822000000000             
  0.000000000000000E+000  0.000000000000000E+000                                
  0.325800000000000        1.00000000000000       0.503903000000000             
  0.000000000000000E+000  0.000000000000000E+000                                
  0.102700000000000       0.000000000000000E+000  0.383421000000000             
   1.00000000000000       0.000000000000000E+000                                
  2.526000000000000E-002  0.000000000000000E+000  0.000000000000000E+000        
  0.000000000000000E+000   1.00000000000000                                     
    3    3                                                                      
   1.40700000000000        1.00000000000000       0.000000000000000E+000        
  0.000000000000000E+000                                                        
  0.388000000000000       0.000000000000000E+000   1.00000000000000             
  0.000000000000000E+000                                                        
  0.102000000000000       0.000000000000000E+000  0.000000000000000E+000        
   1.00000000000000                                                             
    2    2                                                                      
   1.05700000000000        1.00000000000000       0.000000000000000E+000        
  0.247000000000000       0.000000000000000E+000   1.00000000000000             
FINISH                                                                          
 
********************************************************************************
 ONE- AND TWO-ELECTRON INTEGRALS OVER SYMMETRY-ADAPTED AOS ARE CALCULATED.

  SPHERICAL HARMONICS ARE USED.
  
  INTEGRALS LESS THAN  0.10E-13 ARE NEGLECTED.

  NUCLEAR REPULSION ENERGY :   34.5987727704 A.U.
  @MOLECU-I, ONE ELECTRON INTEGRALS (CPU/WALL):        0.04/       0.04 SECONDS.
  @TWOEL-I,     463659 INTEGRALS OF SYMMETRY TYPE  I I I I
  @TWOEL-I,    1898428 INTEGRALS OF SYMMETRY TYPE  I J I J
  @TWOEL-I,    1101536 INTEGRALS OF SYMMETRY TYPE  I I J J
  @TWOEL-I,    1652075 INTEGRALS OF SYMMETRY TYPE  I J K L
  @TWOEL-I, TOTAL NUMBER OF 2-E INTEGRALS    5115698.
  @MOLECU-I, TWO ELECTRON INTEGRALS (CPU/WALL):       33.54/       3.79 SECONDS.
 @CHECKOUT-I, Total execution time (CPU/WALL):       33.61/       3.84 seconds.

Running with 12 threads/proc

--executable xvmol finished with status     0 in        3.87 seconds (walltime).
 --invoking executable--
/home/tsommerfeld/zscale/bin/xvmol2ja
 @GETMEM-I,  Allocated   85830 MB of main memory.
 @CHECKOUT-I, Total execution time (CPU/WALL):        0.11/       0.02 seconds.
--executable xvmol2ja finished with status     0 in        0.04 seconds (walltime).
 --invoking executable--
/home/tsommerfeld/zscale/bin/xvscf
  There are  139 functions in the AO basis.

  There are 4 irreducible representations.

       Irrep        # of functions
         1                 45
         2                 39
         3                 29
         4                 26


  Parameters for SCF calculation: 
        SCF reference function:  RHF  
  Maximum number of iterations:  150
     Full symmetry point group: C2v 
     Computational point group: C2v 
        Initial density matrix: MOREAD                 
     SCF convergence tolerance: 10**(- 7)
  DIIS convergence acceleration:  ON
          Latest start for DIIS:   8
                     DIIS order:   6

  Memory information:     823082 words required.
  Fock matrices are constructed from AO integral file.
 @GETMEM-I,  Allocated       6 MB of main memory.
  Initialization and symmetry analysis required      0.001 seconds.

  @INITGES-I, Occupancies from core Hamiltonian:

          Alpha population by irrep:   4    3    1    1
           Beta population by irrep:   4    3    1    1


 total no. of electrons in initial guess :  0.000000000000000E+000
  --------------------------------------------------------------------
  Iteration         Total Energy            Largest Density Difference
  --------------------------------------------------------------------
       0            34.598772770416346              0.0000000000D+00
   current occupation vector 
     4  3  1  1
     4  3  1  1
       1           -51.698211654466220              0.8749642711D+01
   current occupation vector 
     4  3  1  1
     4  3  1  1
       2           -41.138784466846275              0.3164806970D+02
   current occupation vector 
     5  3  1  0
     5  3  1  0
       3           -67.977650434470092              0.3138642940D+02
   current occupation vector 
     4  3  1  1
     4  3  1  1
       4           -43.220369307589394              0.1243489599D+02
   current occupation vector 
     6  2  1  0
     6  2  1  0
       5           -68.637485779895471              0.1243489597D+02
   current occupation vector 
     4  3  1  1
     4  3  1  1
       6           -43.498481157534357              0.1243481703D+02
   current occupation vector 
     6  2  1  0
     6  2  1  0
       7           -68.729622693748823              0.1243481703D+02
   current occupation vector 
     4  3  1  1
     4  3  1  1
       8           -43.535844745087331              0.1243480526D+02
   current occupation vector 
     6  2  1  0
     6  2  1  0
       9           -73.524248813370818              0.1243480541D+02
   current occupation vector 
     4  3  1  1
     4  3  1  1
      10           -75.774572844596577              0.9185856300D+00
   current occupation vector 
     4  3  1  1
     4  3  1  1
      11           -77.547197197778175              0.8979733957D+00
   current occupation vector 
     4  3  1  1
     4  3  1  1
      12           -76.526773147794358              0.2814732460D+01
   current occupation vector 
     5  2  1  1
     5  2  1  1
      13           -78.377702344365616              0.2802113250D+01
   current occupation vector 
     5  2  1  1
     5  2  1  1
      14           -78.420995384834072              0.2661093022D+00
   current occupation vector 
     5  2  1  1
     5  2  1  1
      15           -78.477352486253565              0.2404392554D+00
   current occupation vector 
     5  2  1  1
     5  2  1  1
      16           -78.545011965218379              0.3798281458D+00
   current occupation vector 
     5  2  1  1
     5  2  1  1
      17           -78.546683816347112              0.7513621392D-01
   current occupation vector 
     5  2  1  1
     5  2  1  1
      18           -78.546753030818280              0.2204811114D-01
   current occupation vector 
     5  2  1  1
     5  2  1  1
      19           -78.546753070419115              0.2309459961D-03
   current occupation vector 
     5  2  1  1
     5  2  1  1
      20           -78.546753072762115              0.6712605234D-04
   current occupation vector 
     5  2  1  1
     5  2  1  1
      21           -78.546753072947212              0.1500126189D-04
   current occupation vector 
     5  2  1  1
     5  2  1  1
      22           -78.546753072952313              0.2044053697D-05
   current occupation vector 
     5  2  1  1
     5  2  1  1
      23           -78.546753072952669              0.6461986749D-06
   current occupation vector 
     5  2  1  1
     5  2  1  1
      24           -78.546753072952455              0.2036587468D-06
   current occupation vector 
     5  2  1  1
     5  2  1  1

  SCF has converged.

 Density matrix saved to file den.dat
 total electron number:   18.0000000000000     
     E(SCF)=       -78.546753072952129              0.1525032458D-07


  Final occupancies:

     Alpha population by irrep:   5    2    1    1
      Beta population by irrep:   5    2    1    1


  Eigenvector printing suppressed.

 @PUTMOS-I, Writing converged MOs to NEWMOS. 
 @PUTMOS-I, Symmetry   1 Full Blocks 11 Partial Blocksize   1
 @PUTMOS-I, Symmetry   2 Full Blocks  9 Partial Blocksize   3
 @PUTMOS-I, Symmetry   3 Full Blocks  7 Partial Blocksize   1
 @PUTMOS-I, Symmetry   4 Full Blocks  6 Partial Blocksize   2
 @PUTFOCK-I, Writing converged Fock matrix to NEWFOCK. 
 @PUTFOCK-I, Symmetry   1 Full Blocks 11 Partial Blocksize   1
 @PUTFOCK-I, Symmetry   2 Full Blocks  9 Partial Blocksize   3
 @PUTFOCK-I, Symmetry   3 Full Blocks  7 Partial Blocksize   1
 @PUTFOCK-I, Symmetry   4 Full Blocks  6 Partial Blocksize   2


 
  ORBITAL EIGENVALUES (ALPHA)  (1H = 27.2113834 eV)

       MO #        E(hartree)               E(eV)           FULLSYM    COMPSYM
       ----   --------------------   --------------------   -------   ---------
    1     1         -11.1631729861        -303.7653800863      A1        A1 (1)
    2    46         -11.1614089563        -303.7173783940      B1        B1 (2)
    3     2          -0.9748751943         -26.5277026788      A1        A1 (1)
    4    47          -0.7169911315         -19.5103205737      B1        B1 (2)
    5    85          -0.5962916171         -16.2259198124      B2        B2 (3)
    6     3          -0.5033381317         -13.6965268810      A1        A1 (1)
    7   114          -0.4518973009         -12.2967507132      A2        A2 (4)
    8     4          -0.3133963834          -8.5279491454      A1        A1 (1)
    9     5          -0.0453112475          -1.2329817282      A1        A1 (1)
  +++++++++++++++++++++++++++++++++++++++++++++++++++++++++++++++++++++++++++++
   10    48           0.2180246417           5.9327521166      B1        B1 (2)
   11     6           0.2194236942           5.9708222694      A1        A1 (1)
   12     7           0.2426915653           6.6039732312      A1        A1 (1)
   13    86           0.2468560894           6.7172956944      B2        B2 (3)
   14    49           0.2543802581           6.9220387334      B1        B1 (2)
   15   115           0.3009054151           8.1880526184      A2        A2 (4)
   16    50           0.4172202230          11.3531394507      B1        B1 (2)
   17     8           0.4227610963          11.5039142784      A1        A1 (1)
   18    87           0.4496145138          12.2346329166      E         B2 (3)
   19    51           0.4496195405          12.2347697004      E         B1 (2)
   20     9           0.4497151052          12.2373701487      A1        A1 (1)
   21    10           0.5101425402          13.8816842514      A1        A1 (1)
   22    88           0.5344779584          14.5438846443      B2        B2 (3)
   23    11           0.5435695253          14.7912787584      A1        A1 (1)
   24    52           0.6285116867          17.1026724775      B1        B1 (2)
   25    53           0.6527585286          17.7624625903      B1        B1 (2)
   26    89           0.6593296347          17.9412714774      B2        B2 (3)
   27    12           0.6882298243          18.7276856151      A1        A1 (1)
   28    54           0.7019284183          19.1004433088      B1        B1 (2)
   29    90           0.7305231617          19.8785458354      B2        B2 (3)
   30   116           0.7563490183          20.5813031203      A2        A2 (4)
   31    13           0.7833139432          21.3150560307      A1        A1 (1)
   32    55           0.8478743842          23.0718349424      B1        B1 (2)
   33   117           0.8914583960          24.2578161995      A2        A2 (4)
   34    14           0.9594858544          26.1089374521      A1        A1 (1)
   35   118           0.9670734446          26.3154062779      A2        A2 (4)
   36    15           1.0489786027          28.5441589368      A1        A1 (1)
   37   119           1.0842600124          29.5042149027      A2        A2 (4)
   38    91           1.1003031906          29.9407719757      B2        B2 (3)
   39    16           1.1023289955          29.9958969290      E         A1 (1)
   40   120           1.1023289991          29.9958970264      E         A2 (4)
   41    92           1.1023621420          29.9967988904      E         B2 (3)
   42    56           1.1023642100          29.9968551641      E         B1 (2)
   43    17           1.1023793523          29.9972672081      A1        A1 (1)
   44    18           1.2452072265          33.8838112518      A1        A1 (1)
   45    57           1.2456779456          33.8966201699      B1        B1 (2)
   46    19           1.2920822879          35.1593465196      A1        A1 (1)
   47    93           1.3174490898          35.8496122923      B2        B2 (3)
   48    94           1.3386208863          36.4257261647      E         B2 (3)
   49    58           1.3386228212          36.4257788155      E         B1 (2)
   50    20           1.3386596607          36.4267812707      A1        A1 (1)
   51    59           1.3845985307          37.6768414737      B1        B1 (2)
   52    95           1.4081267312          38.3170763593      B2        B2 (3)
   53    60           1.4273072960          38.8390060598      B1        B1 (2)
   54    96           1.5264364506          41.5364474940      B2        B2 (3)
   55    61           1.5410176123          41.9332210738      B1        B1 (2)
   56    21           1.5702466623          42.7285839601      A1        A1 (1)
   57    62           1.5959023474          43.4267106431      B1        B1 (2)
   58   121           1.6601497450          45.1749712118      A2        A2 (4)
   59   122           1.6992164443          46.2380301460      A2        A2 (4)
   60    63           1.8629450344          50.6933115850      B1        B1 (2)
   61    22           1.9149829074          52.1093340986      A1        A1 (1)
   62   123           2.0333385639          55.3299552445      A2        A2 (4)
   63    23           2.3494386274          63.9314752659      A1        A1 (1)
   64    24           2.4277207717          66.0616407059      A1        A1 (1)
   65    25           2.6110984825          71.0516019028      A1        A1 (1)
   66    64           2.6277925859          71.5058715506      B1        B1 (2)
   67    97           2.6869681512          73.1161205459      B2        B2 (3)
   68    98           2.7719744320          75.4292590435      B2        B2 (3)
   69    65           2.8042705388          76.3080807897      B1        B1 (2)
   70    26           2.8248778505          76.8688342472      A1        A1 (1)
   71   124           2.9047357089          79.0418770511      A2        A2 (4)
   72    27           2.9769655554          81.0073510965      A1        A1 (1)
   73    99           2.9791638174          81.0671688457      B2        B2 (3)
   74   125           3.1278335078          85.1126767912      A2        A2 (4)
   75    28           3.1598063221          85.9827012999      A1        A1 (1)
   76   100           3.1700218066          86.2606787653      B2        B2 (3)
   77    29           3.1721476768          86.3185266359      A1        A1 (1)
   78   101           3.1841659990          86.6455618072      B2        B2 (3)
   79   126           3.2163698402          87.5218728780      A2        A2 (4)
   80    30           3.2418681487          88.2157171277      A1        A1 (1)
   81    66           3.2921451637          89.5838242590      B1        B1 (2)
   82    67           3.3294840498          90.5998670032      B1        B1 (2)
   83   102           3.4011288426          92.5494209283      B2        B2 (3)
   84    68           3.4654164202          94.2987748499      B1        B1 (2)
   85    69           3.4891684209          94.9450996479      B1        B1 (2)
   86   127           3.4898267697          94.9630142310      A2        A2 (4)
   87   128           3.5108292096          95.5345196732      A2        A2 (4)
   88    70           3.5168354544          95.6979579046      B1        B1 (2)
   89    31           3.6138128698          98.3368475372      A1        A1 (1)
   90    32           3.6394870514          99.0354775351      A1        A1 (1)
   91   103           3.7050661305         100.8199750000      B2        B2 (3)
   92   104           3.7858987504         103.0195424097      B2        B2 (3)
   93   129           3.8793115961         105.5614351708      A2        A2 (4)
   94    71           3.9395525834         107.2006757716      B1        B1 (2)
   95   130           3.9753653284         108.1751901057      A2        A2 (4)
   96    72           4.0318167676         109.7113118618      B1        B1 (2)
   97   131           4.0403827367         109.9444037307      A2        A2 (4)
   98    33           4.0703163886         110.7589398091      A1        A1 (1)
   99   105           4.0750592724         110.8880002390      B2        B2 (3)
  100    34           4.1205023883         112.1245702884      A1        A1 (1)
  101    35           4.2164102622         114.7343562151                A1 (1)
  102   132           4.2164102645         114.7343562788                A2 (4)
  103   106           4.2164182923         114.7345747272                B2 (3)
  104    73           4.2164187669         114.7345876416                B1 (2)
  105    36           4.2164220618         114.7346773002      A1        A1 (1)
  106    74           4.2479468584         115.5925106280      B1        B1 (2)
  107   133           4.2548483182         115.7803088963      A2        A2 (4)
  108    37           4.2560906195         115.8141136334      A1        A1 (1)
  109   107           4.2656190852         116.0733963661      B2        B2 (3)
  110    38           4.3929176673         119.5373668895      A1        A1 (1)
  111    75           4.4137529218         120.1043229874      B1        B1 (2)
  112   108           4.4444905033         120.9407351023      E         B2 (3)
  113    76           4.4444910630         120.9407503343      E         B1 (2)
  114    39           4.4445017241         120.9410404369      A1        A1 (1)
  115   109           4.5331911073         123.3544012450      B2        B2 (3)
  116    77           4.5693058063         124.3371321665      B1        B1 (2)
  117   134           4.6699508609         127.0758233341      A2        A2 (4)
  118    40           4.7048781544         128.0262433100      A1        A1 (1)
  119    78           4.8213022016         131.1943026939      B1        B1 (2)
  120    79           4.8770510987         132.7113073080      B1        B1 (2)
  121    41           4.9916262130         135.8290546723      A1        A1 (1)
  122    42           5.0375319885         137.0782143281      A1        A1 (1)
  123   135           5.0913755876         138.5433731488      A2        A2 (4)
  124   110           5.1907023369         141.2461914045      B2        B2 (3)
  125   111           5.2802073397         143.6817463531      B2        B2 (3)
  126    43           5.3627087972         145.9267251427      A1        A1 (1)
  127    80           5.3679695281         146.0698769077      B1        B1 (2)
  128   136           5.4902808556         149.3981373358      A2        A2 (4)
  129   137           5.5057510900         149.8191038156      A2        A2 (4)
  130    81           5.6009573903         152.4097989557      B1        B1 (2)
  131    44           5.6262692240         153.0985689661      A1        A1 (1)
  132   112           5.6808852408         154.5847463376      B2        B2 (3)
  133    82           6.0204292517         163.8242086017      B1        B1 (2)
  134   138           6.1562617501         167.5203987919      A2        A2 (4)
  135   113           6.3340377679         172.3579301734      B2        B2 (3)
  136    83           6.5733461610         178.8698426066      B1        B1 (2)
  137   139           6.9368165775         188.7603754667      A2        A2 (4)
  138    45          11.9604241049         325.4596859449      A1        A1 (1)
  139    84          14.8127169990         403.0745214553      B1        B1 (2)


  VSCF finished.

 @CHECKOUT-I, Total execution time (CPU/WALL):       15.84/       1.33 seconds.
--executable xvscf finished with status     0 in        1.35 seconds (walltime).
 --invoking executable--
/home/tsommerfeld/zscale/bin/xvtran
 @GETMEM-I,  Allocated   85830 MB of main memory.
  Full RHF integral transformation
  Transformation of IIII integrals :
  1 pass through the AO integral file was required.
      463659 AO integrals were read.
      997190 MO integrals were written to HF2.
  Transformation of IIJJ integrals :
  1 pass through the AO integral file was required.
     1101536 AO integrals were read.
     2386413 MO integrals were written to HF2.
  Transformation of IJIJ integrals :
  1 pass through the AO integral file was required.
     1898428 AO integrals were read.
     4517036 MO integrals were written to HF2.
  Transformation of IJKL integrals :
  1 pass through the AO integral file was required.
     1652075 AO integrals were read.
     3969265 MO integrals were written to HF2.
  Summary of active molecular orbitals: 
------------------------------------------------------------------------
 
  Index      Eigenvalue    Symmetry    Index      Eigenvalue    Symmetry
------------------------------------------------------------------------
     1       -11.1631730        1        71         3.4891684        2
     2        -0.9748752        1        72         3.5168355        2
     3        -0.5033381        1        73         3.9395526        2
     4        -0.3133964        1        74         4.0318168        2
     5        -0.0453112        1        75         4.2164188        2
     6       -11.1614090        2        76         4.2479469        2
     7        -0.7169911        2        77         4.4137529        2
     8        -0.5962916        3        78         4.4444911        2
     9        -0.4518973        4        79         4.5693058        2
    10         0.2194237        1        80         4.8213022        2
    11         0.2426916        1        81         4.8770511        2
    12         0.4227611        1        82         5.3679695        2
    13         0.4497151        1        83         5.6009574        2
    14         0.5101425        1        84         6.0204293        2
    15         0.5435695        1        85         6.5733462        2
    16         0.6882298        1        86        14.8127170        2
    17         0.7833139        1        87         0.2468561        3
    18         0.9594859        1        88         0.4496145        3
    19         1.0489786        1        89         0.5344780        3
    20         1.1023290        1        90         0.6593296        3
    21         1.1023794        1        91         0.7305232        3
    22         1.2452072        1        92         1.1003032        3
    23         1.2920823        1        93         1.1023621        3
    24         1.3386597        1        94         1.3174491        3
    25         1.5702467        1        95         1.3386209        3
    26         1.9149829        1        96         1.4081267        3
    27         2.3494386        1        97         1.5264365        3
    28         2.4277208        1        98         2.6869682        3
    29         2.6110985        1        99         2.7719744        3
    30         2.8248779        1       100         2.9791638        3
    31         2.9769656        1       101         3.1700218        3
    32         3.1598063        1       102         3.1841660        3
    33         3.1721477        1       103         3.4011288        3
    34         3.2418681        1       104         3.7050661        3
    35         3.6138129        1       105         3.7858988        3
    36         3.6394871        1       106         4.0750593        3
    37         4.0703164        1       107         4.2164183        3
    38         4.1205024        1       108         4.2656191        3
    39         4.2164103        1       109         4.4444905        3
    40         4.2164221        1       110         4.5331911        3
    41         4.2560906        1       111         5.1907023        3
    42         4.3929177        1       112         5.2802073        3
    43         4.4445017        1       113         5.6808852        3
    44         4.7048782        1       114         6.3340378        3
    45         4.9916262        1       115         0.3009054        4
    46         5.0375320        1       116         0.7563490        4
    47         5.3627088        1       117         0.8914584        4
    48         5.6262692        1       118         0.9670734        4
    49        11.9604241        1       119         1.0842600        4
    50         0.2180246        2       120         1.1023290        4
    51         0.2543803        2       121         1.6601497        4
    52         0.4172202        2       122         1.6992164        4
    53         0.4496195        2       123         2.0333386        4
    54         0.6285117        2       124         2.9047357        4
    55         0.6527585        2       125         3.1278335        4
    56         0.7019284        2       126         3.2163698        4
    57         0.8478744        2       127         3.4898268        4
    58         1.1023642        2       128         3.5108292        4
    59         1.2456779        2       129         3.8793116        4
    60         1.3386228        2       130         3.9753653        4
    61         1.3845985        2       131         4.0403827        4
    62         1.4273073        2       132         4.2164103        4
    63         1.5410176        2       133         4.2548483        4
    64         1.5959023        2       134         4.6699509        4
    65         1.8629450        2       135         5.0913756        4
    66         2.6277926        2       136         5.4902809        4
    67         2.8042705        2       137         5.5057511        4
    68         3.2921452        2       138         6.1562618        4
    69         3.3294840        2       139         6.9368166        4
    70         3.4654164        2
------------------------------------------------------------------------
  -11.1631729861384      -0.974875194283669      -0.503338131680646     
 -0.313396383421278      -4.531124750454853E-002  -11.1614089562958     
 -0.716991131503435      -0.596291617147788      -0.451897300935949     
  0.219423694180177       0.242691565296646       0.422761096313990     
  0.449715105211813       0.510142540249141       0.543569525334768     
  0.688229824255279       0.783313943190427       0.959485854443172     
   1.04897860271367        1.10232899548134        1.10237935231510     
   1.24520722646561        1.29208228787050        1.33865966074560     
   1.57024666228773        1.91498290743191        2.34943862743615     
   2.42772077166257        2.61109848251320        2.82487785046538     
   2.97696555539653        3.15980632208278        3.17214767684103     
   3.24186814874440        3.61381286984484        3.63948705140585     
   4.07031638858553        4.12050238829197        4.21641026215289     
   4.21642206181372        4.25609061953687        4.39291766729750     
   4.44450172411826        4.70487815441179        4.99162621303012     
   5.03753198847468        5.36270879718302        5.62626922400720     
   11.9604241048958       0.218024641724229       0.254380258129534     
  0.417220223016692       0.449619540489522       0.628511686675292     
  0.652758528633309       0.701928418265131       0.847874384157591     
   1.10236420997719        1.24567794557265        1.33862282119339     
   1.38459853068914        1.42730729595185        1.54101761227632     
   1.59590234736301        1.86294503443021        2.62779258589909     
   2.80427053884004        3.29214516373955        3.32948404979772     
   3.46541642017168        3.48916842088678        3.51683545440699     
   3.93955258340999        4.03181676760355        4.21641876692122     
   4.24794685844468        4.41375292177953        4.44449106304329     
   4.56930580627998        4.82130220155923        4.87705109869727     
   5.36796952806412        5.60095739034179        6.02042925173933     
   6.57334616095182        14.8127169989935       0.246856089440889     
  0.449614513778341       0.534477958378907       0.659329634720521     
  0.730523161694322        1.10030319060234        1.10236214195529     
   1.31744908979144        1.33862088631174        1.40812673123014     
   1.52643645063713        2.68696815119909        2.77197443197465     
   2.97916381736396        3.17002180658409        3.18416599896851     
   3.40112884258099        3.70506613052349        3.78589875036206     
   4.07505927240125        4.21641829232473        4.26561908521478     
   4.44449050327436        4.53319110725378        5.19070233689527     
   5.28020733973769        5.68088524075718        6.33403776793561     
  0.300905415134412       0.756349018268225       0.891458396028959     
  0.967073444635651        1.08426001240039        1.10232899906252     
   1.66014974497125        1.69921644432208        2.03333856390803     
   2.90473570892170        3.12783350776532        3.21636984020450     
   3.48982676974039        3.51082920955799        3.87931159614713     
   3.97536532838468        4.04038273668609        4.21641026449315     
   4.25484831823535        4.66995086086274        5.09137558764562     
   5.49028085561607        5.50575109002209        6.15626175007104     
   6.93681657753363     
 @CHECKOUT-I, Total execution time (CPU/WALL):       16.40/       1.90 seconds.
--executable xvtran finished with status     0 in        1.92 seconds (walltime).
 --invoking executable--
/home/tsommerfeld/zscale/bin/xintprc
 @GETMEM-I,  Allocated   85830 MB of main memory.
  @GMOIAA-I, Processing MO integrals for spin case AA.
  @GMOIAA-I, Generation of integral list completed.
                      TYPE                NUMBER
                      ----               --------
                      PPPP               9083401
                      PPPH               2501309
                      PPHH                173522
                      PHPH                 97627
                      PHHH                 13713
                      HHHH                   332

                     TOTAL              11869904

  @FORMT2-I, Second-order MP correlation energies:
            ------------------------------------------------
            E(SCF)                  =    -78.546753072952 a.u.
            E2(AA)                  =     -0.037952204358 a.u.
            E2(AB)                  =     -0.319249971951 a.u.
            E2(TOT)                 =     -0.395154380668 a.u.
            Total MP2 energy        =    -78.941907453620 a.u.
            ------------------------------------------------
   Largest T2 amplitudes for spin case AB:
       _       _                 _       _                 _       _
   i   j   a   b             i   j   a   b             i   j   a   b
-----------------------------------------------------------------------------
[  4   4  50  50]-0.08268 [  5   5  11  11]-0.08134 [  5   5  17  17]-0.04760
[  5   5  17  11] 0.04298 [  5   5  11  17] 0.04298 [  5   5  88  88]-0.04090
[  5   5  53  53]-0.04090 [  5   5  13  13]-0.04089 [  4   4  54  50]-0.03696
[  4   4  50  54]-0.03696 [  4   4  14  14]-0.03054 [  4   4  15  15]-0.02687
[  4   3  50  57] 0.02650 [  3   4  57  50] 0.02650 [  4   4  54  54]-0.02644
-----------------------------------------------------------------------------
   Norm of T2AB vector (   345906 symmetry allowed elements):  0.3321623132.
-----------------------------------------------------------------------------
 @CHECKOUT-I, Total execution time (CPU/WALL):        5.63/       2.76 seconds.
--executable xintprc finished with status     0 in        2.79 seconds (walltime).
  calling xvcc 
 --invoking executable--
/home/tsommerfeld/zscale/bin/xvcc
 @GETMEM-I,  Allocated   85830 MB of main memory.
   CCSD(T) energy will be calculated.
   The total correlation energy is -0.395154380668 a.u.
   The total correlation energy is -0.415051330587 a.u.
  Convergence information after     1 iterations: 
  Largest element of residual vector : -0.28552191E-01.
  Largest element of DIIS residual   : -0.28552191E-01.
   The total correlation energy is -0.426212507784 a.u.
  Convergence information after     2 iterations: 
  Largest element of residual vector : -0.13297583E-01.
  Largest element of DIIS residual   : -0.10651141E-01.
   The total correlation energy is -0.429115056384 a.u.
  Convergence information after     3 iterations: 
  Largest element of residual vector : -0.70997793E-02.
  Largest element of DIIS residual   : -0.58242856E-02.
   The total correlation energy is -0.430738320966 a.u.
  Convergence information after     4 iterations: 
  Largest element of residual vector : -0.34991552E-02.
  Largest element of DIIS residual   : -0.20866104E-02.
   The total correlation energy is -0.430911711449 a.u.
  Convergence information after     5 iterations: 
  Largest element of residual vector : -0.10345765E-02.
  Largest element of DIIS residual   : -0.37926319E-03.
   The total correlation energy is -0.430916852799 a.u.
  Convergence information after     6 iterations: 
  Largest element of residual vector :  0.24413912E-03.
  Largest element of DIIS residual   :  0.18779144E-03.
   The total correlation energy is -0.430907456760 a.u.
  Convergence information after     7 iterations: 
  Largest element of residual vector :  0.83751893E-04.
  Largest element of DIIS residual   :  0.52468638E-04.
   The total correlation energy is -0.430904784971 a.u.
  Convergence information after     8 iterations: 
  Largest element of residual vector : -0.55232278E-04.
  Largest element of DIIS residual   : -0.25076382E-04.
   The total correlation energy is -0.430904305293 a.u.
  Convergence information after     9 iterations: 
  Largest element of residual vector :  0.30149196E-04.
  Largest element of DIIS residual   :  0.91354694E-05.
   The total correlation energy is -0.430904532281 a.u.
  Convergence information after    10 iterations: 
  Largest element of residual vector : -0.92579060E-05.
  Largest element of DIIS residual   : -0.44680215E-05.
   The total correlation energy is -0.430905029320 a.u.
  Convergence information after    11 iterations: 
  Largest element of residual vector :  0.52313143E-05.
  Largest element of DIIS residual   : -0.27205146E-05.
   The total correlation energy is -0.430905202859 a.u.
  Convergence information after    12 iterations: 
  Largest element of residual vector : -0.17397462E-05.
  Largest element of DIIS residual   : -0.11781564E-05.
   The total correlation energy is -0.430905471881 a.u.
  Convergence information after    13 iterations: 
  Largest element of residual vector : -0.84297346E-06.
  Largest element of DIIS residual   :  0.47395408E-06.
   The total correlation energy is -0.430905569964 a.u.
  Convergence information after    14 iterations: 
  Largest element of residual vector : -0.39562740E-06.
  Largest element of DIIS residual   : -0.29981554E-06.
   The total correlation energy is -0.430905591828 a.u.
  Convergence information after    15 iterations: 
  Largest element of residual vector :  0.30294240E-06.
  Largest element of DIIS residual   : -0.15186710E-06.
   The total correlation energy is -0.430905602357 a.u.
  Convergence information after    16 iterations: 
  Largest element of residual vector : -0.11727808E-06.
  Largest element of DIIS residual   :  0.54141439E-07.
   The total correlation energy is -0.430905605312 a.u.
  Convergence information after    17 iterations: 
  Largest element of residual vector :  0.58032721E-07.
  Largest element of DIIS residual   :  0.26873322E-07.
  Amplitude equations converged in    17iterations.
   The total correlation energy is -0.430905607091 a.u.
   The CC iterations have converged.

   Largest T1 amplitudes for spin case AA:
   i       a                 i       a                 i       a    
-----------------------------------------------------------------------------
[  5      11    ]-0.02750 [  4      14    ] 0.02424 [  5      17    ]-0.01560
[  4      18    ]-0.01482 [  4      22    ]-0.00980 [  4      28    ]-0.00946
[  8      89    ]-0.00791 [  8      90    ] 0.00618 [  3      12    ] 0.00554
[  5      31    ]-0.00493 [  9     121    ]-0.00447 [  8      97    ]-0.00433
[  7      56    ] 0.00395 [  4      30    ]-0.00395 [  5      10    ] 0.00386
-----------------------------------------------------------------------------
   Norm of T1AA vector (      327 symmetry allowed elements):  0.0494190012.
-----------------------------------------------------------------------------
   Largest T2 amplitudes for spin case AB:
       _       _                 _       _                 _       _
   i   j   a   b             i   j   a   b             i   j   a   b
-----------------------------------------------------------------------------
[  5   5  11  11]-0.14842 [  4   4  50  50]-0.11610 [  5   5  17  11] 0.08521
[  5   5  11  17] 0.08521 [  5   5  17  17]-0.06422 [  5   5  88  88]-0.05420
[  5   5  53  53]-0.05420 [  5   5  13  13]-0.05417 [  4   4  54  50]-0.05130
[  4   4  50  54]-0.05130 [  4   4  54  54]-0.02923 [  4   4  15  15]-0.02620
[  4   4  14  14]-0.02557 [  4   3  50  57] 0.02554 [  3   4  57  50] 0.02554
-----------------------------------------------------------------------------
   Norm of T2AB vector (   345906 symmetry allowed elements):  0.4178552747.
-----------------------------------------------------------------------------
       Summary of iterative solution of CC equations 
      -----------------------------------------------------------
                       Correlation           Total
       Iteration         Energy              Energy
      -----------------------------------------------------------
            0        -0.395154380668     -78.941907453620  DIIS 
            1        -0.415051330587     -78.961804403539  DIIS 
            2        -0.426212507784     -78.972965580736  DIIS 
            3        -0.429115056384     -78.975868129336  DIIS 
            4        -0.430738320966     -78.977491393918  DIIS 
            5        -0.430911711449     -78.977664784401  DIIS 
            6        -0.430916852799     -78.977669925751  DIIS 
            7        -0.430907456760     -78.977660529712  DIIS 
            8        -0.430904784971     -78.977657857923  DIIS 
            9        -0.430904305293     -78.977657378246  DIIS 
           10        -0.430904532281     -78.977657605233  DIIS 
           11        -0.430905029320     -78.977658102272  DIIS 
           12        -0.430905202859     -78.977658275811  DIIS 
           13        -0.430905471881     -78.977658544833  DIIS 
           14        -0.430905569964     -78.977658642916  DIIS 
           15        -0.430905591828     -78.977658664780  DIIS 
           16        -0.430905602357     -78.977658675309  DIIS 
           17        -0.430905607091     -78.977658680043  DIIS 
      -----------------------------------------------------------
      A miracle has come to pass. The CC iterations have converged.
        E(CCSD)           =     -78.977658680043
        E(CCSD + T(CCSD)) =     -78.993464131720
        E(CCSD(T))        =     -78.993043680783
 @CHECKOUT-I, Total execution time (CPU/WALL):      210.15/      17.55 seconds.
--executable xvcc finished with status     0 in       17.57 seconds (walltime).
  The final electronic energy is       -78.993043680782762 a.u. 
  This computation required                           27.75 seconds (walltime).
