CFour on node01
 --invoking executable--
/home/tsommerfeld/zscale/bin/xjoda


   *************************************************************************
         <<<     CCCCCC     CCCCCC   |||     CCCCCC     CCCCCC   >>>
       <<<      CCC        CCC       |||    CCC        CCC         >>>
      <<<      CCC        CCC        |||   CCC        CCC            >>>
    <<<        CCC        CCC        |||   CCC        CCC              >>>
      <<<      CCC        CCC        |||   CCC        CCC            >>>
       <<<      CCC        CCC       |||    CCC        CCC         >>>
         <<<     CCCCCC     CCCCCC   |||     CCCCCC     CCCCCC   >>>
   *************************************************************************

     ****************************************************************
     * CFOUR Coupled-Cluster techniques for Computational Chemistry *
     ****************************************************************
 

   Department of Chemistry                Institut fuer Physikalische Chemie
   University of Florida                  Universitaet Mainz
   Gainesville, FL 32611, USA             D-55099 Mainz, Germany

   Department of Chemistry                Department of Chemistry
   Johns Hopkins University               Southern Methodist University
   Baltimore, MD 21218, USA               Dallas, TX 75275, USA

   Institute of Nanotechnology            Department of Physical Chemistry
   Karlsruhe Inst. of Technology          Eotvos Lorand University
   D-76021 Karlsruhe, Germany             H-1053 Budapest, Hungary

 
                       Version 2.1
 
                     node01                                            
                     Tue May  3 11:03:46 CDT 2022                      
                     integer*8 version is running
 
********************************************************************************
*                          Input from ZMAT file                                *
********************************************************************************
h_ethylene                                                                      
C       0.000000      0.0   -0.664500                                           
C       0.000000      0.0    0.664500                                           
H       0.962348      0.0   -1.159080                                           
H       0.962348      0.0    1.159080                                           
H      -0.962348      0.0   -1.159080                                           
H      -0.962348      0.0    1.159080                                           
H      0.000000      4.133333333333333      0.000000                            
                                                                                
*CFOUR(CALC=CCSD(T)                                                             
#EXCITE=EOMEE                                                                   
#ESTATE_SYM=0/3/0/0                                                             
CC_PROG=VCC                                                                     
CHARGE=-1                                                                       
COORDINATES=CARTESIAN                                                           
BASIS=SPECIAL                                                                   
REFERENCE=RHF                                                                   
MEM_SIZE=90,MEM_UNIT=GB)                                                        
                                                                                
C:cc-pVTZ                                                                       
C:cc-pVTZ                                                                       
H:cc-pVTZ                                                                       
H:cc-pVTZ                                                                       
H:cc-pVTZ                                                                       
H:cc-pVTZ                                                                       
H:aug-cc-pVTZ                                                                   
                                                                                
********************************************************************************
  @GTFLGS-W, Keyword #EXCITE not known and is ignored.
  @GTFLGS-W, Keyword #ESTATE_SYM not known and is ignored.
    -------------------------------------------------------------------
                    CFOUR Control Parameters 
    -------------------------------------------------------------------
        External           Internal           Value            Units
          Name               Name
    -------------------------------------------------------------------
       ABCDTYPE             IABCDT         STANDARD    [  0]    ***   
       ANHARMONIC           IANHAR         OFF         [  0]    ***   
       ANH_ALGORIT          IANALG         STANDARD    [  0]    ***   
       ANH_DERIVAT          IANDER         SECOND      [  1]    ***   
       ANH_MODE             ANHMOD         VIBRATION   [  0]    ***   
       ANH_STEPSIZ          ICUBST             50000          x 10-6  
       ANH_SYMMETR          IANHSM         ABELIAN     [  0]    ***   
       AO_LADDERS           IAOLAD         SINGLEPASS  [  1]    ***   
       AV_SCF               IAVSCF         OFF         [  0]    ***   
       BASIS                IBASIS         SPECIAL     [  0]    ***   
       BOTHVECTORS          BOTHVC         OFF         [  0]    ***   
       BOX_POTENT           IPIAB          OFF         [  0]    ***   
       BREIT                IBREIT         OFF         [  0]    ***   
       BRUCK_CONV           IBRTOL          10D-  4             ***   
       BRUECKNER            IBRKNR         OFF         [  0]    ***   
       BUFFERSIZE           IBUFFS              4096            ***   
       CACHE_RECS           ICHREC             10               ***   
       CALCLEVEL            ICLLVL         CCSD(T)     [ 22]    ***   
       CCORBOPT             ICCORB         OFF         [  0]  x 0.01  
       CC_CONV              ICCCNV          10D-  7             ***   
       CC_EXPORDER          ICCEOR              5               ***   
       CC_EXTRAPOL          ICCEXT         DIIS        [  1]    ***   
       CC_GUESS             ICCGES         MP2         [  0]    ***   
       CC_MAXCYC            ICCCYC            100              cycles 
       CC_PROGRAM           ICCPRO         VCC         [  0]    ***   
       CHARGE               ICHRGE             -1               ***   
       CHOLESKY             ICHOLE         OFF         [  0]    ***   
       CIS_CONV             ICISTL              5               ***   
       COMM_SIZE            IPSIZE            ***               ***   
       CONSTANT             ICONST         OLD         [  1]    ***   
       CONTINUUM            ICONTU         NONE        [  0]    ***   
       CONTRACTION          ICNTYP         GENERAL     [  1]    ***   
       COORDINATES          ICOORD         CARTESIAN   [  1]    ***   
       CPHF_CONVER          ICPHFT          10D- 16             ***   
       CPHF_MAXCYC          ICPHFC             64              cycles 
       CUBIC                ICUBIC         OFF         [  0]    ***   
       CURVILINEAR          ICURVY         OFF         [  0]    ***   
       DBOC                 IDBOC          OFF         [  0]    ***   
       DCT                  IDCT           OFF         [  0]    ***   
       DERIV_LEV            IDRLVL         ZERO        [  0]    ***   
       DEVMEM_SIZE          IDVMEM         *********           MByte  
       DIAG_MRCC            IEOMST          10D-  0             ***   
       DIFF_TYPE            IDIFTY         RELAXED     [  0]    ***   
       DIRECT               IDIRCT         OFF         [  0]    ***   
       DROPMO               IDRPMO      NONE         
       ECP                  IECP           OFF         [  0]    ***   
       EIGENVECTOR          IVEC                1               ***   
       EL_ANHARM            IELANH         OFF         [  0]    ***   
       EOMFOLLOW            IEOMSR         ENERGY      [  0]    ***   
       EOMIP                IEOMIP         OFF         [  0]    ***   
       EOMLEVEL             HBARFM         SAME        [  0]    ***   
       EOM_MRCC             IMRCCE         NEW         [  1]    ***   
       EOM_NONIT            EOMNON         OFF         [  0]    ***   
       EOM_NSING            IEOMSI          10D-  0             ***   
       EOM_NSTATES          IMRCCD         DAVIDSON    [  0]    ***   
       EOM_NTRIP            IEOMTR          10D-  0             ***   
       EOM_ORDER            IEXORD         ENERGY      [  0]    ***   
       EOM_PROPSTA          IEOMST              0               ***   
       ESTATE_CONV          IEXTOL          10D-  5             ***   
       ESTATE_DIAG          IEXDIG         ITERATIVE   [  0]    ***   
       ESTATE_LOCK          IESLOC         ON          [  1]    ***   
       ESTATE_MAXC          IEXMXC             40               ***   
       ESTATE_PROP          IEXPRP         OFF         [  0]    ***   
       EVAL_HESS            IRECAL              0            # of cyc.
       EXCITATION           IEXCIT              0               ***   
       EXCITE               IEXCIT         NONE        [  0]    ***   
       EXTERN_POT           IEXPOT         OFF         [  0]    ***   
       FCGRADNEW            IFCGNW         OFF         [  0]    ***   
       FC_FIELD             IFINFC              0             x 10-6  
       FD_CALTYPE           IFDCAL         GRADONLY    [  0]    ***   
       FD_PROJECT           IFDPRJ         OFF         [  1]    ***   
       FD_STEPSIZE          IDISFD              0            10-4 bohr
       FD_USEGROUP          IFDGRP         FULL        [  0]    ***   
       FILE_RECSIZ          IFLREC              4096           words  
       FINITE_PERT          IFIPER              0             x 10-6  
       FIXGEOM              IFIXGM         OFF         [  0]    ***   
       FOCK                 IFOCK          AO          [  1]    ***   
       FREQ_ALGORI          IVIALG         STANDARD    [  0]    ***   
       FROZEN_CORE          IFROCO         OFF         [  0]    ***   
       GAMMA_ABCD           IGABCD         STORE       [  0]    ***   
       GAMMA_ABCI           IGABCI         STORE       [  0]    ***   
       GENBAS_1             IGNBS1              0               ***   
       GENBAS_2             IGNBS2              0               ***   
       GENBAS_3             IGNBS3              0               ***   
       GENBAS_4             IGNBS4              0               ***   
       GEO_CONV             ICONTL              5              H/bohr 
       GEO_MAXCYC           IOPTCY             50               ***   
       GEO_MAXSTEP          IMXSTP            300            millibohr
       GEO_METHOD           INR            SINGLE_POINT[  5]    ***   
       GIAO                 IGIAO          OFF         [  1]    ***   
       GIMIC                IGIMIC         OFF         [  0]    ***   
       GRID                 IGRID          OFF         [  0]    ***   
       GRID_ALGO            IGALGO         SERIAL      [  0]    ***   
       GUESS                IGUESS         MOREAD      [  0]    ***   
       HBAR                 IHBAR          OFF         [  0]    ***   
       HESS_TYPE            IHESTP         SCF         [  0]    ***   
       HF2_FILE             IHF2Fl         USE         [  1]    ***   
       HFSTABILITY          ISTABL         OFF         [  0]    ***   
       INCORE               INCORE         OFF         [  0]    ***   
       INPUT_MRCC           IMRCC          ON          [  1]    ***   
       INTEGRALS            INTTYP         VMOL        [  1]    ***   
       JODA_PRINT           IJPRNT              0               ***   
       KEYWORD_OUT          IDMPKW         NO          [  0]    ***   
       LINDEP_TOL           ILINDP              8               ***   
       LINEQ_CONV           IZTACN          10D-  7           cycles  
       LINEQ_EXPOR          ILMAXD              5               ***   
       LINEQ_MAXCY          ILMAXC            100               ***   
       LINEQ_TYPE           ILTYPE         DIIS        [  1]    ***   
       LOCK_ORBOCC          ILOCOC         OFF         [  0]    ***   
       MEMORY_SIZE          IMEMSZ         *********           words  
       MEM_UNIT             IMEMU          GB          [  3]    ***   
       MRCC                 IMRCCC         OFF         [  0]    ***   
       MULTIPLICTY          IMULTP              1               ***   
       NACOUPLING           IVCOUP         OFF         [  0]    ***   
       NEGEVAL              IDIE           ABORT       [  0]    ***   
       NEWNORM              INEWNO         OFF         [  0]    ***   
       NON-HF               INONHF         OFF         [  0]    ***   
       NTOP_TAMP            ITOPT2             15               ***   
       NUC_MODEL            INUCMO         POINT       [  0]    ***   
       OCCUPATION           IOCCU   ESTIMATED BY SCF 
       OPEN-SHELL           IOPEN          SPIN-ORBITAL[  0]    ***   
       OPTVIB               IOPTVB         OFF         [  0]    ***   
       ORBITALS             IORBTP         STANDARD    [  0]    ***   
       PARALLEL             IPARAL         ON          [  1]    ***   
       PARA_INT             IPINTS         ON          [  1]    ***   
       PARA_PRINT           IPPRIN              0               ***   
       PERT_ORB             IPTORB         STANDARD    [  0]    ***   
       POINTS               IGRDFD              0               ***   
       PRINT                IPRNT               0               ***   
       PROPS                IPROPS         OFF         [  0]    ***   
       PROP_INTEGR          IINTYP         INTERNAL    [  0]    ***   
       PSI                  IPSI           OFF         [  0]    ***   
       QC_ALG               IQCALG         FLM         [  0]    ***   
       QC_LINALG            IQCLIN         TRIDIAG     [  2]    ***   
       QC_MAXCYC            IQCMAX          10D-100           cycles  
       QC_MAXSCFCY          IQCMSC          10D- 15           cycles  
       QC_RTRUST            IQCRTR          10D-  0           x 10-3  
       QC_SKIPSCF           IQCSKI         OFF         [  0]    ***   
       QC_START             IQCSTA          10D-  1             ***   
       QRHFGUESS            IQGUES         OFF         [  0]    ***   
       QUARTIC              IQUART         OFF         [  0]    ***   
       RAMAN_INT            IRAMIN         OFF         [  0]    ***   
       RAMAN_ORB            IRAMRE         UNRELAXED   [  0]    ***   
       RDO                  IRDOFM         OFF         [  0]    ***   
       REDUCE_REPR          REDREP         Ir          [  0]    ***   
       REFERENCE            IREFNC         RHF         [  0]    ***   
       RELATIVIST           IRELAT         OFF         [  0]    ***   
       RELAX_DENS           IRDENS         OFF         [  0]    ***   
       RESET_FLAGS          IRESET         OFF         [  0]    ***   
       RESTART_CC           ICCRES         OFF         [  0]    ***   
       ROT_EVEC             ROTVEC              0               ***   
       SAVE_INTS            ISVINT         OFF         [  0]    ***   
       SCALE_ON             ISTCRT              0               ***   
       SCF_CONV             ISCFCV          10D-  7             ***   
       SCF_DAMPING          IDAMP               0             x 10-3  
       SCF_EXPORDE          IRPPOR              6               ***   
       SCF_EXPSTAR          IRPPLS              8               ***   
       SCF_EXTRAPO          IRPP           ON          [  1]    ***   
       SCF_MAXCYC           ISCFCY            150              cycles 
       SCF_NOSTOP           ISCFST         OFF         [  0]    ***   
       SCF_PRINT            ISCFPR              0               ***   
       SCF_PROG             ISCFPR         SCF         [  0]    ***   
       SD_FIELD             IFINSD              0             x 10-6  
       SOPERT               IPERSO         OFF         [  0]    ***   
       SPHERICAL            IDFGHI         ON          [  1]    ***   
       SPINORBIT            ISOCAL         OFF         [  0]    ***   
       SPINROTATIO          ISRCON         OFF         [  0]    ***   
       SPIN_FLIP            ISPFLP         OFF         [  0]    ***   
       SPIN_ORBIT           ISPORB         OFF         [  0]    ***   
       SPIN_SCAL            ISCSMP         OFF         [  0]    ***   
       STEEPSCALE           ISTPSC              1000          x 10-3  
       SUBGROUP             ISUBGP         DEFAULT     [  0]    ***   
       SUBGRPAXIS           ISBXYZ         X           [  0]    ***   
       SYMMETRY             ISYM           ON          [  0]    ***   
       SYM_CHECK            ISYMCK         OVERRIDE    [  1]    ***   
       T3_EXTRAPOL          IT3EXT         OFF         [  0]    ***   
       T4_EXTRAPOL          IT4EXP         OFF         [  0]    ***   
       TAMP_SUM             IEVERY              5               ***   
       TESTSUITE            ITESTS         OFF         [  0]    ***   
       THERMOCH             ITHERM         OFF         [  0]    ***   
       TOL_CHOLESK          ITOLCH          10D-  4             ***   
       TRANGRAD             IRESRM         OFF         [  0]    ***   
       TRANS_INV            ITRAIN         USE         [  0]    ***   
       TREAT_PERT           ITREAT         SIMULTANEOUS[  0]    ***   
       TRIP_ALGORI          ITRALG         NORMAL      [  0]    ***   
       UIJ_THRESHO          IUIJTH              1               ***   
       UNITS                IUNITS         ANGSTROM    [  0]    ***   
       UNOS                 IUNOS          OFF         [  0]    ***   
       UPDATE_HESS          IHUPDT         ON          [  1]    ***   
       VIBPHASE             ISETPH         STANDARD    [  0]    ***   
       VIBRATION            IVIB           NO          [  0]    ***   
       VIB_ALGORIT          IGEALG         STANDARD    [  0]    ***   
       VNATORB              IVNORB         OFF         [  0]    ***   
       VTRAN                IVTRAN         FULL/PARTIAL[  0]    ***   
       XFIELD               IXEFLD              0             x 10-6  
       XFORM_TOL            IXFTOL          10D- 11             ***   
       YFIELD               IYEFLD              0             x 10-6  
       ZFIELD               IZEFLD              0             x 10-6  
       ZSCALE_EXP           IZEXPS         OFF         [  0]    ***   
    -------------------------------------------------------------------
  @GETXYZ-I,     7 atoms read from ZMAT.
   Rotational constants (in cm-1): 
          0.5165676980             0.8282218554             0.8536890782
   Rotational constants (in MHz): 
      15486.3121590727         24829.4700584734         25592.9582983935
********************************************************************************
   The full molecular point group is C2v .
   The largest Abelian subgroup of the full molecular point group is C2v .
   The computational point group is C2v .
********************************************************************************


 ----------------------------------------------------------------
         Coordinates used in calculation (QCOMP) 
 ----------------------------------------------------------------
 Z-matrix   Atomic            Coordinates (in bohr)
  Symbol    Number           X              Y              Z
 ----------------------------------------------------------------
     C         6        -1.25572327     0.00000000    -0.27108220
     C         6         1.25572327     0.00000000    -0.27108220
     H         1        -2.19034422     1.81857454    -0.27108220
     H         1         2.19034422     1.81857454    -0.27108220
     H         1        -2.19034422    -1.81857454    -0.27108220
     H         1         2.19034422    -1.81857454    -0.27108220
     H         1         0.00000000     0.00000000     7.53978742
 ----------------------------------------------------------------
 
   Interatomic distance matrix (Angstroms) 
 
                 C             C             H             H             H    
                [ 1]        [ 2]        [ 3]        [ 4]        [ 5]
  C    [ 1]     0.00000
  C    [ 2]     1.32900     0.00000
  H    [ 3]     1.08200     2.06193     0.00000
  H    [ 4]     2.06193     1.08200     2.31816     0.00000
  H    [ 5]     1.08200     2.06193     1.92470     3.01303     0.00000
  H    [ 6]     2.06193     1.08200     3.01303     1.92470     2.31816
  H    [ 7]     4.18641     4.18641     4.39932     4.39932     4.39932
 
                 H             H    
                [ 6]        [ 7]
  H    [ 6]     0.00000
  H    [ 7]     4.39932     0.00000
 rotcon2
   Rotational constants (in cm-1): 
          0.8282218554             0.5165676980             0.8536890782
   Rotational constants (in MHz): 
      24829.4700584734         15486.3121590727         25592.9582983935
  ECPDATA file not present.   Using default ECPDATA. 
  @GTFLGS-W, Keyword #EXCITE not known and is ignored.
  @GTFLGS-W, Keyword #ESTATE_SYM not known and is ignored.
  There are  139 basis functions.
 @GEOPT-W, Archive file not created for single-point calculation.
 @CHECKOUT-I, Total execution time (CPU/WALL):        0.14/       0.16 seconds.
--executable xjoda finished with status     0 in        0.18 seconds (walltime).
 --invoking executable--
/home/tsommerfeld/zscale/bin/xvmol
 SERIAL VERSION OF MOLECULE STARTED
********************************************************************************
                    INPUT FROM MOL FILE
********************************************************************************
INTGRL        1    0    1    0    0    0    0    0    0                         
         *** CFOUR Program System (Release V0.1) ***                            
h_ethylene                                                                      
    3    2 X  Y       0.10E-08              0    0                              
   9999.00      3.00                                                            
          6.00000000    1    4    1    1    1    1                              
C #1  -1.255723272983657   0.000000000000000  -0.271082200289006                
   10    4                                                                      
   8236.00000000000       5.310000000000000E-004  0.000000000000000E+000        
 -1.130000000000000E-004  0.000000000000000E+000                                
   1235.00000000000       4.108000000000000E-003  0.000000000000000E+000        
 -8.780000000000000E-004  0.000000000000000E+000                                
   280.800000000000       2.108700000000000E-002  0.000000000000000E+000        
 -4.540000000000000E-003  0.000000000000000E+000                                
   79.2700000000000       8.185300000000000E-002  0.000000000000000E+000        
 -1.813300000000000E-002  0.000000000000000E+000                                
   25.5900000000000       0.234817000000000       0.000000000000000E+000        
 -5.576000000000000E-002  0.000000000000000E+000                                
   8.99700000000000       0.434401000000000       0.000000000000000E+000        
 -0.126895000000000       0.000000000000000E+000                                
   3.31900000000000       0.346129000000000       0.000000000000000E+000        
 -0.170352000000000       0.000000000000000E+000                                
  0.905900000000000       3.937800000000000E-002   1.00000000000000             
  0.140382000000000       0.000000000000000E+000                                
  0.364300000000000      -8.983000000000000E-003  0.000000000000000E+000        
  0.598684000000000       0.000000000000000E+000                                
  0.128500000000000       2.385000000000000E-003  0.000000000000000E+000        
  0.395389000000000        1.00000000000000                                     
    5    3                                                                      
   18.7100000000000       0.000000000000000E+000  1.403100000000000E-002        
  0.000000000000000E+000                                                        
   4.13300000000000       0.000000000000000E+000  8.686600000000000E-002        
  0.000000000000000E+000                                                        
   1.20000000000000       0.000000000000000E+000  0.290216000000000             
  0.000000000000000E+000                                                        
  0.382700000000000        1.00000000000000       0.501008000000000             
  0.000000000000000E+000                                                        
  0.120900000000000       0.000000000000000E+000  0.343406000000000             
   1.00000000000000                                                             
    2    2                                                                      
   1.09700000000000        1.00000000000000       0.000000000000000E+000        
  0.318000000000000       0.000000000000000E+000   1.00000000000000             
    1    1                                                                      
  0.761000000000000        1.00000000000000                                     
          1.00000000    1    3    1    1    1                                   
H #2  -2.190344215575466   1.818574537711477  -0.271082200289006                
    5    3                                                                      
   33.8700000000000       0.000000000000000E+000  6.068000000000000E-003        
  0.000000000000000E+000                                                        
   5.09500000000000       0.000000000000000E+000  4.530800000000000E-002        
  0.000000000000000E+000                                                        
   1.15900000000000       0.000000000000000E+000  0.202822000000000             
  0.000000000000000E+000                                                        
  0.325800000000000        1.00000000000000       0.503903000000000             
  0.000000000000000E+000                                                        
  0.102700000000000       0.000000000000000E+000  0.383421000000000             
   1.00000000000000                                                             
    2    2                                                                      
   1.40700000000000        1.00000000000000       0.000000000000000E+000        
  0.388000000000000       0.000000000000000E+000   1.00000000000000             
    1    1                                                                      
   1.05700000000000        1.00000000000000                                     
          1.00000000    1    3    1    1    1                                   
H #3   0.000000000000000   0.000000000000000   7.539787418470636                
    6    4                                                                      
   33.8700000000000       0.000000000000000E+000  6.068000000000000E-003        
  0.000000000000000E+000  0.000000000000000E+000                                
   5.09500000000000       0.000000000000000E+000  4.530800000000000E-002        
  0.000000000000000E+000  0.000000000000000E+000                                
   1.15900000000000       0.000000000000000E+000  0.202822000000000             
  0.000000000000000E+000  0.000000000000000E+000                                
  0.325800000000000        1.00000000000000       0.503903000000000             
  0.000000000000000E+000  0.000000000000000E+000                                
  0.102700000000000       0.000000000000000E+000  0.383421000000000             
   1.00000000000000       0.000000000000000E+000                                
  2.526000000000000E-002  0.000000000000000E+000  0.000000000000000E+000        
  0.000000000000000E+000   1.00000000000000                                     
    3    3                                                                      
   1.40700000000000        1.00000000000000       0.000000000000000E+000        
  0.000000000000000E+000                                                        
  0.388000000000000       0.000000000000000E+000   1.00000000000000             
  0.000000000000000E+000                                                        
  0.102000000000000       0.000000000000000E+000  0.000000000000000E+000        
   1.00000000000000                                                             
    2    2                                                                      
   1.05700000000000        1.00000000000000       0.000000000000000E+000        
  0.247000000000000       0.000000000000000E+000   1.00000000000000             
FINISH                                                                          
 
********************************************************************************
 ONE- AND TWO-ELECTRON INTEGRALS OVER SYMMETRY-ADAPTED AOS ARE CALCULATED.

  SPHERICAL HARMONICS ARE USED.
  
  INTEGRALS LESS THAN  0.10E-13 ARE NEGLECTED.

  NUCLEAR REPULSION ENERGY :   35.5872035425 A.U.
  @MOLECU-I, ONE ELECTRON INTEGRALS (CPU/WALL):        0.04/       0.04 SECONDS.
  @TWOEL-I,     714149 INTEGRALS OF SYMMETRY TYPE  I I I I
  @TWOEL-I,    3082120 INTEGRALS OF SYMMETRY TYPE  I J I J
  @TWOEL-I,    1662357 INTEGRALS OF SYMMETRY TYPE  I I J J
  @TWOEL-I,    2655157 INTEGRALS OF SYMMETRY TYPE  I J K L
  @TWOEL-I, TOTAL NUMBER OF 2-E INTEGRALS    8113783.
  @MOLECU-I, TWO ELECTRON INTEGRALS (CPU/WALL):       42.08/       4.59 SECONDS.
 @CHECKOUT-I, Total execution time (CPU/WALL):       42.13/       4.65 seconds.

Running with 12 threads/proc

--executable xvmol finished with status     0 in        4.68 seconds (walltime).
 --invoking executable--
/home/tsommerfeld/zscale/bin/xvmol2ja
 @GETMEM-I,  Allocated   85830 MB of main memory.
 @CHECKOUT-I, Total execution time (CPU/WALL):        0.11/       0.02 seconds.
--executable xvmol2ja finished with status     0 in        0.05 seconds (walltime).
 --invoking executable--
/home/tsommerfeld/zscale/bin/xvscf
  There are  139 functions in the AO basis.

  There are 4 irreducible representations.

       Irrep        # of functions
         1                 45
         2                 39
         3                 29
         4                 26


  Parameters for SCF calculation: 
        SCF reference function:  RHF  
  Maximum number of iterations:  150
     Full symmetry point group: C2v 
     Computational point group: C2v 
        Initial density matrix: MOREAD                 
     SCF convergence tolerance: 10**(- 7)
  DIIS convergence acceleration:  ON
          Latest start for DIIS:   8
                     DIIS order:   6

  Memory information:     823082 words required.
  Fock matrices are constructed from AO integral file.
 @GETMEM-I,  Allocated       6 MB of main memory.
  Initialization and symmetry analysis required      0.002 seconds.

  @INITGES-I, Occupancies from core Hamiltonian:

          Alpha population by irrep:   4    3    1    1
           Beta population by irrep:   4    3    1    1


 total no. of electrons in initial guess :  0.000000000000000E+000
  --------------------------------------------------------------------
  Iteration         Total Energy            Largest Density Difference
  --------------------------------------------------------------------
       0            35.587203542471705              0.0000000000D+00
   current occupation vector 
     4  3  1  1
     4  3  1  1
       1           -51.847432716359272              0.8750909216D+01
   current occupation vector 
     4  3  1  1
     4  3  1  1
       2           -52.742755265968647              0.2936920144D+02
   current occupation vector 
     5  3  1  0
     5  3  1  0
       3           -68.369169241062224              0.2909800183D+02
   current occupation vector 
     4  3  1  1
     4  3  1  1
       4           -55.864150673607888              0.1172508863D+02
   current occupation vector 
     5  3  1  0
     5  3  1  0
       5           -69.441834766823632              0.1170718531D+02
   current occupation vector 
     4  3  1  1
     4  3  1  1
       6           -56.680503216307194              0.7707935892D+01
   current occupation vector 
     5  3  1  0
     5  3  1  0
       7           -69.721270371041186              0.7722165240D+01
   current occupation vector 
     4  3  1  1
     4  3  1  1
       8           -56.886541664246316              0.6781133263D+01
   current occupation vector 
     5  3  1  0
     5  3  1  0
       9           -74.492073519460916              0.6983235787D+01
   current occupation vector 
     4  3  1  1
     4  3  1  1
      10           -76.785902364224881              0.9185569603D+00
   current occupation vector 
     4  3  1  1
     4  3  1  1
      11           -78.420919498948678              0.1624426612D+01
   current occupation vector 
     5  2  1  1
     5  2  1  1
      12           -78.518367323997950              0.5683903153D+00
   current occupation vector 
     5  2  1  1
     5  2  1  1
      13           -78.541380765869548              0.1701713480D+00
   current occupation vector 
     5  2  1  1
     5  2  1  1
      14           -78.543142981713089              0.7322140426D-01
   current occupation vector 
     5  2  1  1
     5  2  1  1
      15           -78.543171421129301              0.1243887753D-01
   current occupation vector 
     5  2  1  1
     5  2  1  1
      16           -78.543172238800963              0.1952023732D-02
   current occupation vector 
     5  2  1  1
     5  2  1  1
      17           -78.543172256604379              0.2619245086D-03
   current occupation vector 
     5  2  1  1
     5  2  1  1
      18           -78.543172257609797              0.3889781437D-04
   current occupation vector 
     5  2  1  1
     5  2  1  1
      19           -78.543172257663969              0.5661596504D-05
   current occupation vector 
     5  2  1  1
     5  2  1  1
      20           -78.543172257667095              0.1996265863D-05
   current occupation vector 
     5  2  1  1
     5  2  1  1
      21           -78.543172257666953              0.9336057877D-06
   current occupation vector 
     5  2  1  1
     5  2  1  1
      22           -78.543172257667322              0.1075604865D-06
   current occupation vector 
     5  2  1  1
     5  2  1  1

  SCF has converged.

 Density matrix saved to file den.dat
 total electron number:   18.0000000000000     
     E(SCF)=       -78.543172257667010              0.1328412436D-07


  Final occupancies:

     Alpha population by irrep:   5    2    1    1
      Beta population by irrep:   5    2    1    1


  Eigenvector printing suppressed.

 @PUTMOS-I, Writing converged MOs to NEWMOS. 
 @PUTMOS-I, Symmetry   1 Full Blocks 11 Partial Blocksize   1
 @PUTMOS-I, Symmetry   2 Full Blocks  9 Partial Blocksize   3
 @PUTMOS-I, Symmetry   3 Full Blocks  7 Partial Blocksize   1
 @PUTMOS-I, Symmetry   4 Full Blocks  6 Partial Blocksize   2
 @PUTFOCK-I, Writing converged Fock matrix to NEWFOCK. 
 @PUTFOCK-I, Symmetry   1 Full Blocks 11 Partial Blocksize   1
 @PUTFOCK-I, Symmetry   2 Full Blocks  9 Partial Blocksize   3
 @PUTFOCK-I, Symmetry   3 Full Blocks  7 Partial Blocksize   1
 @PUTFOCK-I, Symmetry   4 Full Blocks  6 Partial Blocksize   2


 
  ORBITAL EIGENVALUES (ALPHA)  (1H = 27.2113834 eV)

       MO #        E(hartree)               E(eV)           FULLSYM    COMPSYM
       ----   --------------------   --------------------   -------   ---------
    1     1         -11.1064842738        -302.2228018000      A1        A1 (1)
    2    46         -11.1047197470        -302.1747865842      B1        B1 (2)
    3     2          -0.9172288261         -24.9590652519      A1        A1 (1)
    4    47          -0.6609340558         -17.9849299938      B1        B1 (2)
    5    85          -0.5398606937         -14.6903563175      B2        B2 (3)
    6     3          -0.4471525626         -12.1676398197      A1        A1 (1)
    7   114          -0.3963550263         -10.7853685832      A2        A2 (4)
    8     4          -0.2544091584          -6.9228251495      A1        A1 (1)
    9     5          -0.0426584169          -1.1607945375      A1        A1 (1)
  +++++++++++++++++++++++++++++++++++++++++++++++++++++++++++++++++++++++++++++
   10     6           0.2420025436           6.5852239989      A1        A1 (1)
   11    48           0.2754724068           7.4959852775      B1        B1 (2)
   12     7           0.2807966224           7.6408645483      A1        A1 (1)
   13    86           0.2940234037           8.0007835670      B2        B2 (3)
   14    49           0.3011508468           8.1947311542      B1        B1 (2)
   15   115           0.3462257823           9.4212825051      A2        A2 (4)
   16     8           0.4393766953          11.9560477138      A1        A1 (1)
   17    87           0.4508451880          12.2681212654      B2        B2 (3)
   18    50           0.4513195698          12.2810298500      B1        B1 (2)
   19    51           0.4680014212          12.7349661037      B1        B1 (2)
   20     9           0.4810361646          13.0896595047      A1        A1 (1)
   21    10           0.5731118475          15.5951662126      A1        A1 (1)
   22    88           0.5926437394          16.1266560131      B2        B2 (3)
   23    11           0.6707005537          18.2506899141      A1        A1 (1)
   24    52           0.6824986938          18.5717336260      B1        B1 (2)
   25    89           0.7119734962          19.3737837745      B2        B2 (3)
   26    53           0.7251737294          19.7329803828      B1        B1 (2)
   27    12           0.7379749324          20.0813188242      A1        A1 (1)
   28    54           0.7571130025          20.6020921893      B1        B1 (2)
   29    90           0.7892261254          21.4759346877      B2        B2 (3)
   30    13           0.8062549526          21.9393126334      A1        A1 (1)
   31   116           0.8090963016          22.0166296710      A2        A2 (4)
   32    55           0.9022966537          24.5527401835      B1        B1 (2)
   33   117           0.9473881536          25.7797422774      A2        A2 (4)
   34    14           1.0178059304          27.6959073983      A1        A1 (1)
   35   118           1.0225799373          27.8258147317      A2        A2 (4)
   36    91           1.0951391067          29.8002501090      B2        B2 (3)
   37    15           1.0997883422          29.9267622375      A1        A1 (1)
   38   119           1.1057855809          30.0899554006      A2        A2 (4)
   39    16           1.1078983588          30.1474470092      A1        A1 (1)
   40    56           1.1111586150          30.2361630908      B1        B1 (2)
   41    17           1.1301829266          30.7538409277      A1        A1 (1)
   42   120           1.1376812747          30.9578813524      A2        A2 (4)
   43    92           1.1690339485          31.8110309793      B2        B2 (3)
   44    57           1.3046579115          35.5015466346      B1        B1 (2)
   45    18           1.3059107184          35.5356372437      A1        A1 (1)
   46    93           1.3446493837          36.5897699180      B2        B2 (3)
   47    58           1.3535806973          36.8328033161      B1        B1 (2)
   48    19           1.3585309206          36.9675057416      A1        A1 (1)
   49    94           1.3748254085          37.4109012980      B2        B2 (3)
   50    20           1.4026405824          38.1677906592      A1        A1 (1)
   51    59           1.4412185245          39.2175498343      B1        B1 (2)
   52    95           1.4638269286          39.8327557844      B2        B2 (3)
   53    60           1.4904774701          40.5579538874      B1        B1 (2)
   54    96           1.5805680583          43.0094434247      B2        B2 (3)
   55    61           1.5956789813          43.4206325448      B1        B1 (2)
   56    21           1.6361619284          44.5222295384      A1        A1 (1)
   57    62           1.6675663289          45.3767867204      B1        B1 (2)
   58   121           1.7127879336          46.6073291442      A2        A2 (4)
   59   122           1.7565763593          47.7988727840      A2        A2 (4)
   60    63           1.9211643771          52.2775404386      B1        B1 (2)
   61    22           1.9727085462          53.6801285869      A1        A1 (1)
   62   123           2.0881474861          56.8213818391      A2        A2 (4)
   63    23           2.4355528449          66.2747622542      A1        A1 (1)
   64    24           2.5350049326          68.9809911415      A1        A1 (1)
   65    25           2.6695500250          72.6421492367      A1        A1 (1)
   66    64           2.6876688923          73.1351886796      B1        B1 (2)
   67    97           2.7480087287          74.7771191035      B2        B2 (3)
   68    98           2.8294265671          76.9926111204      B2        B2 (3)
   69    65           2.8628364833          77.9017411590      B1        B1 (2)
   70    26           2.8823986971          78.4340560598      A1        A1 (1)
   71   124           2.9616640638          80.5909763432      A2        A2 (4)
   72    27           2.9987276366          81.5995274324      A1        A1 (1)
   73    99           3.0357793877          82.6077568363      B2        B2 (3)
   74   125           3.1840596832          86.6426688091      A2        A2 (4)
   75    28           3.2218373945          87.6706525933      A1        A1 (1)
   76   100           3.2289998469          87.8655528324      B2        B2 (3)
   77    29           3.2359263597          88.0540328277      A1        A1 (1)
   78   101           3.2408023125          88.1867142479      B2        B2 (3)
   79   126           3.2729912579          89.0626199822      A2        A2 (4)
   80    30           3.3005501183          89.8125346993      A1        A1 (1)
   81    66           3.3535298470          91.2541864090      B1        B1 (2)
   82    67           3.3846578356          92.1012220412      B1        B1 (2)
   83   102           3.4571456280          94.0737151521      B2        B2 (3)
   84    68           3.5233669907          95.8756900441      B1        B1 (2)
   85   127           3.5471191581          96.5220193763      A2        A2 (4)
   86    69           3.5473103485          96.5272219315      B1        B1 (2)
   87   128           3.5658631928          97.0320704920      A2        A2 (4)
   88    70           3.5746102950          97.2700912420      B1        B1 (2)
   89    31           3.6727308592          99.9400875340      A1        A1 (1)
   90    32           3.6991614170         100.6592995760      A1        A1 (1)
   91   103           3.7604904580         102.3281476251      B2        B2 (3)
   92   104           3.8407823043         104.5129998371      B2        B2 (3)
   93   129           3.9348076851         107.0715605240      A2        A2 (4)
   94    71           3.9971993956         108.7693252786      B1        B1 (2)
   95   130           4.0305962195         109.6780990594      A2        A2 (4)
   96    72           4.0872408529         111.2194778952      B1        B1 (2)
   97   131           4.0960981599         111.4604974733      A2        A2 (4)
   98    33           4.1267255752         112.2939118140      A1        A1 (1)
   99   105           4.1302558123         112.3899744476      B2        B2 (3)
  100    34           4.1757604163         113.6282176742      A1        A1 (1)
  101    35           4.2205540289         114.8471138409      A1        A1 (1)
  102   132           4.2209186062         114.8570344933      A2        A2 (4)
  103   106           4.2226444365         114.9039967240      B2        B2 (3)
  104    73           4.2308006802         115.1259393976      B1        B1 (2)
  105    36           4.2389536330         115.3477925234      A1        A1 (1)
  106    74           4.3034351603         117.1024240830      B1        B1 (2)
  107   133           4.3100272784         117.2818047357      A2        A2 (4)
  108   107           4.3207827568         117.5744761824      B2        B2 (3)
  109    37           4.3217780097         117.6015583914      A1        A1 (1)
  110    38           4.4471356353         121.0127128048      A1        A1 (1)
  111   108           4.4509272243         121.1158871853      B2        B2 (3)
  112    75           4.4515060424         121.1316376266      B1        B1 (2)
  113    76           4.4752628345         121.7780928046      B1        B1 (2)
  114    39           4.4923766931         122.2437845739      A1        A1 (1)
  115   109           4.5878954609         124.8429823869      B2        B2 (3)
  116    77           4.6238230740         125.8206224396      B1        B1 (2)
  117   134           4.7258010723         128.5955848504      A2        A2 (4)
  118    40           4.7626187830         129.5974456934      A1        A1 (1)
  119    78           4.8794362863         132.7762115619      B1        B1 (2)
  120    79           4.9356996998         134.3072168785      B1        B1 (2)
  121    41           5.0482004787         137.3685187068      A1        A1 (1)
  122    42           5.0974548318         138.7087977917      A1        A1 (1)
  123   135           5.1463092908         140.0381952068      A2        A2 (4)
  124   110           5.2461511203         142.7550295077      B2        B2 (3)
  125   111           5.3364308533         145.2116659359      B2        B2 (3)
  126    43           5.4210315240         147.5137672228      A1        A1 (1)
  127    80           5.4231126382         147.5703972196      B1        B1 (2)
  128   136           5.5464109560         150.9255150188      A2        A2 (4)
  129   137           5.5609961517         151.3223983699      A2        A2 (4)
  130    81           5.6574615566         153.9473554868      B1        B1 (2)
  131    44           5.6888999985         154.8028389835      A1        A1 (1)
  132   112           5.7391065471         156.1690286268      B2        B2 (3)
  133    82           6.0780011433         165.3908194158      B1        B1 (2)
  134   138           6.2115828249         169.0257617698      A2        A2 (4)
  135   113           6.3899450717         173.8792452523      B2        B2 (3)
  136    83           6.6298512415         180.4074240169      B1        B1 (2)
  137   139           6.9926015880         190.2783627758      A2        A2 (4)
  138    45          12.1154833122         329.6790614837      A1        A1 (1)
  139    84          14.8844655745         405.0268994511      B1        B1 (2)


  VSCF finished.

 @CHECKOUT-I, Total execution time (CPU/WALL):       22.57/       1.90 seconds.
--executable xvscf finished with status     0 in        1.92 seconds (walltime).
 --invoking executable--
/home/tsommerfeld/zscale/bin/xvtran
 @GETMEM-I,  Allocated   85830 MB of main memory.
  Full RHF integral transformation
  Transformation of IIII integrals :
  1 pass through the AO integral file was required.
      714149 AO integrals were read.
      997326 MO integrals were written to HF2.
  Transformation of IIJJ integrals :
  1 pass through the AO integral file was required.
     1662357 AO integrals were read.
     2386575 MO integrals were written to HF2.
  Transformation of IJIJ integrals :
  1 pass through the AO integral file was required.
     3082120 AO integrals were read.
     4517476 MO integrals were written to HF2.
  Transformation of IJKL integrals :
  1 pass through the AO integral file was required.
     2655157 AO integrals were read.
     3969810 MO integrals were written to HF2.
  Summary of active molecular orbitals: 
------------------------------------------------------------------------
 
  Index      Eigenvalue    Symmetry    Index      Eigenvalue    Symmetry
------------------------------------------------------------------------
     1       -11.1064843        1        71         3.5473103        2
     2        -0.9172288        1        72         3.5746103        2
     3        -0.4471526        1        73         3.9971994        2
     4        -0.2544092        1        74         4.0872409        2
     5        -0.0426584        1        75         4.2308007        2
     6       -11.1047197        2        76         4.3034352        2
     7        -0.6609341        2        77         4.4515060        2
     8        -0.5398607        3        78         4.4752628        2
     9        -0.3963550        4        79         4.6238231        2
    10         0.2420025        1        80         4.8794363        2
    11         0.2807966        1        81         4.9356997        2
    12         0.4393767        1        82         5.4231126        2
    13         0.4810362        1        83         5.6574616        2
    14         0.5731118        1        84         6.0780011        2
    15         0.6707006        1        85         6.6298512        2
    16         0.7379749        1        86        14.8844656        2
    17         0.8062550        1        87         0.2940234        3
    18         1.0178059        1        88         0.4508452        3
    19         1.0997883        1        89         0.5926437        3
    20         1.1078984        1        90         0.7119735        3
    21         1.1301829        1        91         0.7892261        3
    22         1.3059107        1        92         1.0951391        3
    23         1.3585309        1        93         1.1690339        3
    24         1.4026406        1        94         1.3446494        3
    25         1.6361619        1        95         1.3748254        3
    26         1.9727085        1        96         1.4638269        3
    27         2.4355528        1        97         1.5805681        3
    28         2.5350049        1        98         2.7480087        3
    29         2.6695500        1        99         2.8294266        3
    30         2.8823987        1       100         3.0357794        3
    31         2.9987276        1       101         3.2289998        3
    32         3.2218374        1       102         3.2408023        3
    33         3.2359264        1       103         3.4571456        3
    34         3.3005501        1       104         3.7604905        3
    35         3.6727309        1       105         3.8407823        3
    36         3.6991614        1       106         4.1302558        3
    37         4.1267256        1       107         4.2226444        3
    38         4.1757604        1       108         4.3207828        3
    39         4.2205540        1       109         4.4509272        3
    40         4.2389536        1       110         4.5878955        3
    41         4.3217780        1       111         5.2461511        3
    42         4.4471356        1       112         5.3364309        3
    43         4.4923767        1       113         5.7391065        3
    44         4.7626188        1       114         6.3899451        3
    45         5.0482005        1       115         0.3462258        4
    46         5.0974548        1       116         0.8090963        4
    47         5.4210315        1       117         0.9473882        4
    48         5.6889000        1       118         1.0225799        4
    49        12.1154833        1       119         1.1057856        4
    50         0.2754724        2       120         1.1376813        4
    51         0.3011508        2       121         1.7127879        4
    52         0.4513196        2       122         1.7565764        4
    53         0.4680014        2       123         2.0881475        4
    54         0.6824987        2       124         2.9616641        4
    55         0.7251737        2       125         3.1840597        4
    56         0.7571130        2       126         3.2729913        4
    57         0.9022967        2       127         3.5471192        4
    58         1.1111586        2       128         3.5658632        4
    59         1.3046579        2       129         3.9348077        4
    60         1.3535807        2       130         4.0305962        4
    61         1.4412185        2       131         4.0960982        4
    62         1.4904775        2       132         4.2209186        4
    63         1.5956790        2       133         4.3100273        4
    64         1.6675663        2       134         4.7258011        4
    65         1.9211644        2       135         5.1463093        4
    66         2.6876689        2       136         5.5464110        4
    67         2.8628365        2       137         5.5609962        4
    68         3.3535298        2       138         6.2115828        4
    69         3.3846578        2       139         6.9926016        4
    70         3.5233670        2
------------------------------------------------------------------------
  -11.1064842737828      -0.917228826077580      -0.447152562617054     
 -0.254409158393472      -4.265841689950117E-002  -11.1047197469650     
 -0.660934055775122      -0.539860693650181      -0.396355026301440     
  0.242002543646820       0.280796622353469       0.439376695335745     
  0.481036164617781       0.573111847468736       0.670700553728214     
  0.737974932366184       0.806254952603715        1.01780593037676     
   1.09978834216568        1.10789835878931        1.13018292659516     
   1.30591071836790        1.35853092061305        1.40264058236760     
   1.63616192840825        1.97270854619291        2.43555284492621     
   2.53500493258690        2.66955002503616        2.88239869714945     
   2.99872763662632        3.22183739446632        3.23592635969135     
   3.30055011827626        3.67273085917552        3.69916141698314     
   4.12672557522355        4.17576041629124        4.22055402890154     
   4.23895363303671        4.32177800969268        4.44713563533259     
   4.49237669312820        4.76261878304200        5.04820047873088     
   5.09745483177903        5.42103152399255        5.68889999850223     
   12.1154833121681       0.275472406799118       0.301150846824572     
  0.451319569810517       0.468001421189405       0.682498693765364     
  0.725173729419707       0.757113002540435       0.902296653667447     
   1.11115861499375        1.30465791146122        1.35358069726389     
   1.44121852453562        1.49047747008126        1.59567898134824     
   1.66756632889005        1.92116437705851        2.68766889226401     
   2.86283648331426        3.35352984696047        3.38465783555729     
   3.52336699074724        3.54731034848682        3.57461029496973     
   3.99719939555157        4.08724085285612        4.23080068019007     
   4.30343516026314        4.45150604237936        4.47526283447334     
   4.62382307397153        4.87943628628134        4.93569969979903     
   5.42311263820493        5.65746155657865        6.07800114329475     
   6.62985124147938        14.8844655744720       0.294023403712128     
  0.450845188023807       0.592643739423550       0.711973496153471     
  0.789226125404563        1.09513910671055        1.16903394846648     
   1.34464938368239        1.37482540847104        1.46382692856365     
   1.58056805831804        2.74800872871122        2.82942656713158     
   3.03577938769042        3.22899984689580        3.24080231245924     
   3.45714562796072        3.76049045801413        3.84078230425728     
   4.13025581226292        4.22264443651829        4.32078275676475     
   4.45092722427735        4.58789546094552        5.24615112025913     
   5.33643085327095        5.73910654710914        6.38994507174815     
  0.346225782299851       0.809096301625128       0.947388153642444     
   1.02257993732568        1.10578558091849        1.13768127468424     
   1.71278793360446        1.75657635928989        2.08814748606488     
   2.96166406384094        3.18405968323808        3.27299125785061     
   3.54711915809142        3.56586319282704        3.93480768507917     
   4.03059621950083        4.09609815990821        4.22091860619212     
   4.31002727835077        4.72580107229851        5.14630929079565     
   5.54641095604133        5.56099615170086        6.21158282492144     
   6.99260158804828     
 @CHECKOUT-I, Total execution time (CPU/WALL):       17.61/       2.54 seconds.
--executable xvtran finished with status     0 in        2.56 seconds (walltime).
 --invoking executable--
/home/tsommerfeld/zscale/bin/xintprc
 @GETMEM-I,  Allocated   85830 MB of main memory.
  @GMOIAA-I, Processing MO integrals for spin case AA.
  @GMOIAA-I, Generation of integral list completed.
                      TYPE                NUMBER
                      ----               --------
                      PPPP               9084376
                      PPPH               2501601
                      PPHH                173538
                      PHPH                 97627
                      PHHH                 13713
                      HHHH                   332

                     TOTAL              11871187

  @FORMT2-I, Second-order MP correlation energies:
            ------------------------------------------------
            E(SCF)                  =    -78.543172257667 a.u.
            E2(AA)                  =     -0.038202702065 a.u.
            E2(AB)                  =     -0.320176372117 a.u.
            E2(TOT)                 =     -0.396581776247 a.u.
            Total MP2 energy        =    -78.939754033915 a.u.
            ------------------------------------------------
   Largest T2 amplitudes for spin case AB:
       _       _                 _       _                 _       _
   i   j   a   b             i   j   a   b             i   j   a   b
-----------------------------------------------------------------------------
[  4   4  50  50]-0.08097 [  5   5  10  10]-0.06810 [  5   5  88  88]-0.04041
[  5   5  17  17]-0.03832 [  5   5  52  52]-0.03821 [  5   5  10  17] 0.03427
[  5   5  17  10] 0.03427 [  4   4  54  50]-0.03280 [  4   4  50  54]-0.03280
[  5   5  12  12]-0.03131 [  4   4  14  14]-0.02954 [  5   5  11  10] 0.02744
[  5   5  10  11] 0.02744 [  4   3  50  57] 0.02622 [  3   4  57  50] 0.02622
-----------------------------------------------------------------------------
   Norm of T2AB vector (   345906 symmetry allowed elements):  0.3326715116.
-----------------------------------------------------------------------------
 @CHECKOUT-I, Total execution time (CPU/WALL):        5.60/       2.75 seconds.
--executable xintprc finished with status     0 in        2.78 seconds (walltime).
  calling xvcc 
 --invoking executable--
/home/tsommerfeld/zscale/bin/xvcc
 @GETMEM-I,  Allocated   85830 MB of main memory.
   CCSD(T) energy will be calculated.
   The total correlation energy is -0.396581776247 a.u.
   The total correlation energy is -0.416221865294 a.u.
  Convergence information after     1 iterations: 
  Largest element of residual vector : -0.22676871E-01.
  Largest element of DIIS residual   : -0.22676871E-01.
   The total correlation energy is -0.427365450826 a.u.
  Convergence information after     2 iterations: 
  Largest element of residual vector : -0.11370481E-01.
  Largest element of DIIS residual   : -0.10468728E-01.
   The total correlation energy is -0.430213874626 a.u.
  Convergence information after     3 iterations: 
  Largest element of residual vector : -0.58735705E-02.
  Largest element of DIIS residual   :  0.57017236E-02.
   The total correlation energy is -0.431824576361 a.u.
  Convergence information after     4 iterations: 
  Largest element of residual vector :  0.32733279E-02.
  Largest element of DIIS residual   : -0.20240315E-02.
   The total correlation energy is -0.431993023312 a.u.
  Convergence information after     5 iterations: 
  Largest element of residual vector :  0.11917466E-02.
  Largest element of DIIS residual   :  0.56380744E-03.
   The total correlation energy is -0.431998910541 a.u.
  Convergence information after     6 iterations: 
  Largest element of residual vector : -0.33037096E-03.
  Largest element of DIIS residual   :  0.25984250E-03.
   The total correlation energy is -0.431993323941 a.u.
  Convergence information after     7 iterations: 
  Largest element of residual vector :  0.14545201E-03.
  Largest element of DIIS residual   :  0.79723303E-04.
   The total correlation energy is -0.431985259350 a.u.
  Convergence information after     8 iterations: 
  Largest element of residual vector :  0.49950763E-04.
  Largest element of DIIS residual   :  0.30455848E-04.
   The total correlation energy is -0.431985414574 a.u.
  Convergence information after     9 iterations: 
  Largest element of residual vector : -0.17051944E-04.
  Largest element of DIIS residual   : -0.14602751E-04.
   The total correlation energy is -0.431986016528 a.u.
  Convergence information after    10 iterations: 
  Largest element of residual vector :  0.70275253E-05.
  Largest element of DIIS residual   : -0.77662558E-05.
   The total correlation energy is -0.431986870500 a.u.
  Convergence information after    11 iterations: 
  Largest element of residual vector :  0.50814080E-05.
  Largest element of DIIS residual   :  0.50934085E-05.
   The total correlation energy is -0.431987394673 a.u.
  Convergence information after    12 iterations: 
  Largest element of residual vector :  0.30142212E-05.
  Largest element of DIIS residual   : -0.22145197E-05.
   The total correlation energy is -0.431987723186 a.u.
  Convergence information after    13 iterations: 
  Largest element of residual vector :  0.17450524E-05.
  Largest element of DIIS residual   :  0.10176623E-05.
   The total correlation energy is -0.431987827705 a.u.
  Convergence information after    14 iterations: 
  Largest element of residual vector :  0.58463484E-06.
  Largest element of DIIS residual   : -0.39490604E-06.
   The total correlation energy is -0.431987816370 a.u.
  Convergence information after    15 iterations: 
  Largest element of residual vector :  0.28489462E-06.
  Largest element of DIIS residual   :  0.17489171E-06.
   The total correlation energy is -0.431987803142 a.u.
  Convergence information after    16 iterations: 
  Largest element of residual vector :  0.99481904E-07.
  Largest element of DIIS residual   :  0.53988250E-07.
  Amplitude equations converged in    16iterations.
   The total correlation energy is -0.431987794685 a.u.
   The CC iterations have converged.

   Largest T1 amplitudes for spin case AA:
   i       a                 i       a                 i       a    
-----------------------------------------------------------------------------
[  5      10    ] 0.02977 [  4      14    ] 0.01848 [  5      17    ] 0.01431
[  4      18    ]-0.01386 [  4      15    ]-0.00988 [  4      22    ]-0.00890
[  4      12    ] 0.00817 [  4      28    ]-0.00810 [  8      89    ]-0.00801
[  4      21    ]-0.00752 [  8      90    ] 0.00622 [  4      13    ]-0.00550
[  3      13    ] 0.00499 [  5      31    ] 0.00479 [  4      27    ] 0.00456
-----------------------------------------------------------------------------
   Norm of T1AA vector (      327 symmetry allowed elements):  0.0502760434.
-----------------------------------------------------------------------------
   Largest T2 amplitudes for spin case AB:
       _       _                 _       _                 _       _
   i   j   a   b             i   j   a   b             i   j   a   b
-----------------------------------------------------------------------------
[  5   5  10  10]-0.12362 [  4   4  50  50]-0.11365 [  5   5  17  10] 0.06836
[  5   5  10  17] 0.06836 [  5   5  88  88]-0.05344 [  5   5  17  17]-0.05095
[  5   5  52  52]-0.05039 [  5   5  11  10] 0.04940 [  5   5  10  11] 0.04940
[  4   4  54  50]-0.04562 [  4   4  50  54]-0.04562 [  5   5  12  12]-0.04104
[  5   5  15  10]-0.02933 [  5   5  10  15]-0.02933 [  5   5  17  11]-0.02723
-----------------------------------------------------------------------------
   Norm of T2AB vector (   345906 symmetry allowed elements):  0.4165773747.
-----------------------------------------------------------------------------
       Summary of iterative solution of CC equations 
      -----------------------------------------------------------
                       Correlation           Total
       Iteration         Energy              Energy
      -----------------------------------------------------------
            0        -0.396581776247     -78.939754033915  DIIS 
            1        -0.416221865294     -78.959394122961  DIIS 
            2        -0.427365450826     -78.970537708493  DIIS 
            3        -0.430213874626     -78.973386132293  DIIS 
            4        -0.431824576361     -78.974996834028  DIIS 
            5        -0.431993023312     -78.975165280979  DIIS 
            6        -0.431998910541     -78.975171168208  DIIS 
            7        -0.431993323941     -78.975165581608  DIIS 
            8        -0.431985259350     -78.975157517017  DIIS 
            9        -0.431985414574     -78.975157672241  DIIS 
           10        -0.431986016528     -78.975158274195  DIIS 
           11        -0.431986870500     -78.975159128167  DIIS 
           12        -0.431987394673     -78.975159652340  DIIS 
           13        -0.431987723186     -78.975159980853  DIIS 
           14        -0.431987827705     -78.975160085372  DIIS 
           15        -0.431987816370     -78.975160074037  DIIS 
           16        -0.431987794685     -78.975160052352  DIIS 
      -----------------------------------------------------------
      A miracle has come to pass. The CC iterations have converged.
        E(CCSD)           =     -78.975160052352
        E(CCSD + T(CCSD)) =     -78.991285267902
        E(CCSD(T))        =     -78.990852296334
 @CHECKOUT-I, Total execution time (CPU/WALL):      201.55/      16.81 seconds.
--executable xvcc finished with status     0 in       16.84 seconds (walltime).
  The final electronic energy is       -78.990852296333500 a.u. 
  This computation required                           29.02 seconds (walltime).
