CFour on node02
 --invoking executable--
/home/tsommerfeld/zscale/bin/xjoda


   *************************************************************************
         <<<     CCCCCC     CCCCCC   |||     CCCCCC     CCCCCC   >>>
       <<<      CCC        CCC       |||    CCC        CCC         >>>
      <<<      CCC        CCC        |||   CCC        CCC            >>>
    <<<        CCC        CCC        |||   CCC        CCC              >>>
      <<<      CCC        CCC        |||   CCC        CCC            >>>
       <<<      CCC        CCC       |||    CCC        CCC         >>>
         <<<     CCCCCC     CCCCCC   |||     CCCCCC     CCCCCC   >>>
   *************************************************************************

     ****************************************************************
     * CFOUR Coupled-Cluster techniques for Computational Chemistry *
     ****************************************************************
 

   Department of Chemistry                Institut fuer Physikalische Chemie
   University of Florida                  Universitaet Mainz
   Gainesville, FL 32611, USA             D-55099 Mainz, Germany

   Department of Chemistry                Department of Chemistry
   Johns Hopkins University               Southern Methodist University
   Baltimore, MD 21218, USA               Dallas, TX 75275, USA

   Institute of Nanotechnology            Department of Physical Chemistry
   Karlsruhe Inst. of Technology          Eotvos Lorand University
   D-76021 Karlsruhe, Germany             H-1053 Budapest, Hungary

 
                       Version 2.1
 
                     node02                                            
                     Tue Mar 29 16:07:57 CST 2022                      
                     integer*8 version is running
 
********************************************************************************
*                          Input from ZMAT file                                *
********************************************************************************
h_ethylene                                                                      
C       0.000000      0.0   -0.664500                                           
C       0.000000      0.0    0.664500                                           
H       0.962348      0.0   -1.159080                                           
H       0.962348      0.0    1.159080                                           
H      -0.962348      0.0   -1.159080                                           
H      -0.962348      0.0    1.159080                                           
H      0.000000      4.5      0.000000                                          
                                                                                
*CFOUR(CALC=CCSD                                                                
EXCITE=EOMEE                                                                    
ESTATE_SYM=0/3/0/0                                                              
CC_PROG=VCC                                                                     
CHARGE=-1                                                                       
COORDINATES=CARTESIAN                                                           
BASIS=SPECIAL                                                                   
REFERENCE=RHF                                                                   
MEM_SIZE=90,MEM_UNIT=GB)                                                        
                                                                                
C:CC-PVDZ                                                                       
C:CC-PVDZ                                                                       
H:CC-PVDZ                                                                       
H:CC-PVDZ                                                                       
H:CC-PVDZ                                                                       
H:CC-PVDZ                                                                       
H:AUG-CC-PVDZ                                                                   
                                                                                
********************************************************************************
    -------------------------------------------------------------------
                    CFOUR Control Parameters 
    -------------------------------------------------------------------
        External           Internal           Value            Units
          Name               Name
    -------------------------------------------------------------------
       ABCDTYPE             IABCDT         STANDARD    [  0]    ***   
       ANHARMONIC           IANHAR         OFF         [  0]    ***   
       ANH_ALGORIT          IANALG         STANDARD    [  0]    ***   
       ANH_DERIVAT          IANDER         SECOND      [  1]    ***   
       ANH_MODE             ANHMOD         VIBRATION   [  0]    ***   
       ANH_STEPSIZ          ICUBST             50000          x 10-6  
       ANH_SYMMETR          IANHSM         ABELIAN     [  0]    ***   
       AO_LADDERS           IAOLAD         SINGLEPASS  [  1]    ***   
       AV_SCF               IAVSCF         OFF         [  0]    ***   
       BASIS                IBASIS         SPECIAL     [  0]    ***   
       BOTHVECTORS          BOTHVC         OFF         [  0]    ***   
       BOX_POTENT           IPIAB          OFF         [  0]    ***   
       BREIT                IBREIT         OFF         [  0]    ***   
       BRUCK_CONV           IBRTOL          10D-  4             ***   
       BRUECKNER            IBRKNR         OFF         [  0]    ***   
       BUFFERSIZE           IBUFFS              4096            ***   
       CACHE_RECS           ICHREC             10               ***   
       CALCLEVEL            ICLLVL         CCSD        [ 10]    ***   
       CCORBOPT             ICCORB         OFF         [  0]  x 0.01  
       CC_CONV              ICCCNV          10D-  7             ***   
       CC_EXPORDER          ICCEOR              5               ***   
       CC_EXTRAPOL          ICCEXT         DIIS        [  1]    ***   
       CC_GUESS             ICCGES         MP2         [  0]    ***   
       CC_MAXCYC            ICCCYC            100              cycles 
       CC_PROGRAM           ICCPRO         VCC         [  0]    ***   
       CHARGE               ICHRGE             -1               ***   
       CHOLESKY             ICHOLE         OFF         [  0]    ***   
       CIS_CONV             ICISTL              5               ***   
       COMM_SIZE            IPSIZE            ***               ***   
       CONSTANT             ICONST         OLD         [  1]    ***   
       CONTINUUM            ICONTU         NONE        [  0]    ***   
       CONTRACTION          ICNTYP         GENERAL     [  1]    ***   
       COORDINATES          ICOORD         CARTESIAN   [  1]    ***   
       CPHF_CONVER          ICPHFT          10D- 16             ***   
       CPHF_MAXCYC          ICPHFC             64              cycles 
       CUBIC                ICUBIC         OFF         [  0]    ***   
       CURVILINEAR          ICURVY         OFF         [  0]    ***   
       DBOC                 IDBOC          OFF         [  0]    ***   
       DCT                  IDCT           OFF         [  0]    ***   
       DERIV_LEV            IDRLVL         ZERO        [  0]    ***   
       DEVMEM_SIZE          IDVMEM         *********           MByte  
       DIAG_MRCC            IEOMST          10D-  0             ***   
       DIFF_TYPE            IDIFTY         RELAXED     [  0]    ***   
       DIRECT               IDIRCT         OFF         [  0]    ***   
       DROPMO               IDRPMO      NONE         
       ECP                  IECP           OFF         [  0]    ***   
       EIGENVECTOR          IVEC                1               ***   
       EL_ANHARM            IELANH         OFF         [  0]    ***   
       EOMFOLLOW            IEOMSR         ENERGY      [  0]    ***   
       EOMIP                IEOMIP         OFF         [  0]    ***   
       EOMLEVEL             HBARFM         SAME        [  0]    ***   
       EOM_MRCC             IMRCCE         NEW         [  1]    ***   
       EOM_NONIT            EOMNON         OFF         [  0]    ***   
       EOM_NSING            IEOMSI          10D-  0             ***   
       EOM_NSTATES          IMRCCD         DAVIDSON    [  0]    ***   
       EOM_NTRIP            IEOMTR          10D-  0             ***   
       EOM_ORDER            IEXORD         ENERGY      [  0]    ***   
       EOM_PROPSTA          IEOMST              0               ***   
       ESTATE_CONV          IEXTOL          10D-  5             ***   
       ESTATE_DIAG          IEXDIG         ITERATIVE   [  0]    ***   
       ESTATE_LOCK          IESLOC         ON          [  1]    ***   
       ESTATE_MAXC          IEXMXC             40               ***   
       ESTATE_PROP          IEXPRP         OFF         [  0]    ***   
       ESTATE_SYM           IEXSYM   0,  3,  0,  0,
       EVAL_HESS            IRECAL              0            # of cyc.
       EXCITATION           IEXCIT              0               ***   
       EXCITE               IEXCIT         EOMEE       [  3]    ***   
       EXTERN_POT           IEXPOT         OFF         [  0]    ***   
       FCGRADNEW            IFCGNW         OFF         [  0]    ***   
       FC_FIELD             IFINFC              0             x 10-6  
       FD_CALTYPE           IFDCAL         GRADONLY    [  0]    ***   
       FD_PROJECT           IFDPRJ         OFF         [  1]    ***   
       FD_STEPSIZE          IDISFD              0            10-4 bohr
       FD_USEGROUP          IFDGRP         FULL        [  0]    ***   
       FILE_RECSIZ          IFLREC              4096           words  
       FINITE_PERT          IFIPER              0             x 10-6  
       FIXGEOM              IFIXGM         OFF         [  0]    ***   
       FOCK                 IFOCK          AO          [  1]    ***   
       FREQ_ALGORI          IVIALG         STANDARD    [  0]    ***   
       FROZEN_CORE          IFROCO         OFF         [  0]    ***   
       GAMMA_ABCD           IGABCD         STORE       [  0]    ***   
       GAMMA_ABCI           IGABCI         STORE       [  0]    ***   
       GENBAS_1             IGNBS1              0               ***   
       GENBAS_2             IGNBS2              0               ***   
       GENBAS_3             IGNBS3              0               ***   
       GENBAS_4             IGNBS4              0               ***   
       GEO_CONV             ICONTL              5              H/bohr 
       GEO_MAXCYC           IOPTCY             50               ***   
       GEO_MAXSTEP          IMXSTP            300            millibohr
       GEO_METHOD           INR            SINGLE_POINT[  5]    ***   
       GIAO                 IGIAO          OFF         [  1]    ***   
       GIMIC                IGIMIC         OFF         [  0]    ***   
       GRID                 IGRID          OFF         [  0]    ***   
       GRID_ALGO            IGALGO         SERIAL      [  0]    ***   
       GUESS                IGUESS         MOREAD      [  0]    ***   
       HBAR                 IHBAR          ON          [  1]    ***   
       HESS_TYPE            IHESTP         SCF         [  0]    ***   
       HF2_FILE             IHF2Fl         USE         [  1]    ***   
       HFSTABILITY          ISTABL         OFF         [  0]    ***   
       INCORE               INCORE         OFF         [  0]    ***   
       INPUT_MRCC           IMRCC          ON          [  1]    ***   
       INTEGRALS            INTTYP         VMOL        [  1]    ***   
       JODA_PRINT           IJPRNT              0               ***   
       KEYWORD_OUT          IDMPKW         NO          [  0]    ***   
       LINDEP_TOL           ILINDP              8               ***   
       LINEQ_CONV           IZTACN          10D-  7           cycles  
       LINEQ_EXPOR          ILMAXD              5               ***   
       LINEQ_MAXCY          ILMAXC            100               ***   
       LINEQ_TYPE           ILTYPE         DIIS        [  1]    ***   
       LOCK_ORBOCC          ILOCOC         OFF         [  0]    ***   
       MEMORY_SIZE          IMEMSZ         *********           words  
       MEM_UNIT             IMEMU          GB          [  3]    ***   
       MRCC                 IMRCCC         OFF         [  0]    ***   
       MULTIPLICTY          IMULTP              1               ***   
       NACOUPLING           IVCOUP         OFF         [  0]    ***   
       NEGEVAL              IDIE           ABORT       [  0]    ***   
       NEWNORM              INEWNO         OFF         [  0]    ***   
       NON-HF               INONHF         OFF         [  0]    ***   
       NTOP_TAMP            ITOPT2             15               ***   
       NUC_MODEL            INUCMO         POINT       [  0]    ***   
       OCCUPATION           IOCCU   ESTIMATED BY SCF 
       OPEN-SHELL           IOPEN          SPIN-ORBITAL[  0]    ***   
       OPTVIB               IOPTVB         OFF         [  0]    ***   
       ORBITALS             IORBTP         STANDARD    [  0]    ***   
       PARALLEL             IPARAL         ON          [  1]    ***   
       PARA_INT             IPINTS         ON          [  1]    ***   
       PARA_PRINT           IPPRIN              0               ***   
       PERT_ORB             IPTORB         STANDARD    [  0]    ***   
       POINTS               IGRDFD              0               ***   
       PRINT                IPRNT               0               ***   
       PROPS                IPROPS         OFF         [  0]    ***   
       PROP_INTEGR          IINTYP         INTERNAL    [  0]    ***   
       PSI                  IPSI           OFF         [  0]    ***   
       QC_ALG               IQCALG         FLM         [  0]    ***   
       QC_LINALG            IQCLIN         TRIDIAG     [  2]    ***   
       QC_MAXCYC            IQCMAX          10D-100           cycles  
       QC_MAXSCFCY          IQCMSC          10D- 15           cycles  
       QC_RTRUST            IQCRTR          10D-  0           x 10-3  
       QC_SKIPSCF           IQCSKI         OFF         [  0]    ***   
       QC_START             IQCSTA          10D-  1             ***   
       QRHFGUESS            IQGUES         OFF         [  0]    ***   
       QUARTIC              IQUART         OFF         [  0]    ***   
       RAMAN_INT            IRAMIN         OFF         [  0]    ***   
       RAMAN_ORB            IRAMRE         UNRELAXED   [  0]    ***   
       RDO                  IRDOFM         OFF         [  0]    ***   
       REDUCE_REPR          REDREP         Ir          [  0]    ***   
       REFERENCE            IREFNC         RHF         [  0]    ***   
       RELATIVIST           IRELAT         OFF         [  0]    ***   
       RELAX_DENS           IRDENS         OFF         [  0]    ***   
       RESET_FLAGS          IRESET         OFF         [  0]    ***   
       RESTART_CC           ICCRES         OFF         [  0]    ***   
       ROT_EVEC             ROTVEC              0               ***   
       SAVE_INTS            ISVINT         OFF         [  0]    ***   
       SCALE_ON             ISTCRT              0               ***   
       SCF_CONV             ISCFCV          10D-  7             ***   
       SCF_DAMPING          IDAMP               0             x 10-3  
       SCF_EXPORDE          IRPPOR              6               ***   
       SCF_EXPSTAR          IRPPLS              8               ***   
       SCF_EXTRAPO          IRPP           ON          [  1]    ***   
       SCF_MAXCYC           ISCFCY            150              cycles 
       SCF_NOSTOP           ISCFST         OFF         [  0]    ***   
       SCF_PRINT            ISCFPR              0               ***   
       SCF_PROG             ISCFPR         SCF         [  0]    ***   
       SD_FIELD             IFINSD              0             x 10-6  
       SOPERT               IPERSO         OFF         [  0]    ***   
       SPHERICAL            IDFGHI         ON          [  1]    ***   
       SPINORBIT            ISOCAL         OFF         [  0]    ***   
       SPINROTATIO          ISRCON         OFF         [  0]    ***   
       SPIN_FLIP            ISPFLP         OFF         [  0]    ***   
       SPIN_ORBIT           ISPORB         OFF         [  0]    ***   
       SPIN_SCAL            ISCSMP         OFF         [  0]    ***   
       STEEPSCALE           ISTPSC              1000          x 10-3  
       SUBGROUP             ISUBGP         DEFAULT     [  0]    ***   
       SUBGRPAXIS           ISBXYZ         X           [  0]    ***   
       SYMMETRY             ISYM           ON          [  0]    ***   
       SYM_CHECK            ISYMCK         OVERRIDE    [  1]    ***   
       T3_EXTRAPOL          IT3EXT         OFF         [  0]    ***   
       T4_EXTRAPOL          IT4EXP         OFF         [  0]    ***   
       TAMP_SUM             IEVERY              5               ***   
       TESTSUITE            ITESTS         OFF         [  0]    ***   
       THERMOCH             ITHERM         OFF         [  0]    ***   
       TOL_CHOLESK          ITOLCH          10D-  4             ***   
       TRANGRAD             IRESRM         OFF         [  0]    ***   
       TRANS_INV            ITRAIN         USE         [  0]    ***   
       TREAT_PERT           ITREAT         SIMULTANEOUS[  0]    ***   
       TRIP_ALGORI          ITRALG         NORMAL      [  0]    ***   
       UIJ_THRESHO          IUIJTH              1               ***   
       UNITS                IUNITS         ANGSTROM    [  0]    ***   
       UNOS                 IUNOS          OFF         [  0]    ***   
       UPDATE_HESS          IHUPDT         ON          [  1]    ***   
       VIBPHASE             ISETPH         STANDARD    [  0]    ***   
       VIBRATION            IVIB           NO          [  0]    ***   
       VIB_ALGORIT          IGEALG         STANDARD    [  0]    ***   
       VNATORB              IVNORB         OFF         [  0]    ***   
       VTRAN                IVTRAN         FULL/PARTIAL[  0]    ***   
       XFIELD               IXEFLD              0             x 10-6  
       XFORM_TOL            IXFTOL          10D- 11             ***   
       YFIELD               IYEFLD              0             x 10-6  
       ZFIELD               IZEFLD              0             x 10-6  
       ZSCALE_EXP           IZEXPS         OFF         [  0]    ***   
    -------------------------------------------------------------------
  @GETXYZ-I,     7 atoms read from ZMAT.
   Rotational constants (in cm-1): 
          0.4720236910             0.7193784002             0.8536890782
   Rotational constants (in MHz): 
      14150.9162379875         21566.4249030295         25592.9582983935
********************************************************************************
   The full molecular point group is C2v .
   The largest Abelian subgroup of the full molecular point group is C2v .
   The computational point group is C2v .
********************************************************************************


 ----------------------------------------------------------------
         Coordinates used in calculation (QCOMP) 
 ----------------------------------------------------------------
 Z-matrix   Atomic            Coordinates (in bohr)
  Symbol    Number           X              Y              Z
 ----------------------------------------------------------------
     C         6        -1.25572327     0.00000000    -0.29512981
     C         6         1.25572327     0.00000000    -0.29512981
     H         1        -2.19034422     1.81857454    -0.29512981
     H         1         2.19034422     1.81857454    -0.29512981
     H         1        -2.19034422    -1.81857454    -0.29512981
     H         1         2.19034422    -1.81857454    -0.29512981
     H         1         0.00000000     0.00000000     8.20863953
 ----------------------------------------------------------------
 
   Interatomic distance matrix (Angstroms) 
 
                 C             C             H             H             H    
                [ 1]        [ 2]        [ 3]        [ 4]        [ 5]
  C    [ 1]     0.00000
  C    [ 2]     1.32900     0.00000
  H    [ 3]     1.08200     2.06193     0.00000
  H    [ 4]     2.06193     1.08200     2.31816     0.00000
  H    [ 5]     1.08200     2.06193     1.92470     3.01303     0.00000
  H    [ 6]     2.06193     1.08200     3.01303     1.92470     2.31816
  H    [ 7]     4.54880     4.54880     4.74548     4.74548     4.74548
 
                 H             H    
                [ 6]        [ 7]
  H    [ 6]     0.00000
  H    [ 7]     4.74548     0.00000
 rotcon2
   Rotational constants (in cm-1): 
          0.7193784002             0.4720236910             0.8536890782
   Rotational constants (in MHz): 
      21566.4249030295         14150.9162379875         25592.9582983935
  ECPDATA file not present.   Using default ECPDATA. 
  There are   57 basis functions.
 @GEOPT-W, Archive file not created for single-point calculation.
 @CHECKOUT-I, Total execution time (CPU/WALL):        0.12/       0.14 seconds.
--executable xjoda finished with status     0 in        0.15 seconds (walltime).
 --invoking executable--
/home/tsommerfeld/zscale/bin/xvmol
 SERIAL VERSION OF MOLECULE STARTED
********************************************************************************
                    INPUT FROM MOL FILE
********************************************************************************
INTGRL        1    0    1    0    0    0    0    0    0                         
         *** CFOUR Program System (Release V0.1) ***                            
h_ethylene                                                                      
    3    2 X  Y       0.10E-08              0    0                              
   9999.00      3.00                                                            
          6.00000000    1    3    1    1    1                                   
C #1  -1.255723272983657   0.000000000000000  -0.295129814830773                
    9    3                                                                      
   6665.00000000000       6.920000000000000E-004 -1.460000000000000E-004        
  0.000000000000000E+000                                                        
   1000.00000000000       5.329000000000000E-003 -1.154000000000000E-003        
  0.000000000000000E+000                                                        
   228.000000000000       2.707700000000000E-002 -5.725000000000000E-003        
  0.000000000000000E+000                                                        
   64.7100000000000       0.101718000000000      -2.331200000000000E-002        
  0.000000000000000E+000                                                        
   21.0600000000000       0.274740000000000      -6.395500000000000E-002        
  0.000000000000000E+000                                                        
   7.49500000000000       0.448564000000000      -0.149981000000000             
  0.000000000000000E+000                                                        
   2.79700000000000       0.285074000000000      -0.127262000000000             
  0.000000000000000E+000                                                        
  0.521500000000000       1.520400000000000E-002  0.544529000000000             
  0.000000000000000E+000                                                        
  0.159600000000000      -3.191000000000000E-003  0.580496000000000             
   1.00000000000000                                                             
    4    2                                                                      
   9.43900000000000       3.810900000000000E-002  0.000000000000000E+000        
   2.00200000000000       0.209480000000000       0.000000000000000E+000        
  0.545600000000000       0.508557000000000       0.000000000000000E+000        
  0.151700000000000       0.468842000000000        1.00000000000000             
    1    1                                                                      
  0.550000000000000        1.00000000000000                                     
          1.00000000    1    2    1    1                                        
H #2  -2.190344215575466   1.818574537711477  -0.295129814830773                
    4    2                                                                      
   13.0100000000000       1.968500000000000E-002  0.000000000000000E+000        
   1.96200000000000       0.137977000000000       0.000000000000000E+000        
  0.444600000000000       0.478148000000000       0.000000000000000E+000        
  0.122000000000000       0.501240000000000        1.00000000000000             
    1    1                                                                      
  0.727000000000000        1.00000000000000                                     
          1.00000000    1    2    1    1                                        
H #3   0.000000000000000   0.000000000000000   8.208639528173677                
    5    3                                                                      
   13.0100000000000       1.968500000000000E-002  0.000000000000000E+000        
  0.000000000000000E+000                                                        
   1.96200000000000       0.137977000000000       0.000000000000000E+000        
  0.000000000000000E+000                                                        
  0.444600000000000       0.478148000000000       0.000000000000000E+000        
  0.000000000000000E+000                                                        
  0.122000000000000       0.501240000000000        1.00000000000000             
  0.000000000000000E+000                                                        
  2.974000000000000E-002  0.000000000000000E+000  0.000000000000000E+000        
   1.00000000000000                                                             
    2    2                                                                      
  0.727000000000000        1.00000000000000       0.000000000000000E+000        
  0.141000000000000       0.000000000000000E+000   1.00000000000000             
FINISH                                                                          
 
********************************************************************************
 ONE- AND TWO-ELECTRON INTEGRALS OVER SYMMETRY-ADAPTED AOS ARE CALCULATED.

  SPHERICAL HARMONICS ARE USED.
  
  INTEGRALS LESS THAN  0.10E-13 ARE NEGLECTED.

  NUCLEAR REPULSION ENERGY :   35.4312635905 A.U.
  @MOLECU-I, ONE ELECTRON INTEGRALS (CPU/WALL):        0.01/       0.01 SECONDS.
  @TWOEL-I,      29280 INTEGRALS OF SYMMETRY TYPE  I I I I
  @TWOEL-I,      98975 INTEGRALS OF SYMMETRY TYPE  I J I J
  @TWOEL-I,      57446 INTEGRALS OF SYMMETRY TYPE  I I J J
  @TWOEL-I,      72451 INTEGRALS OF SYMMETRY TYPE  I J K L
  @TWOEL-I, TOTAL NUMBER OF 2-E INTEGRALS     258152.
  @MOLECU-I, TWO ELECTRON INTEGRALS (CPU/WALL):        0.20/       0.21 SECONDS.
 @CHECKOUT-I, Total execution time (CPU/WALL):        0.23/       0.24 seconds.

Running with 8 threads/proc

--executable xvmol finished with status     0 in        0.26 seconds (walltime).
 --invoking executable--
/home/tsommerfeld/zscale/bin/xvmol2ja
 @GETMEM-I,  Allocated   85830 MB of main memory.
 @CHECKOUT-I, Total execution time (CPU/WALL):        0.02/       0.01 seconds.
--executable xvmol2ja finished with status     0 in        0.03 seconds (walltime).
 --invoking executable--
/home/tsommerfeld/zscale/bin/xvscf
  There are   57 functions in the AO basis.

  There are 4 irreducible representations.

       Irrep        # of functions
         1                 20
         2                 17
         3                 11
         4                  9


  Parameters for SCF calculation: 
        SCF reference function:  RHF  
  Maximum number of iterations:  150
     Full symmetry point group: C2v 
     Computational point group: C2v 
        Initial density matrix: MOREAD                 
     SCF convergence tolerance: 10**(- 7)
  DIIS convergence acceleration:  ON
          Latest start for DIIS:   8
                     DIIS order:   6

  Memory information:     156410 words required.
  Fock matrices are constructed from AO integral file.
 @GETMEM-I,  Allocated       1 MB of main memory.
  Initialization and symmetry analysis required      0.002 seconds.

  @INITGES-I, Occupancies from core Hamiltonian:

          Alpha population by irrep:   3    4    1    1
           Beta population by irrep:   3    4    1    1


 total no. of electrons in initial guess :  0.000000000000000E+000
  --------------------------------------------------------------------
  Iteration         Total Energy            Largest Density Difference
  --------------------------------------------------------------------
       0            35.431263590517567              0.0000000000D+00
   current occupation vector 
     3  4  1  1
     3  4  1  1
       1           -60.974536703484212              0.8822278341D+01
   current occupation vector 
     3  4  1  1
     3  4  1  1
       2           -52.825170540901460              0.8680796185D+01
   current occupation vector 
     5  3  1  0
     5  3  1  0
       3           -70.290724178532940              0.4011626188D+01
   current occupation vector 
     4  3  1  1
     4  3  1  1
       4           -55.873518467556842              0.3471205910D+01
   current occupation vector 
     5  3  1  0
     5  3  1  0
       5           -71.118473122488354              0.3471229042D+01
   current occupation vector 
     4  3  1  1
     4  3  1  1
       6           -56.282234352932953              0.3464084461D+01
   current occupation vector 
     5  3  1  0
     5  3  1  0
       7           -71.228784345355109              0.3464087388D+01
   current occupation vector 
     4  3  1  1
     4  3  1  1
       8           -56.335840236187018              0.3462761524D+01
   current occupation vector 
     5  3  1  0
     5  3  1  0
       9           -76.170572218277727              0.3462563459D+01
   current occupation vector 
     4  3  1  1
     4  3  1  1
      10           -77.458190185459898              0.7039245335D+00
   current occupation vector 
     4  3  1  1
     4  3  1  1
      11           -78.276898228407703              0.1868779764D+01
   current occupation vector 
     5  2  1  1
     5  2  1  1
      12           -78.381692557509524              0.4283233531D+00
   current occupation vector 
     5  2  1  1
     5  2  1  1
      13           -78.487775159034328              0.4945164421D+00
   current occupation vector 
     5  2  1  1
     5  2  1  1
      14           -78.518492436190030              0.2108567440D+00
   current occupation vector 
     5  2  1  1
     5  2  1  1
      15           -78.519255087303236              0.5740397756D-01
   current occupation vector 
     5  2  1  1
     5  2  1  1
      16           -78.519262086408645              0.7212047265D-02
   current occupation vector 
     5  2  1  1
     5  2  1  1
      17           -78.519262477351958              0.1074341176D-02
   current occupation vector 
     5  2  1  1
     5  2  1  1
      18           -78.519262483993401              0.1000448819D-03
   current occupation vector 
     5  2  1  1
     5  2  1  1
      19           -78.519262484337162              0.3057452541D-04
   current occupation vector 
     5  2  1  1
     5  2  1  1
      20           -78.519262484346115              0.2009515985D-05
   current occupation vector 
     5  2  1  1
     5  2  1  1
      21           -78.519262484346683              0.3197700034D-06
   current occupation vector 
     5  2  1  1
     5  2  1  1
      22           -78.519262484346626              0.1181556227D-06
   current occupation vector 
     5  2  1  1
     5  2  1  1

  SCF has converged.

 Density matrix saved to file den.dat
 total electron number:   18.0000000000000     
     E(SCF)=       -78.519262484346655              0.2262704025D-07


  Final occupancies:

     Alpha population by irrep:   5    2    1    1
      Beta population by irrep:   5    2    1    1


  Eigenvector printing suppressed.

 @PUTMOS-I, Writing converged MOs to NEWMOS. 
 @PUTMOS-I, Symmetry   1 Full Blocks  5 Partial Blocksize   0
 @PUTMOS-I, Symmetry   2 Full Blocks  4 Partial Blocksize   1
 @PUTMOS-I, Symmetry   3 Full Blocks  2 Partial Blocksize   3
 @PUTMOS-I, Symmetry   4 Full Blocks  2 Partial Blocksize   1
 @PUTFOCK-I, Writing converged Fock matrix to NEWFOCK. 
 @PUTFOCK-I, Symmetry   1 Full Blocks  5 Partial Blocksize   0
 @PUTFOCK-I, Symmetry   2 Full Blocks  4 Partial Blocksize   1
 @PUTFOCK-I, Symmetry   3 Full Blocks  2 Partial Blocksize   3
 @PUTFOCK-I, Symmetry   4 Full Blocks  2 Partial Blocksize   1


 
  ORBITAL EIGENVALUES (ALPHA)  (1H = 27.2113834 eV)

       MO #        E(hartree)               E(eV)           FULLSYM    COMPSYM
       ----   --------------------   --------------------   -------   ---------
    1     1         -11.1206076621        -302.6071187331      A1        A1 (1)
    2    21         -11.1189001289        -302.5606543929      B1        B1 (2)
    3     2          -0.9248042783         -25.1652037867      A1        A1 (1)
    4    22          -0.6670703514         -18.1519070856      B1        B1 (2)
    5    38          -0.5451108141         -14.8332193566      B2        B2 (3)
    6     3          -0.4517388341         -12.2924386126      A1        A1 (1)
    7    49          -0.4013273883         -10.9206734321      A2        A2 (4)
    8     4          -0.2601885278          -7.0800897850      A1        A1 (1)
    9     5          -0.0418646775          -1.1391957906      A1        A1 (1)
  +++++++++++++++++++++++++++++++++++++++++++++++++++++++++++++++++++++++++++++
   10     6           0.2809101883           7.6439548348      A1        A1 (1)
   11    23           0.2846891774           7.7467863569      B1        B1 (2)
   12     7           0.3187947754           8.6748468590      A1        A1 (1)
   13    39           0.3338831331           9.0854219466      B2        B2 (3)
   14    24           0.3511255407           9.5546117099      B1        B1 (2)
   15    50           0.4059135248          11.0454685501      A2        A2 (4)
   16    25           0.5531287511          15.0513985167      B1        B1 (2)
   17     8           0.5583310780          15.1929610275      A1        A1 (1)
   18    26           0.5615010524          15.2792204164      E         B1 (2)
   19    40           0.5615054998          15.2793414372      E         B2 (3)
   20     9           0.6692455274          18.2110966342      A1        A1 (1)
   21    41           0.7658811621          20.8406859411      B2        B2 (3)
   22    10           0.8014546835          21.8086906711      A1        A1 (1)
   23    11           0.8406730362          22.8758763013      A1        A1 (1)
   24    27           0.9032177223          24.5778037363      B1        B1 (2)
   25    28           0.9249160889          25.1682463072      B1        B1 (2)
   26    42           0.9750734700          26.5330980347      B2        B2 (3)
   27    51           1.0488139342          28.5396780779      A2        A2 (4)
   28    29           1.0755679900          29.2676929477      B1        B1 (2)
   29    12           1.0977417919          29.8710727733      A1        A1 (1)
   30    13           1.1158865676          30.3648172216      A1        A1 (1)
   31    43           1.2301747462          33.4747566668      B2        B2 (3)
   32    30           1.3488033452          36.7028049564      B1        B1 (2)
   33    14           1.3992559065          38.0756889476      A1        A1 (1)
   34    52           1.3993710718          38.0788227542      A2        A2 (4)
   35    53           1.4569558414          39.6457839971      A2        A2 (4)
   36    15           1.7089276628          46.5022858349      A1        A1 (1)
   37    54           1.7256387647          46.9570180372      A2        A2 (4)
   38    44           1.8015474229          49.0225976385      B2        B2 (3)
   39    31           1.9415501992          52.8322668608      B1        B1 (2)
   40    32           1.9890989845          54.1261350875      B1        B1 (2)
   41    16           2.0307230634          55.2587838562      A1        A1 (1)
   42    17           2.0449434008          55.6457389099      A1        A1 (1)
   43    45           2.0991736206          57.1214182120      B2        B2 (3)
   44    46           2.1320117474          58.0149890715      B2        B2 (3)
   45    47           2.1434546003          58.3263649289      B2        B2 (3)
   46    33           2.1439010734          58.3385140800      B1        B1 (2)
   47    18           2.1503800319          58.5148155033      A1        A1 (1)
   48    34           2.2815778475          62.0848895642      B1        B1 (2)
   49    35           2.3774638244          64.6940796452      B1        B1 (2)
   50    55           2.5278323547          68.7858153750      A2        A2 (4)
   51    19           2.5280122323          68.7907100940      A1        A1 (1)
   52    56           2.6001071320          70.7525120512      A2        A2 (4)
   53    36           2.6428359173          71.9152214102      B1        B1 (2)
   54    48           2.9001352413          78.9166919639      B2        B2 (3)
   55    20           2.9017833432          78.9615390951      A1        A1 (1)
   56    37           3.3411784271          90.9180871868      B1        B1 (2)
   57    57           3.4513740670          93.9166629928      A2        A2 (4)


  VSCF finished.

 @CHECKOUT-I, Total execution time (CPU/WALL):        0.27/       0.12 seconds.
--executable xvscf finished with status     0 in        0.14 seconds (walltime).
 --invoking executable--
/home/tsommerfeld/zscale/bin/xvtran
 @GETMEM-I,  Allocated   85830 MB of main memory.
  Full RHF integral transformation
  Transformation of IIII integrals :
  1 pass through the AO integral file was required.
       29280 AO integrals were read.
       37182 MO integrals were written to HF2.
  Transformation of IIJJ integrals :
  1 pass through the AO integral file was required.
       57446 AO integrals were read.
       75393 MO integrals were written to HF2.
  Transformation of IJIJ integrals :
  1 pass through the AO integral file was required.
       98975 AO integrals were read.
      132879 MO integrals were written to HF2.
  Transformation of IJKL integrals :
  1 pass through the AO integral file was required.
       72451 AO integrals were read.
      100980 MO integrals were written to HF2.
  Summary of active molecular orbitals: 
------------------------------------------------------------------------
 
  Index      Eigenvalue    Symmetry    Index      Eigenvalue    Symmetry
------------------------------------------------------------------------
     1       -11.1206077        1        30         0.9249161        2
     2        -0.9248043        1        31         1.0755680        2
     3        -0.4517388        1        32         1.3488033        2
     4        -0.2601885        1        33         1.9415502        2
     5        -0.0418647        1        34         1.9890990        2
     6       -11.1189001        2        35         2.1439011        2
     7        -0.6670704        2        36         2.2815778        2
     8        -0.5451108        3        37         2.3774638        2
     9        -0.4013274        4        38         2.6428359        2
    10         0.2809102        1        39         3.3411784        2
    11         0.3187948        1        40         0.3338831        3
    12         0.5583311        1        41         0.5615055        3
    13         0.6692455        1        42         0.7658812        3
    14         0.8014547        1        43         0.9750735        3
    15         0.8406730        1        44         1.2301747        3
    16         1.0977418        1        45         1.8015474        3
    17         1.1158866        1        46         2.0991736        3
    18         1.3992559        1        47         2.1320117        3
    19         1.7089277        1        48         2.1434546        3
    20         2.0307231        1        49         2.9001352        3
    21         2.0449434        1        50         0.4059135        4
    22         2.1503800        1        51         1.0488139        4
    23         2.5280122        1        52         1.3993711        4
    24         2.9017833        1        53         1.4569558        4
    25         0.2846892        2        54         1.7256388        4
    26         0.3511255        2        55         2.5278324        4
    27         0.5531288        2        56         2.6001071        4
    28         0.5615011        2        57         3.4513741        4
    29         0.9032177        2
------------------------------------------------------------------------
  -11.1206076620517      -0.924804278298830      -0.451738834143815     
 -0.260188527754783      -4.186467750904183E-002  -11.1189001288682     
 -0.667070351360677      -0.545110814050994      -0.401327388305424     
  0.280910188299639       0.318794775386426       0.558331077996162     
  0.669245527377273       0.801454683523584       0.840673036170847     
   1.09774179188818        1.11588656758885        1.39925590653959     
   1.70892766278587        2.03072306335756        2.04494340077901     
   2.15038003188269        2.52801223233744        2.90178334318374     
  0.284689177430170       0.351125540713556       0.553128751134345     
  0.561501052401217       0.903217722341343       0.924916088875122     
   1.07556798996299        1.34880334516130        1.94155019920208     
   1.98909898448861        2.14390107340058        2.28157784746157     
   2.37746382439357        2.64283591734629        3.34117842706833     
  0.333883133137928       0.561505499835931       0.765881162113083     
  0.975073469976843        1.23017474616222        1.80154742292648     
   2.09917362055262        2.13201174739036        2.14345460028866     
   2.90013524133934       0.405913524781980        1.04881393416954     
   1.39937107182179        1.45695584139786        1.72563876473963     
   2.52783235471250        2.60010713204512        3.45137406695593     
 @CHECKOUT-I, Total execution time (CPU/WALL):        0.41/       0.08 seconds.
--executable xvtran finished with status     0 in        0.09 seconds (walltime).
 --invoking executable--
/home/tsommerfeld/zscale/bin/xintprc
 @GETMEM-I,  Allocated   85830 MB of main memory.
  Processing integrals for CCSD calculation.
  @GMOIAA-I, Processing MO integrals for spin case AA.
  @GMOIAA-I, Generation of integral list completed.
                      TYPE                NUMBER
                      ----               --------
                      PPPP                174781
                      PPPH                128448
                      PPHH                 24003
                      PHPH                 13755
                      PHHH                  5115
                      HHHH                   332

                     TOTAL                346434

  @FORMT2-I, Second-order MP correlation energies:
            ------------------------------------------------
            E(SCF)                  =    -78.519262484347 a.u.
            E2(AA)                  =     -0.031181592404 a.u.
            E2(AB)                  =     -0.243726177610 a.u.
            E2(TOT)                 =     -0.306089362418 a.u.
            Total MP2 energy        =    -78.825351846765 a.u.
            ------------------------------------------------
   Largest T2 amplitudes for spin case AB:
       _       _                 _       _                 _       _
   i   j   a   b             i   j   a   b             i   j   a   b
-----------------------------------------------------------------------------
[  4   4  25  25]-0.09200 [  5   5  10  10]-0.07126 [  5   5  41  41]-0.04481
[  5   5  28  28]-0.04473 [  5   5  12  12]-0.04361 [  5   5  11  10] 0.03820
[  5   5  10  11] 0.03820 [  5   5  16  16]-0.03606 [  4   4  30  25] 0.03047
[  4   4  25  30] 0.03047 [  5   5  16  10] 0.02955 [  5   5  10  16] 0.02955
[  3   4  31  25] 0.02659 [  4   3  25  31] 0.02659 [  4   4  14  14]-0.02625
-----------------------------------------------------------------------------
   Norm of T2AB vector (    47574 symmetry allowed elements):  0.3154463614.
-----------------------------------------------------------------------------
 @CHECKOUT-I, Total execution time (CPU/WALL):        0.39/       0.08 seconds.
--executable xintprc finished with status     0 in        0.10 seconds (walltime).
  calling xvcc 
 --invoking executable--
/home/tsommerfeld/zscale/bin/xvcc
 @GETMEM-I,  Allocated   85830 MB of main memory.
   CCSD energy will be calculated.
   The total correlation energy is -0.306089362418 a.u.
   The total correlation energy is -0.332027596744 a.u.
  Convergence information after     1 iterations: 
  Largest element of residual vector : -0.28079580E-01.
  Largest element of DIIS residual   : -0.28079580E-01.
   The total correlation energy is -0.342085910032 a.u.
  Convergence information after     2 iterations: 
  Largest element of residual vector : -0.13272446E-01.
  Largest element of DIIS residual   : -0.10410784E-01.
   The total correlation energy is -0.346243236341 a.u.
  Convergence information after     3 iterations: 
  Largest element of residual vector : -0.46343142E-02.
  Largest element of DIIS residual   : -0.41781457E-02.
   The total correlation energy is -0.347301336504 a.u.
  Convergence information after     4 iterations: 
  Largest element of residual vector : -0.21716182E-02.
  Largest element of DIIS residual   : -0.12168993E-02.
   The total correlation energy is -0.347486587706 a.u.
  Convergence information after     5 iterations: 
  Largest element of residual vector : -0.60311893E-03.
  Largest element of DIIS residual   :  0.32778945E-03.
   The total correlation energy is -0.347481974262 a.u.
  Convergence information after     6 iterations: 
  Largest element of residual vector : -0.24157900E-03.
  Largest element of DIIS residual   :  0.18675636E-03.
   The total correlation energy is -0.347473077673 a.u.
  Convergence information after     7 iterations: 
  Largest element of residual vector :  0.10765837E-03.
  Largest element of DIIS residual   : -0.56418798E-04.
   The total correlation energy is -0.347465747777 a.u.
  Convergence information after     8 iterations: 
  Largest element of residual vector :  0.35904893E-04.
  Largest element of DIIS residual   :  0.20249376E-04.
   The total correlation energy is -0.347464820431 a.u.
  Convergence information after     9 iterations: 
  Largest element of residual vector : -0.14970732E-04.
  Largest element of DIIS residual   : -0.10928144E-04.
   The total correlation energy is -0.347465183586 a.u.
  Convergence information after    10 iterations: 
  Largest element of residual vector : -0.49193945E-05.
  Largest element of DIIS residual   : -0.52326435E-05.
   The total correlation energy is -0.347465778077 a.u.
  Convergence information after    11 iterations: 
  Largest element of residual vector : -0.32247635E-05.
  Largest element of DIIS residual   : -0.28369820E-05.
   The total correlation energy is -0.347466196294 a.u.
  Convergence information after    12 iterations: 
  Largest element of residual vector : -0.14875535E-05.
  Largest element of DIIS residual   : -0.10490014E-05.
   The total correlation energy is -0.347466437635 a.u.
  Convergence information after    13 iterations: 
  Largest element of residual vector : -0.68582931E-06.
  Largest element of DIIS residual   : -0.44036034E-06.
   The total correlation energy is -0.347466473703 a.u.
  Convergence information after    14 iterations: 
  Largest element of residual vector : -0.21929859E-06.
  Largest element of DIIS residual   :  0.17467214E-06.
   The total correlation energy is -0.347466466540 a.u.
  Convergence information after    15 iterations: 
  Largest element of residual vector : -0.10921999E-06.
  Largest element of DIIS residual   :  0.98219030E-07.
   The total correlation energy is -0.347466457939 a.u.
  Convergence information after    16 iterations: 
  Largest element of residual vector :  0.54733148E-07.
  Largest element of DIIS residual   :  0.36373245E-07.
  Amplitude equations converged in    16iterations.
   The total correlation energy is -0.347466452784 a.u.
   The CC iterations have converged.

   Largest T1 amplitudes for spin case AA:
   i       a                 i       a                 i       a    
-----------------------------------------------------------------------------
[  5      10    ]-0.02191 [  4      14    ]-0.01758 [  4      18    ] 0.01585
[  4      15    ] 0.01576 [  5      16    ]-0.01416 [  8      42    ]-0.00613
[  4      21    ] 0.00585 [  5      17    ] 0.00543 [  5      11    ] 0.00538
[  4      12    ] 0.00508 [  3      13    ]-0.00483 [  9      56    ] 0.00446
[  9      50    ]-0.00435 [  3      23    ] 0.00402 [  8      45    ] 0.00399
-----------------------------------------------------------------------------
   Norm of T1AA vector (      123 symmetry allowed elements):  0.0437006879.
-----------------------------------------------------------------------------
   Largest T2 amplitudes for spin case AB:
       _       _                 _       _                 _       _
   i   j   a   b             i   j   a   b             i   j   a   b
-----------------------------------------------------------------------------
[  4   4  25  25]-0.13502 [  5   5  10  10]-0.13160 [  5   5  11  10] 0.07050
[  5   5  10  11] 0.07050 [  5   5  41  41]-0.06301 [  5   5  28  28]-0.06285
[  5   5  12  12]-0.06118 [  5   5  16  10] 0.05652 [  5   5  10  16] 0.05652
[  4   4  30  25] 0.04213 [  4   4  25  30] 0.04213 [  5   5  16  16]-0.04105
[  5   5  11  11]-0.03848 [  5   5  16  11]-0.03111 [  5   5  11  16]-0.03111
-----------------------------------------------------------------------------
   Norm of T2AB vector (    47574 symmetry allowed elements):  0.4112668914.
-----------------------------------------------------------------------------
       Summary of iterative solution of CC equations 
      -----------------------------------------------------------
                       Correlation           Total
       Iteration         Energy              Energy
      -----------------------------------------------------------
            0        -0.306089362418     -78.825351846765  DIIS 
            1        -0.332027596744     -78.851290081091  DIIS 
            2        -0.342085910032     -78.861348394379  DIIS 
            3        -0.346243236341     -78.865505720687  DIIS 
            4        -0.347301336504     -78.866563820851  DIIS 
            5        -0.347486587706     -78.866749072052  DIIS 
            6        -0.347481974262     -78.866744458608  DIIS 
            7        -0.347473077673     -78.866735562020  DIIS 
            8        -0.347465747777     -78.866728232124  DIIS 
            9        -0.347464820431     -78.866727304778  DIIS 
           10        -0.347465183586     -78.866727667932  DIIS 
           11        -0.347465778077     -78.866728262424  DIIS 
           12        -0.347466196294     -78.866728680641  DIIS 
           13        -0.347466437635     -78.866728921981  DIIS 
           14        -0.347466473703     -78.866728958050  DIIS 
           15        -0.347466466540     -78.866728950886  DIIS 
           16        -0.347466452784     -78.866728937131  DIIS 
      -----------------------------------------------------------
      A miracle has come to pass. The CC iterations have converged.
      The reference energy is       -78.51926248434665 a.u.
      The correlation energy is      -0.34746645278419 a.u.
      The total energy is           -78.86672893713084 a.u.
 @CHECKOUT-I, Total execution time (CPU/WALL):        5.18/       0.66 seconds.
--executable xvcc finished with status     0 in        0.68 seconds (walltime).
 --invoking executable--
/home/tsommerfeld/zscale/bin/xlambda
 @GETMEM-I,  Allocated   85830 MB of main memory.
 Hbar is calculated for a CCSD wave function.
 Calculation of Hbar completed.
 @CHECKOUT-I, Total execution time (CPU/WALL):        0.86/       0.12 seconds.
--executable xlambda finished with status     0 in        0.14 seconds (walltime).
 --invoking executable--
/home/tsommerfeld/zscale/bin/xvee
 @GETMEM-I,  Allocated   85830 MB of main memory.
  cc2 and ccprog  F                     0
  EOMEE-CCSD excitation energies will be evaluated.
  @SETMET-I, VPROP property integrals are used.
  @SETMET-I, A total of   3 target states will be studied.
  Summary of active alpha molecular orbitals:
------------------------------------------------------------------------------
Orbital      Sym   Eigenvalue  <xx>     <yy>     <zz>     <xy>     <xz>     <yz>
        SCF
  #  position
------------------------------------------------------------------------------
   1      1    1     -11.1206   0.000    0.000    0.000    0.000    0.000    0.000
   2      3    1      -0.9248   0.000    0.000    0.000    0.000    0.000    0.000
   3      6    1      -0.4517   0.000    0.000    0.000    0.000    0.000    0.000
   4      8    1      -0.2602   0.000    0.000    0.000    0.000    0.000    0.000
   5      9    1      -0.0419   0.000    0.000    0.000    0.000    0.000    0.000
   6      2    2     -11.1189   0.000    0.000    0.000    0.000    0.000    0.000
   7      4    2      -0.6671   0.000    0.000    0.000    0.000    0.000    0.000
   8      5    3      -0.5451   0.000    0.000    0.000    0.000    0.000    0.000
   9      7    4      -0.4013   0.000    0.000    0.000    0.000    0.000    0.000
  10     10    1       0.2809   0.000    0.000    0.000    0.000    0.000    0.000
  11     12    1       0.3188   0.000    0.000    0.000    0.000    0.000    0.000
  12     17    1       0.5583   0.000    0.000    0.000    0.000    0.000    0.000
  13     20    1       0.6692   0.000    0.000    0.000    0.000    0.000    0.000
  14     22    1       0.8015   0.000    0.000    0.000    0.000    0.000    0.000
  15     23    1       0.8407   0.000    0.000    0.000    0.000    0.000    0.000
  16     29    1       1.0977   0.000    0.000    0.000    0.000    0.000    0.000
  17     30    1       1.1159   0.000    0.000    0.000    0.000    0.000    0.000
  18     33    1       1.3993   0.000    0.000    0.000    0.000    0.000    0.000
  19     36    1       1.7089   0.000    0.000    0.000    0.000    0.000    0.000
  20     41    1       2.0307   0.000    0.000    0.000    0.000    0.000    0.000
  21     42    1       2.0449   0.000    0.000    0.000    0.000    0.000    0.000
  22     47    1       2.1504   0.000    0.000    0.000    0.000    0.000    0.000
  23     51    1       2.5280   0.000    0.000    0.000    0.000    0.000    0.000
  24     55    1       2.9018   0.000    0.000    0.000    0.000    0.000    0.000
  25     11    2       0.2847   0.000    0.000    0.000    0.000    0.000    0.000
  26     14    2       0.3511   0.000    0.000    0.000    0.000    0.000    0.000
  27     16    2       0.5531   0.000    0.000    0.000    0.000    0.000    0.000
  28     18    2       0.5615   0.000    0.000    0.000    0.000    0.000    0.000
  29     24    2       0.9032   0.000    0.000    0.000    0.000    0.000    0.000
  30     25    2       0.9249   0.000    0.000    0.000    0.000    0.000    0.000
  31     28    2       1.0756   0.000    0.000    0.000    0.000    0.000    0.000
  32     32    2       1.3488   0.000    0.000    0.000    0.000    0.000    0.000
  33     39    2       1.9416   0.000    0.000    0.000    0.000    0.000    0.000
  34     40    2       1.9891   0.000    0.000    0.000    0.000    0.000    0.000
  35     46    2       2.1439   0.000    0.000    0.000    0.000    0.000    0.000
  36     48    2       2.2816   0.000    0.000    0.000    0.000    0.000    0.000
  37     49    2       2.3775   0.000    0.000    0.000    0.000    0.000    0.000
  38     53    2       2.6428   0.000    0.000    0.000    0.000    0.000    0.000
  39     56    2       3.3412   0.000    0.000    0.000    0.000    0.000    0.000
  40     13    3       0.3339   0.000    0.000    0.000    0.000    0.000    0.000
  41     19    3       0.5615   0.000    0.000    0.000    0.000    0.000    0.000
  42     21    3       0.7659   0.000    0.000    0.000    0.000    0.000    0.000
  43     26    3       0.9751   0.000    0.000    0.000    0.000    0.000    0.000
  44     31    3       1.2302   0.000    0.000    0.000    0.000    0.000    0.000
  45     38    3       1.8015   0.000    0.000    0.000    0.000    0.000    0.000
  46     43    3       2.0992   0.000    0.000    0.000    0.000    0.000    0.000
  47     44    3       2.1320   0.000    0.000    0.000    0.000    0.000    0.000
  48     45    3       2.1435   0.000    0.000    0.000    0.000    0.000    0.000
  49     54    3       2.9001   0.000    0.000    0.000    0.000    0.000    0.000
  50     15    4       0.4059   0.000    0.000    0.000    0.000    0.000    0.000
  51     27    4       1.0488   0.000    0.000    0.000    0.000    0.000    0.000
  52     34    4       1.3994   0.000    0.000    0.000    0.000    0.000    0.000
  53     35    4       1.4570   0.000    0.000    0.000    0.000    0.000    0.000
  54     37    4       1.7256   0.000    0.000    0.000    0.000    0.000    0.000
  55     50    4       2.5278   0.000    0.000    0.000    0.000    0.000    0.000
  56     52    4       2.6001   0.000    0.000    0.000    0.000    0.000    0.000
  57     57    4       3.4514   0.000    0.000    0.000    0.000    0.000    0.000
------------------------------------------------------------------------------
  @DRVTDA-I, Roots obtained by Davidson method.
  calling tda davidson                       6                     2
  after tda davidson                      6                     6
                     3                     3
  kroot is                      3
__________________________________________________________________________
    Tamm-Dancoff (CIS) Excitation Energies and Transition Moments

                Excitation         Transition Dipole         Oscillator
 Root  Symmetry  Energy         x           y           z     Strength
__________________________________________________________________________
   1       2    0.20954      0.0000      0.0000      0.0000  .00000000D+00
__________________________________________________________________________
 
__________________________________________________________________________
  TDA excitation ergy:             0.209543686056 a.u.    5.7020 eV
  Total TDA electronic energy:   -78.309718798291 a.u.
 
  Dominant contributions: 
  SCF eigenvalue ordering used in list below. 
--------------------------------------------------------------------------------
    I    j    A    b
--------------------------------------------------------------------------------
    9    0   11    0  -0.9979168195 AA  
    8    0   11    0  -0.0421022804 AA  
    9    0   14    0  -0.0348688691 AA  
    9    0   24    0   0.0177401042 AA  
    9    0   18    0   0.0144374107 AA  
    9    0   32    0   0.0106863318 AA  
    6    0   11    0   0.0102249540 AA  
    6    0   28    0  -0.0069373381 AA  
    9    0   28    0   0.0067523627 AA  
    7    0   13    0   0.0063738899 AA  
    5    0   15    0   0.0063647048 AA  
    6    0   16    0  -0.0061317809 AA  
    4    0   12    0   0.0061014394 AA  
    9    0   25    0  -0.0052126698 AA  
    7    0   21    0   0.0045327125 AA  
--------------------------------------------------------------------------------
   2       2    0.28678      0.0000      0.0000      0.0000  .00000000D+00
__________________________________________________________________________
 
__________________________________________________________________________
  TDA excitation ergy:             0.286781477898 a.u.    7.8037 eV
  Total TDA electronic energy:   -78.232481006448 a.u.
 
  Dominant contributions: 
  SCF eigenvalue ordering used in list below. 
--------------------------------------------------------------------------------
    I    j    A    b
--------------------------------------------------------------------------------
    9    0   14    0  -0.9901541447 AA  
    8    0   11    0  -0.1171845342 AA  
    8    0   14    0  -0.0425990984 AA  
    9    0   11    0   0.0407534622 AA  
    9    0   18    0   0.0316656792 AA  
    7    0   13    0   0.0132250020 AA  
    9    0   25    0  -0.0120228528 AA  
    4    0   12    0   0.0109908928 AA  
    5    0   15    0   0.0106417313 AA  
    6    0   11    0   0.0106300051 AA  
    6    0   14    0   0.0100805966 AA  
    6    0   28    0  -0.0099252083 AA  
    6    0   16    0  -0.0092312006 AA  
    9    0   24    0  -0.0081467759 AA  
    4    0   10    0   0.0077937828 AA  
--------------------------------------------------------------------------------
   3       2    0.30939      0.0000      0.0000      0.0000  .00000000D+00
__________________________________________________________________________
 
__________________________________________________________________________
  TDA excitation ergy:             0.309390746259 a.u.    8.4190 eV
  Total TDA electronic energy:   -78.209871738087 a.u.
 
  Dominant contributions: 
  SCF eigenvalue ordering used in list below. 
--------------------------------------------------------------------------------
    I    j    A    b
--------------------------------------------------------------------------------
    8    0   11    0  -0.9556034902 AA  
    9    0   14    0   0.1248711096 AA  
    6    0   16    0  -0.1075566078 AA  
    6    0   28    0  -0.0923860949 AA  
    4    0   12    0   0.0864631435 AA  
    5    0   15    0   0.0858681350 AA  
    7    0   21    0   0.0764679886 AA  
    7    0   13    0   0.0756192691 AA  
    9    0   18    0   0.0680829267 AA  
    4    0   10    0   0.0615934164 AA  
    3    0   14    0   0.0432706857 AA  
    9    0   11    0   0.0414365029 AA  
    5    0   27    0   0.0399267429 AA  
    6    0   24    0  -0.0385350479 AA  
    6    0   14    0   0.0383529591 AA  
--------------------------------------------------------------------------------
__________________________________________________________________________
  @DOEOMEE-I, Excitation energies computed by the EOMEE-CCSD/CCSD-LR method.
  @DOEOMEE-I, right-hand eigenvectors will be computed.
  Beginning symmetry block   2.   3 roots requested.
  @DOEOMEE-I, Matrix dimension for diagonalization:    47661
  Creating initial guess for root
________________________________________________________________________
            Subspace          Eigenvalue           
 Iteration  Dimension   (a.u.)         (eV)       Overlap      Residual
________________________________________________________________________
  @NEWGES-I, Using TDA initial guess.
  1   1  0.2863945174D+00  0.7793191018D+01  0.0000000000D+00  0.4766839587D+00
  2   2  0.1727634806D+00  0.4701133309D+01  0.9400007000D+00  0.1330952401D+00
  3   3  0.1626182821D+00  0.4425068423D+01  0.9913733133D+00  0.3950309003D-01
  4   4  0.1620048192D+00  0.4408375249D+01  0.9994653033D+00  0.1493173012D-01
  5   5  0.1619006571D+00  0.4405540853D+01  0.9999559615D+00  0.4687204244D-02
  L-O-C-K-I-N-G O-N R-O-O-T 
  6   6  0.1618912362D+00  0.4405284498D+01  0.9999917505D+00  0.1456018637D-02
  7   7  0.1618910458D+00  0.4405279316D+01  0.9999987322D+00  0.8147835465D-03
  8   8  0.1618908122D+00  0.4405272959D+01  0.9999996034D+00  0.1768741584D-03
  9   9  0.1618902014D+00  0.4405256338D+01  0.9999999769D+00  0.1081007696D-03
 10  10  0.1618903847D+00  0.4405261327D+01  0.9999999774D+00  0.4721365623D-04
 11  11  0.1618903110D+00  0.4405259322D+01  0.9999999957D+00  0.1471400129D-04
 12  12  0.1618903292D+00  0.4405259817D+01  0.9999999998D+00  0.4726142653D-05
  Converged eigenvalue:   0.161890329214378       a.u.
   Total EOMEE-CCSD electronic energy      -78.704838607916471 a.u.
  Converged eigenvector 
  SCF eigenvalue ordering used in list below. 
--------------------------------------------------------------------------------
    I    j    A    b
--------------------------------------------------------------------------------
    9    0   11    0  -0.6494904460 AA  
    9    9   11   10  -0.1913840608 ABAB
    9    9   10   11  -0.1913840608 ABAB
    9    9   11   12   0.0985484292 ABAB
    9    9   12   11   0.0985484292 ABAB
    9    9   11   29   0.0753078319 ABAB
    9    9   29   11   0.0753078319 ABAB
    9    8   11   10  -0.0359973206 ABAB
    8    9   10   11  -0.0359973206 ABAB
    7    9   15   11   0.0346056961 ABAB
    9    7   11   15   0.0346056961 ABAB
    9    0   25    0   0.0322737935 AA  
    5    9   13   11   0.0314120440 ABAB
    9    5   11   13   0.0314120440 ABAB
    4    9   14   11   0.0305648129 ABAB
--------------------------------------------------------------------------------
  Converged eigenvector, normalized to one 
  SCF eigenvalue ordering used in list below. 
--------------------------------------------------------------------------------
    I    j    A    b
--------------------------------------------------------------------------------
    9    0   11    0  -0.6494904460 AA  
    9    9   11   10  -0.1913840608 ABAB
    9    9   10   11  -0.1913840608 ABAB
    9    9   11   12   0.0985484292 ABAB
    9    9   12   11   0.0985484292 ABAB
    9    9   11   29   0.0753078319 ABAB
    9    9   29   11   0.0753078319 ABAB
    9    8   11   10  -0.0359973206 ABAB
    8    9   10   11  -0.0359973206 ABAB
    7    9   15   11   0.0346056961 ABAB
    9    7   11   15   0.0346056961 ABAB
    9    0   25    0   0.0322737935 AA  
    5    9   13   11   0.0314120440 ABAB
    9    5   11   13   0.0314120440 ABAB
    4    9   14   11   0.0305648129 ABAB
--------------------------------------------------------------------------------

  Eigenvector is saved on CCRE_2_1  

  Adding new vector to expansion space.
  Guess for next eigenvalue   0.286781477898493     
 13  13  0.2448129558D+00  0.6661699201D+01  0.7085314382D+00  0.4191859857D-01
 14  14  0.2439396169D+00  0.6637934441D+01  0.9992282352D+00  0.1408436793D-01
 15  15  0.2438254892D+00  0.6634828869D+01  0.9999077188D+00  0.5619149261D-02
 16  16  0.2438000830D+00  0.6634137530D+01  0.9999810713D+00  0.1917072644D-02
  L-O-C-K-I-N-G O-N R-O-O-T 
 17  17  0.2437998637D+00  0.6634131563D+01  0.9999973997D+00  0.1041297079D-02
 18  18  0.2437965947D+00  0.6634042610D+01  0.9999990898D+00  0.3556796602D-03
 19  19  0.2437971103D+00  0.6634056641D+01  0.9999999079D+00  0.1084219303D-03
 20  20  0.2437975532D+00  0.6634068693D+01  0.9999999938D+00  0.3295453872D-04
 21  21  0.2437974067D+00  0.6634064706D+01  0.9999999993D+00  0.1309908763D-04
 22  22  0.2437973869D+00  0.6634064167D+01  0.9999999999D+00  0.3307107201D-05
  Converged eigenvalue:   0.243797386916152       a.u.
   Total EOMEE-CCSD electronic energy      -78.622931550214687 a.u.
  Converged eigenvector 
  SCF eigenvalue ordering used in list below. 
--------------------------------------------------------------------------------
    I    j    A    b
--------------------------------------------------------------------------------
    9    0   14    0  -0.6493749449 AA  
    9    9   14   10  -0.2076498691 ABAB
    9    9   10   14  -0.2076498691 ABAB
    9    9   14   12   0.1082192785 ABAB
    9    9   12   14   0.1082192785 ABAB
    9    9   14   29   0.0807703774 ABAB
    9    9   29   14   0.0807703774 ABAB
    9    8   12   11   0.0380946555 ABAB
    8    9   11   12   0.0380946555 ABAB
    9    8   10   11   0.0284751112 ABAB
    8    9   11   10   0.0284751112 ABAB
    9    9   14   30  -0.0257405427 ABAB
    9    9   30   14  -0.0257405427 ABAB
    9    0   11    0   0.0251701070 AA  
    9    0   24    0  -0.0244044093 AA  
--------------------------------------------------------------------------------
  Converged eigenvector, normalized to one 
  SCF eigenvalue ordering used in list below. 
--------------------------------------------------------------------------------
    I    j    A    b
--------------------------------------------------------------------------------
    9    0   14    0  -0.6493749449 AA  
    9    9   14   10  -0.2076498691 ABAB
    9    9   10   14  -0.2076498691 ABAB
    9    9   14   12   0.1082192785 ABAB
    9    9   12   14   0.1082192785 ABAB
    9    9   14   29   0.0807703774 ABAB
    9    9   29   14   0.0807703774 ABAB
    9    8   12   11   0.0380946555 ABAB
    8    9   11   12   0.0380946555 ABAB
    9    8   10   11   0.0284751112 ABAB
    8    9   11   10   0.0284751112 ABAB
    9    9   14   30  -0.0257405427 ABAB
    9    9   30   14  -0.0257405427 ABAB
    9    0   11    0   0.0251701070 AA  
    9    0   24    0  -0.0244044093 AA  
--------------------------------------------------------------------------------

  Eigenvector is saved on CCRE_2_2  

  Adding new vector to expansion space.
  Guess for next eigenvalue   0.309390746259462     
 23  23  0.3394519406D+00  0.9236956902D+01  0.7285631739D+00  0.3120431318D+01
 24  24  0.3314564655D+00  0.9019388964D+01  0.9924249820D+00  0.1895159361D+00
 25  25  0.3286437652D+00  0.8942851498D+01  0.9934794556D+00  0.1012474938D+00
 26  26  0.3277957638D+00  0.8919776205D+01  0.9966437927D+00  0.3910883844D-01
 27  27  0.3275315333D+00  0.8912586127D+01  0.9982991397D+00  0.1444410626D-01
 28  28  0.3273698440D+00  0.8908186338D+01  0.9995647259D+00  0.6534018252D-02
  L-O-C-K-I-N-G O-N R-O-O-T 
 29  29  0.3273483928D+00  0.8907602622D+01  0.9999411110D+00  0.4013616063D-02
 30  30  0.3273468902D+00  0.8907561733D+01  0.9999689633D+00  0.2754524077D-02
 31  31  0.3273432042D+00  0.8907461434D+01  0.9999537432D+00  0.1490648712D-02
 32  32  0.3273391618D+00  0.8907351433D+01  0.9999867074D+00  0.6660933801D-03
 33  33  0.3273393260D+00  0.8907355902D+01  0.9999995193D+00  0.2362629873D-03
 34  34  0.3273392623D+00  0.8907354168D+01  0.9999999559D+00  0.1159104631D-03
 35  35  0.3273392934D+00  0.8907355016D+01  0.9999999849D+00  0.6038549545D-04
 36  36  0.3273392778D+00  0.8907354591D+01  0.9999999877D+00  0.4685438066D-04
 37  37  0.3273392752D+00  0.8907354518D+01  0.9999999889D+00  0.2180896501D-04
 38  38  0.3273392600D+00  0.8907354105D+01  0.9999999988D+00  0.8318858783D-05
  Converged eigenvalue:   0.327339259966265       a.u.
   Total EOMEE-CCSD electronic energy      -78.539389677164579 a.u.
  Converged eigenvector 
  SCF eigenvalue ordering used in list below. 
--------------------------------------------------------------------------------
    I    j    A    b
--------------------------------------------------------------------------------
    8    0   11    0  -0.6692863526 AA  
    6    0   16    0  -0.0706614318 AA  
    4    0   12    0   0.0601296903 AA  
    6    0   28    0  -0.0581734371 AA  
    5    0   15    0   0.0550089843 AA  
    7    0   21    0   0.0537784670 AA  
    9    0   18    0   0.0504879357 AA  
    4    0   10    0   0.0428286914 AA  
    8    8   11   33   0.0427846523 ABAB
    8    8   33   11   0.0427846523 ABAB
    9    8   11   10   0.0402059853 ABAB
    8    9   10   11   0.0402059853 ABAB
    7    0   13    0   0.0375134544 AA  
    8    0   25    0   0.0353058114 AA  
    4    3   11   11  -0.0349233118 ABAB
--------------------------------------------------------------------------------
  Converged eigenvector, normalized to one 
  SCF eigenvalue ordering used in list below. 
--------------------------------------------------------------------------------
    I    j    A    b
--------------------------------------------------------------------------------
    8    0   11    0  -0.6692863526 AA  
    6    0   16    0  -0.0706614318 AA  
    4    0   12    0   0.0601296903 AA  
    6    0   28    0  -0.0581734371 AA  
    5    0   15    0   0.0550089843 AA  
    7    0   21    0   0.0537784670 AA  
    9    0   18    0   0.0504879357 AA  
    4    0   10    0   0.0428286914 AA  
    8    8   11   33   0.0427846523 ABAB
    8    8   33   11   0.0427846523 ABAB
    9    8   11   10   0.0402059853 ABAB
    8    9   10   11   0.0402059853 ABAB
    7    0   13    0   0.0375134544 AA  
    8    0   25    0   0.0353058114 AA  
    4    3   11   11  -0.0349233118 ABAB
--------------------------------------------------------------------------------

  Eigenvector is saved on CCRE_2_3  

  Solution of   3 roots required   38 iterations.
 @CHECKOUT-I, Total execution time (CPU/WALL):       23.43/       2.94 seconds.
--executable xvee finished with status     0 in        2.96 seconds (walltime).
  The final electronic energy is       -78.539389677164579 a.u. 
  This computation required                            4.56 seconds (walltime).
