CFour on node02
 --invoking executable--
/home/tsommerfeld/zscale/bin/xjoda


   *************************************************************************
         <<<     CCCCCC     CCCCCC   |||     CCCCCC     CCCCCC   >>>
       <<<      CCC        CCC       |||    CCC        CCC         >>>
      <<<      CCC        CCC        |||   CCC        CCC            >>>
    <<<        CCC        CCC        |||   CCC        CCC              >>>
      <<<      CCC        CCC        |||   CCC        CCC            >>>
       <<<      CCC        CCC       |||    CCC        CCC         >>>
         <<<     CCCCCC     CCCCCC   |||     CCCCCC     CCCCCC   >>>
   *************************************************************************

     ****************************************************************
     * CFOUR Coupled-Cluster techniques for Computational Chemistry *
     ****************************************************************
 

   Department of Chemistry                Institut fuer Physikalische Chemie
   University of Florida                  Universitaet Mainz
   Gainesville, FL 32611, USA             D-55099 Mainz, Germany

   Department of Chemistry                Department of Chemistry
   Johns Hopkins University               Southern Methodist University
   Baltimore, MD 21218, USA               Dallas, TX 75275, USA

   Institute of Nanotechnology            Department of Physical Chemistry
   Karlsruhe Inst. of Technology          Eotvos Lorand University
   D-76021 Karlsruhe, Germany             H-1053 Budapest, Hungary

 
                       Version 2.1
 
                     node02                                            
                     Tue Mar 29 16:06:31 CST 2022                      
                     integer*8 version is running
 
********************************************************************************
*                          Input from ZMAT file                                *
********************************************************************************
h_ethylene                                                                      
C       0.000000      0.0   -0.664500                                           
C       0.000000      0.0    0.664500                                           
H       0.962348      0.0   -1.159080                                           
H       0.962348      0.0    1.159080                                           
H      -0.962348      0.0   -1.159080                                           
H      -0.962348      0.0    1.159080                                           
H      0.000000      3.590909090909091      0.000000                            
                                                                                
*CFOUR(CALC=CCSD                                                                
EXCITE=EOMEE                                                                    
ESTATE_SYM=0/3/0/0                                                              
CC_PROG=VCC                                                                     
CHARGE=-1                                                                       
COORDINATES=CARTESIAN                                                           
BASIS=SPECIAL                                                                   
REFERENCE=RHF                                                                   
MEM_SIZE=90,MEM_UNIT=GB)                                                        
                                                                                
C:CC-PVDZ                                                                       
C:CC-PVDZ                                                                       
H:CC-PVDZ                                                                       
H:CC-PVDZ                                                                       
H:CC-PVDZ                                                                       
H:CC-PVDZ                                                                       
H:AUG-CC-PVDZ                                                                   
                                                                                
********************************************************************************
    -------------------------------------------------------------------
                    CFOUR Control Parameters 
    -------------------------------------------------------------------
        External           Internal           Value            Units
          Name               Name
    -------------------------------------------------------------------
       ABCDTYPE             IABCDT         STANDARD    [  0]    ***   
       ANHARMONIC           IANHAR         OFF         [  0]    ***   
       ANH_ALGORIT          IANALG         STANDARD    [  0]    ***   
       ANH_DERIVAT          IANDER         SECOND      [  1]    ***   
       ANH_MODE             ANHMOD         VIBRATION   [  0]    ***   
       ANH_STEPSIZ          ICUBST             50000          x 10-6  
       ANH_SYMMETR          IANHSM         ABELIAN     [  0]    ***   
       AO_LADDERS           IAOLAD         SINGLEPASS  [  1]    ***   
       AV_SCF               IAVSCF         OFF         [  0]    ***   
       BASIS                IBASIS         SPECIAL     [  0]    ***   
       BOTHVECTORS          BOTHVC         OFF         [  0]    ***   
       BOX_POTENT           IPIAB          OFF         [  0]    ***   
       BREIT                IBREIT         OFF         [  0]    ***   
       BRUCK_CONV           IBRTOL          10D-  4             ***   
       BRUECKNER            IBRKNR         OFF         [  0]    ***   
       BUFFERSIZE           IBUFFS              4096            ***   
       CACHE_RECS           ICHREC             10               ***   
       CALCLEVEL            ICLLVL         CCSD        [ 10]    ***   
       CCORBOPT             ICCORB         OFF         [  0]  x 0.01  
       CC_CONV              ICCCNV          10D-  7             ***   
       CC_EXPORDER          ICCEOR              5               ***   
       CC_EXTRAPOL          ICCEXT         DIIS        [  1]    ***   
       CC_GUESS             ICCGES         MP2         [  0]    ***   
       CC_MAXCYC            ICCCYC            100              cycles 
       CC_PROGRAM           ICCPRO         VCC         [  0]    ***   
       CHARGE               ICHRGE             -1               ***   
       CHOLESKY             ICHOLE         OFF         [  0]    ***   
       CIS_CONV             ICISTL              5               ***   
       COMM_SIZE            IPSIZE            ***               ***   
       CONSTANT             ICONST         OLD         [  1]    ***   
       CONTINUUM            ICONTU         NONE        [  0]    ***   
       CONTRACTION          ICNTYP         GENERAL     [  1]    ***   
       COORDINATES          ICOORD         CARTESIAN   [  1]    ***   
       CPHF_CONVER          ICPHFT          10D- 16             ***   
       CPHF_MAXCYC          ICPHFC             64              cycles 
       CUBIC                ICUBIC         OFF         [  0]    ***   
       CURVILINEAR          ICURVY         OFF         [  0]    ***   
       DBOC                 IDBOC          OFF         [  0]    ***   
       DCT                  IDCT           OFF         [  0]    ***   
       DERIV_LEV            IDRLVL         ZERO        [  0]    ***   
       DEVMEM_SIZE          IDVMEM         *********           MByte  
       DIAG_MRCC            IEOMST          10D-  0             ***   
       DIFF_TYPE            IDIFTY         RELAXED     [  0]    ***   
       DIRECT               IDIRCT         OFF         [  0]    ***   
       DROPMO               IDRPMO      NONE         
       ECP                  IECP           OFF         [  0]    ***   
       EIGENVECTOR          IVEC                1               ***   
       EL_ANHARM            IELANH         OFF         [  0]    ***   
       EOMFOLLOW            IEOMSR         ENERGY      [  0]    ***   
       EOMIP                IEOMIP         OFF         [  0]    ***   
       EOMLEVEL             HBARFM         SAME        [  0]    ***   
       EOM_MRCC             IMRCCE         NEW         [  1]    ***   
       EOM_NONIT            EOMNON         OFF         [  0]    ***   
       EOM_NSING            IEOMSI          10D-  0             ***   
       EOM_NSTATES          IMRCCD         DAVIDSON    [  0]    ***   
       EOM_NTRIP            IEOMTR          10D-  0             ***   
       EOM_ORDER            IEXORD         ENERGY      [  0]    ***   
       EOM_PROPSTA          IEOMST              0               ***   
       ESTATE_CONV          IEXTOL          10D-  5             ***   
       ESTATE_DIAG          IEXDIG         ITERATIVE   [  0]    ***   
       ESTATE_LOCK          IESLOC         ON          [  1]    ***   
       ESTATE_MAXC          IEXMXC             40               ***   
       ESTATE_PROP          IEXPRP         OFF         [  0]    ***   
       ESTATE_SYM           IEXSYM   0,  3,  0,  0,
       EVAL_HESS            IRECAL              0            # of cyc.
       EXCITATION           IEXCIT              0               ***   
       EXCITE               IEXCIT         EOMEE       [  3]    ***   
       EXTERN_POT           IEXPOT         OFF         [  0]    ***   
       FCGRADNEW            IFCGNW         OFF         [  0]    ***   
       FC_FIELD             IFINFC              0             x 10-6  
       FD_CALTYPE           IFDCAL         GRADONLY    [  0]    ***   
       FD_PROJECT           IFDPRJ         OFF         [  1]    ***   
       FD_STEPSIZE          IDISFD              0            10-4 bohr
       FD_USEGROUP          IFDGRP         FULL        [  0]    ***   
       FILE_RECSIZ          IFLREC              4096           words  
       FINITE_PERT          IFIPER              0             x 10-6  
       FIXGEOM              IFIXGM         OFF         [  0]    ***   
       FOCK                 IFOCK          AO          [  1]    ***   
       FREQ_ALGORI          IVIALG         STANDARD    [  0]    ***   
       FROZEN_CORE          IFROCO         OFF         [  0]    ***   
       GAMMA_ABCD           IGABCD         STORE       [  0]    ***   
       GAMMA_ABCI           IGABCI         STORE       [  0]    ***   
       GENBAS_1             IGNBS1              0               ***   
       GENBAS_2             IGNBS2              0               ***   
       GENBAS_3             IGNBS3              0               ***   
       GENBAS_4             IGNBS4              0               ***   
       GEO_CONV             ICONTL              5              H/bohr 
       GEO_MAXCYC           IOPTCY             50               ***   
       GEO_MAXSTEP          IMXSTP            300            millibohr
       GEO_METHOD           INR            SINGLE_POINT[  5]    ***   
       GIAO                 IGIAO          OFF         [  1]    ***   
       GIMIC                IGIMIC         OFF         [  0]    ***   
       GRID                 IGRID          OFF         [  0]    ***   
       GRID_ALGO            IGALGO         SERIAL      [  0]    ***   
       GUESS                IGUESS         MOREAD      [  0]    ***   
       HBAR                 IHBAR          ON          [  1]    ***   
       HESS_TYPE            IHESTP         SCF         [  0]    ***   
       HF2_FILE             IHF2Fl         USE         [  1]    ***   
       HFSTABILITY          ISTABL         OFF         [  0]    ***   
       INCORE               INCORE         OFF         [  0]    ***   
       INPUT_MRCC           IMRCC          ON          [  1]    ***   
       INTEGRALS            INTTYP         VMOL        [  1]    ***   
       JODA_PRINT           IJPRNT              0               ***   
       KEYWORD_OUT          IDMPKW         NO          [  0]    ***   
       LINDEP_TOL           ILINDP              8               ***   
       LINEQ_CONV           IZTACN          10D-  7           cycles  
       LINEQ_EXPOR          ILMAXD              5               ***   
       LINEQ_MAXCY          ILMAXC            100               ***   
       LINEQ_TYPE           ILTYPE         DIIS        [  1]    ***   
       LOCK_ORBOCC          ILOCOC         OFF         [  0]    ***   
       MEMORY_SIZE          IMEMSZ         *********           words  
       MEM_UNIT             IMEMU          GB          [  3]    ***   
       MRCC                 IMRCCC         OFF         [  0]    ***   
       MULTIPLICTY          IMULTP              1               ***   
       NACOUPLING           IVCOUP         OFF         [  0]    ***   
       NEGEVAL              IDIE           ABORT       [  0]    ***   
       NEWNORM              INEWNO         OFF         [  0]    ***   
       NON-HF               INONHF         OFF         [  0]    ***   
       NTOP_TAMP            ITOPT2             15               ***   
       NUC_MODEL            INUCMO         POINT       [  0]    ***   
       OCCUPATION           IOCCU   ESTIMATED BY SCF 
       OPEN-SHELL           IOPEN          SPIN-ORBITAL[  0]    ***   
       OPTVIB               IOPTVB         OFF         [  0]    ***   
       ORBITALS             IORBTP         STANDARD    [  0]    ***   
       PARALLEL             IPARAL         ON          [  1]    ***   
       PARA_INT             IPINTS         ON          [  1]    ***   
       PARA_PRINT           IPPRIN              0               ***   
       PERT_ORB             IPTORB         STANDARD    [  0]    ***   
       POINTS               IGRDFD              0               ***   
       PRINT                IPRNT               0               ***   
       PROPS                IPROPS         OFF         [  0]    ***   
       PROP_INTEGR          IINTYP         INTERNAL    [  0]    ***   
       PSI                  IPSI           OFF         [  0]    ***   
       QC_ALG               IQCALG         FLM         [  0]    ***   
       QC_LINALG            IQCLIN         TRIDIAG     [  2]    ***   
       QC_MAXCYC            IQCMAX          10D-100           cycles  
       QC_MAXSCFCY          IQCMSC          10D- 15           cycles  
       QC_RTRUST            IQCRTR          10D-  0           x 10-3  
       QC_SKIPSCF           IQCSKI         OFF         [  0]    ***   
       QC_START             IQCSTA          10D-  1             ***   
       QRHFGUESS            IQGUES         OFF         [  0]    ***   
       QUARTIC              IQUART         OFF         [  0]    ***   
       RAMAN_INT            IRAMIN         OFF         [  0]    ***   
       RAMAN_ORB            IRAMRE         UNRELAXED   [  0]    ***   
       RDO                  IRDOFM         OFF         [  0]    ***   
       REDUCE_REPR          REDREP         Ir          [  0]    ***   
       REFERENCE            IREFNC         RHF         [  0]    ***   
       RELATIVIST           IRELAT         OFF         [  0]    ***   
       RELAX_DENS           IRDENS         OFF         [  0]    ***   
       RESET_FLAGS          IRESET         OFF         [  0]    ***   
       RESTART_CC           ICCRES         OFF         [  0]    ***   
       ROT_EVEC             ROTVEC              0               ***   
       SAVE_INTS            ISVINT         OFF         [  0]    ***   
       SCALE_ON             ISTCRT              0               ***   
       SCF_CONV             ISCFCV          10D-  7             ***   
       SCF_DAMPING          IDAMP               0             x 10-3  
       SCF_EXPORDE          IRPPOR              6               ***   
       SCF_EXPSTAR          IRPPLS              8               ***   
       SCF_EXTRAPO          IRPP           ON          [  1]    ***   
       SCF_MAXCYC           ISCFCY            150              cycles 
       SCF_NOSTOP           ISCFST         OFF         [  0]    ***   
       SCF_PRINT            ISCFPR              0               ***   
       SCF_PROG             ISCFPR         SCF         [  0]    ***   
       SD_FIELD             IFINSD              0             x 10-6  
       SOPERT               IPERSO         OFF         [  0]    ***   
       SPHERICAL            IDFGHI         ON          [  1]    ***   
       SPINORBIT            ISOCAL         OFF         [  0]    ***   
       SPINROTATIO          ISRCON         OFF         [  0]    ***   
       SPIN_FLIP            ISPFLP         OFF         [  0]    ***   
       SPIN_ORBIT           ISPORB         OFF         [  0]    ***   
       SPIN_SCAL            ISCSMP         OFF         [  0]    ***   
       STEEPSCALE           ISTPSC              1000          x 10-3  
       SUBGROUP             ISUBGP         DEFAULT     [  0]    ***   
       SUBGRPAXIS           ISBXYZ         X           [  0]    ***   
       SYMMETRY             ISYM           ON          [  0]    ***   
       SYM_CHECK            ISYMCK         OVERRIDE    [  1]    ***   
       T3_EXTRAPOL          IT3EXT         OFF         [  0]    ***   
       T4_EXTRAPOL          IT4EXP         OFF         [  0]    ***   
       TAMP_SUM             IEVERY              5               ***   
       TESTSUITE            ITESTS         OFF         [  0]    ***   
       THERMOCH             ITHERM         OFF         [  0]    ***   
       TOL_CHOLESK          ITOLCH          10D-  4             ***   
       TRANGRAD             IRESRM         OFF         [  0]    ***   
       TRANS_INV            ITRAIN         USE         [  0]    ***   
       TREAT_PERT           ITREAT         SIMULTANEOUS[  0]    ***   
       TRIP_ALGORI          ITRALG         NORMAL      [  0]    ***   
       UIJ_THRESHO          IUIJTH              1               ***   
       UNITS                IUNITS         ANGSTROM    [  0]    ***   
       UNOS                 IUNOS          OFF         [  0]    ***   
       UPDATE_HESS          IHUPDT         ON          [  1]    ***   
       VIBPHASE             ISETPH         STANDARD    [  0]    ***   
       VIBRATION            IVIB           NO          [  0]    ***   
       VIB_ALGORIT          IGEALG         STANDARD    [  0]    ***   
       VNATORB              IVNORB         OFF         [  0]    ***   
       VTRAN                IVTRAN         FULL/PARTIAL[  0]    ***   
       XFIELD               IXEFLD              0             x 10-6  
       XFORM_TOL            IXFTOL          10D- 11             ***   
       YFIELD               IYEFLD              0             x 10-6  
       ZFIELD               IZEFLD              0             x 10-6  
       ZSCALE_EXP           IZEXPS         OFF         [  0]    ***   
    -------------------------------------------------------------------
  @GETXYZ-I,     7 atoms read from ZMAT.
   Rotational constants (in cm-1): 
          0.5902971912             0.8536890782             1.0356113628
   Rotational constants (in MHz): 
      17696.6670680211         25592.9582983935         31046.8519495116
********************************************************************************
   The full molecular point group is C2v .
   The largest Abelian subgroup of the full molecular point group is C2v .
   The computational point group is C2v .
********************************************************************************


 ----------------------------------------------------------------
         Coordinates used in calculation (QCOMP) 
 ----------------------------------------------------------------
 Z-matrix   Atomic            Coordinates (in bohr)
  Symbol    Number           X              Y              Z
 ----------------------------------------------------------------
     C         6         0.00000000    -1.25572327     0.23550763
     C         6         0.00000000     1.25572327     0.23550763
     H         1         1.81857454    -2.19034422     0.23550763
     H         1         1.81857454     2.19034422     0.23550763
     H         1        -1.81857454    -2.19034422     0.23550763
     H         1        -1.81857454     2.19034422     0.23550763
     H         1         0.00000000     0.00000000    -6.55032851
 ----------------------------------------------------------------
 
   Interatomic distance matrix (Angstroms) 
 
                 C             C             H             H             H    
                [ 1]        [ 2]        [ 3]        [ 4]        [ 5]
  C    [ 1]     0.00000
  C    [ 2]     1.32900     0.00000
  H    [ 3]     1.08200     2.06193     0.00000
  H    [ 4]     2.06193     1.08200     2.31816     0.00000
  H    [ 5]     1.08200     2.06193     1.92470     3.01303     0.00000
  H    [ 6]     2.06193     1.08200     3.01303     1.92470     2.31816
  H    [ 7]     3.65188     3.65188     3.89413     3.89413     3.89413
 
                 H             H    
                [ 6]        [ 7]
  H    [ 6]     0.00000
  H    [ 7]     3.89413     0.00000
 rotcon2
   Rotational constants (in cm-1): 
          0.5902971912             1.0356113628             0.8536890782
   Rotational constants (in MHz): 
      17696.6670680211         31046.8519495116         25592.9582983935
  ECPDATA file not present.   Using default ECPDATA. 
  There are   57 basis functions.
 @GEOPT-W, Archive file not created for single-point calculation.
 @CHECKOUT-I, Total execution time (CPU/WALL):        0.12/       0.13 seconds.
--executable xjoda finished with status     0 in        0.15 seconds (walltime).
 --invoking executable--
/home/tsommerfeld/zscale/bin/xvmol
 SERIAL VERSION OF MOLECULE STARTED
********************************************************************************
                    INPUT FROM MOL FILE
********************************************************************************
INTGRL        1    0    1    0    0    0    0    0    0                         
         *** CFOUR Program System (Release V0.1) ***                            
h_ethylene                                                                      
    3    2 X  Y       0.10E-08              0    0                              
   9999.00      3.00                                                            
          6.00000000    1    3    1    1    1                                   
C #1   0.000000000000000  -1.255723272983657   0.235507630016475                
    9    3                                                                      
   6665.00000000000       6.920000000000000E-004 -1.460000000000000E-004        
  0.000000000000000E+000                                                        
   1000.00000000000       5.329000000000000E-003 -1.154000000000000E-003        
  0.000000000000000E+000                                                        
   228.000000000000       2.707700000000000E-002 -5.725000000000000E-003        
  0.000000000000000E+000                                                        
   64.7100000000000       0.101718000000000      -2.331200000000000E-002        
  0.000000000000000E+000                                                        
   21.0600000000000       0.274740000000000      -6.395500000000000E-002        
  0.000000000000000E+000                                                        
   7.49500000000000       0.448564000000000      -0.149981000000000             
  0.000000000000000E+000                                                        
   2.79700000000000       0.285074000000000      -0.127262000000000             
  0.000000000000000E+000                                                        
  0.521500000000000       1.520400000000000E-002  0.544529000000000             
  0.000000000000000E+000                                                        
  0.159600000000000      -3.191000000000000E-003  0.580496000000000             
   1.00000000000000                                                             
    4    2                                                                      
   9.43900000000000       3.810900000000000E-002  0.000000000000000E+000        
   2.00200000000000       0.209480000000000       0.000000000000000E+000        
  0.545600000000000       0.508557000000000       0.000000000000000E+000        
  0.151700000000000       0.468842000000000        1.00000000000000             
    1    1                                                                      
  0.550000000000000        1.00000000000000                                     
          1.00000000    1    2    1    1                                        
H #2   1.818574537711477  -2.190344215575466   0.235507630016475                
    4    2                                                                      
   13.0100000000000       1.968500000000000E-002  0.000000000000000E+000        
   1.96200000000000       0.137977000000000       0.000000000000000E+000        
  0.444600000000000       0.478148000000000       0.000000000000000E+000        
  0.122000000000000       0.501240000000000        1.00000000000000             
    1    1                                                                      
  0.727000000000000        1.00000000000000                                     
          1.00000000    1    2    1    1                                        
H #3   0.000000000000000   0.000000000000000  -6.550328512381015                
    5    3                                                                      
   13.0100000000000       1.968500000000000E-002  0.000000000000000E+000        
  0.000000000000000E+000                                                        
   1.96200000000000       0.137977000000000       0.000000000000000E+000        
  0.000000000000000E+000                                                        
  0.444600000000000       0.478148000000000       0.000000000000000E+000        
  0.000000000000000E+000                                                        
  0.122000000000000       0.501240000000000        1.00000000000000             
  0.000000000000000E+000                                                        
  2.974000000000000E-002  0.000000000000000E+000  0.000000000000000E+000        
   1.00000000000000                                                             
    2    2                                                                      
  0.727000000000000        1.00000000000000       0.000000000000000E+000        
  0.141000000000000       0.000000000000000E+000   1.00000000000000             
FINISH                                                                          
 
********************************************************************************
 ONE- AND TWO-ELECTRON INTEGRALS OVER SYMMETRY-ADAPTED AOS ARE CALCULATED.

  SPHERICAL HARMONICS ARE USED.
  
  INTEGRALS LESS THAN  0.10E-13 ARE NEGLECTED.

  NUCLEAR REPULSION ENERGY :   35.8716473615 A.U.
  @MOLECU-I, ONE ELECTRON INTEGRALS (CPU/WALL):        0.01/       0.01 SECONDS.
  @TWOEL-I,      29550 INTEGRALS OF SYMMETRY TYPE  I I I I
  @TWOEL-I,     102148 INTEGRALS OF SYMMETRY TYPE  I J I J
  @TWOEL-I,      58057 INTEGRALS OF SYMMETRY TYPE  I I J J
  @TWOEL-I,      75376 INTEGRALS OF SYMMETRY TYPE  I J K L
  @TWOEL-I, TOTAL NUMBER OF 2-E INTEGRALS     265131.
  @MOLECU-I, TWO ELECTRON INTEGRALS (CPU/WALL):        0.22/       0.23 SECONDS.
 @CHECKOUT-I, Total execution time (CPU/WALL):        0.24/       0.25 seconds.

Running with 8 threads/proc

--executable xvmol finished with status     0 in        0.27 seconds (walltime).
 --invoking executable--
/home/tsommerfeld/zscale/bin/xvmol2ja
 @GETMEM-I,  Allocated   85830 MB of main memory.
 @CHECKOUT-I, Total execution time (CPU/WALL):        0.02/       0.01 seconds.
--executable xvmol2ja finished with status     0 in        0.03 seconds (walltime).
 --invoking executable--
/home/tsommerfeld/zscale/bin/xvscf
  There are   57 functions in the AO basis.

  There are 4 irreducible representations.

       Irrep        # of functions
         1                 20
         2                 11
         3                 17
         4                  9


  Parameters for SCF calculation: 
        SCF reference function:  RHF  
  Maximum number of iterations:  150
     Full symmetry point group: C2v 
     Computational point group: C2v 
        Initial density matrix: MOREAD                 
     SCF convergence tolerance: 10**(- 7)
  DIIS convergence acceleration:  ON
          Latest start for DIIS:   8
                     DIIS order:   6

  Memory information:     156410 words required.
  Fock matrices are constructed from AO integral file.
 @GETMEM-I,  Allocated       1 MB of main memory.
  Initialization and symmetry analysis required      0.002 seconds.

  @INITGES-I, Occupancies from core Hamiltonian:

          Alpha population by irrep:   3    1    4    1
           Beta population by irrep:   3    1    4    1


 total no. of electrons in initial guess :  0.000000000000000E+000
  --------------------------------------------------------------------
  Iteration         Total Energy            Largest Density Difference
  --------------------------------------------------------------------
       0            35.871647361497850              0.0000000000D+00
   current occupation vector 
     3  1  4  1
     3  1  4  1
       1           -61.036214206777586              0.8823791466D+01
   current occupation vector 
     3  1  4  1
     3  1  4  1
       2           -54.371192275411019              0.8686664142D+01
   current occupation vector 
     4  2  3  0
     4  2  3  0
       3           -70.306794297229203              0.4072013942D+01
   current occupation vector 
     4  1  3  1
     4  1  3  1
       4           -57.675320479139216              0.4123154528D+01
   current occupation vector 
     5  1  3  0
     5  1  3  0
       5           -71.246443137194774              0.4123236098D+01
   current occupation vector 
     4  1  3  1
     4  1  3  1
       6           -58.149200322874393              0.4090505910D+01
   current occupation vector 
     5  1  3  0
     5  1  3  0
       7           -71.368699488906827              0.4090509883D+01
   current occupation vector 
     4  1  3  1
     4  1  3  1
       8           -58.210144202861585              0.4085171576D+01
   current occupation vector 
     5  1  3  0
     5  1  3  0
       9           -76.404048385940243              0.4085007884D+01
   current occupation vector 
     4  1  3  1
     4  1  3  1
      10           -77.565197778829088              0.6574250183D+00
   current occupation vector 
     4  1  3  1
     4  1  3  1
      11           -78.275769546944545              0.1839841256D+01
   current occupation vector 
     5  1  2  1
     5  1  2  1
      12           -78.371870369024180              0.3945285800D+00
   current occupation vector 
     5  1  2  1
     5  1  2  1
      13           -78.491153174938844              0.5313325655D+00
   current occupation vector 
     5  1  2  1
     5  1  2  1
      14           -78.514638539828553              0.2129578199D+00
   current occupation vector 
     5  1  2  1
     5  1  2  1
      15           -78.514975801673700              0.3467104899D-01
   current occupation vector 
     5  1  2  1
     5  1  2  1
      16           -78.514983150024221              0.5481227036D-02
   current occupation vector 
     5  1  2  1
     5  1  2  1
      17           -78.514983546146667              0.7726048307D-03
   current occupation vector 
     5  1  2  1
     5  1  2  1
      18           -78.514983556530368              0.1059859040D-03
   current occupation vector 
     5  1  2  1
     5  1  2  1
      19           -78.514983556909215              0.1624401889D-04
   current occupation vector 
     5  1  2  1
     5  1  2  1
      20           -78.514983556932194              0.4298760643D-05
   current occupation vector 
     5  1  2  1
     5  1  2  1
      21           -78.514983556933089              0.7507294770D-06
   current occupation vector 
     5  1  2  1
     5  1  2  1
      22           -78.514983556933117              0.1429806436D-06
   current occupation vector 
     5  1  2  1
     5  1  2  1

  SCF has converged.

 Density matrix saved to file den.dat
 total electron number:   18.0000000000000     
     E(SCF)=       -78.514983556933089              0.5906198841D-07


  Final occupancies:

     Alpha population by irrep:   5    1    2    1
      Beta population by irrep:   5    1    2    1


  Eigenvector printing suppressed.

 @PUTMOS-I, Writing converged MOs to NEWMOS. 
 @PUTMOS-I, Symmetry   1 Full Blocks  5 Partial Blocksize   0
 @PUTMOS-I, Symmetry   2 Full Blocks  2 Partial Blocksize   3
 @PUTMOS-I, Symmetry   3 Full Blocks  4 Partial Blocksize   1
 @PUTMOS-I, Symmetry   4 Full Blocks  2 Partial Blocksize   1
 @PUTFOCK-I, Writing converged Fock matrix to NEWFOCK. 
 @PUTFOCK-I, Symmetry   1 Full Blocks  5 Partial Blocksize   0
 @PUTFOCK-I, Symmetry   2 Full Blocks  2 Partial Blocksize   3
 @PUTFOCK-I, Symmetry   3 Full Blocks  4 Partial Blocksize   1
 @PUTFOCK-I, Symmetry   4 Full Blocks  2 Partial Blocksize   1


 
  ORBITAL EIGENVALUES (ALPHA)  (1H = 27.2113834 eV)

       MO #        E(hartree)               E(eV)           FULLSYM    COMPSYM
       ----   --------------------   --------------------   -------   ---------
    1     1         -11.0987253733        -302.0116713847      A1        A1 (1)
    2    32         -11.0970163607        -301.9651667862      B2        B2 (3)
    3     2          -0.9025922607         -24.5607840584      A1        A1 (1)
    4    33          -0.6459721933         -17.5777970184      B2        B2 (3)
    5    21          -0.5236844941         -14.2501795506      B1        B1 (2)
    6     3          -0.4304321678         -11.7126547467      A1        A1 (1)
    7    49          -0.3805060867         -10.3540970108      A2        A2 (4)
    8     4          -0.2379113561          -6.4738971258      A1        A1 (1)
    9     5          -0.0384017999          -1.0449661003      A1        A1 (1)
  +++++++++++++++++++++++++++++++++++++++++++++++++++++++++++++++++++++++++++++
   10     6           0.2860568459           7.7840025079      A1        A1 (1)
   11    34           0.3065235432           8.3409296546      B2        B2 (3)
   12     7           0.3361696357           9.1476408436      A1        A1 (1)
   13    22           0.3506458012           9.5415573329      B1        B1 (2)
   14    35           0.3675790195          10.0023336297      B2        B2 (3)
   15    50           0.4222331676          11.4895486073      A2        A2 (4)
   16     8           0.5590953553          15.2137580700      A1        A1 (1)
   17    23           0.5628420809          15.3157116567      B1        B1 (2)
   18    36           0.5634265892          15.3316169375      B2        B2 (3)
   19    37           0.5732688356          15.5994380765      B2        B2 (3)
   20     9           0.6910477411          18.8043650318      A1        A1 (1)
   21    24           0.7890102776          21.4700611715      B1        B1 (2)
   22    10           0.8209284089          22.3385976792      A1        A1 (1)
   23    11           0.9200583610          25.0360608111      A1        A1 (1)
   24    38           0.9242177199          25.1492427212      B2        B2 (3)
   25    39           0.9567211237          26.0337053042      B2        B2 (3)
   26    25           0.9955708616          27.0908604173      B1        B1 (2)
   27    51           1.0687860845          29.0831479180      A2        A2 (4)
   28    12           1.0860242271          29.5522216263      A1        A1 (1)
   29    40           1.0962568408          29.8306651994      B2        B2 (3)
   30    13           1.1696568565          31.8279811689      A1        A1 (1)
   31    26           1.2524602582          34.0811762798      B1        B1 (2)
   32    41           1.3729897721          37.3609510919      B2        B2 (3)
   33    52           1.4206293708          38.6572904784      A2        A2 (4)
   34    14           1.4278833267          38.8546806522      A1        A1 (1)
   35    53           1.4783608588          40.2282441331      A2        A2 (4)
   36    15           1.7304438451          47.0877709220      A1        A1 (1)
   37    54           1.7460072835          47.5112736104      A2        A2 (4)
   38    27           1.8228549629          49.6024052783      B1        B1 (2)
   39    42           1.9633912646          53.4265924654      B2        B2 (3)
   40    43           2.0094220185          54.6791529576      B2        B2 (3)
   41    16           2.0555562683          55.9345297175      A1        A1 (1)
   42    17           2.0666108495          56.2353401634      A1        A1 (1)
   43    28           2.1192967243          57.6689957033      B1        B1 (2)
   44    29           2.1492825828          58.4849523950      B1        B1 (2)
   45    30           2.1541162788          58.6164839501      B1        B1 (2)
   46    44           2.1563542823          58.6773831228      B2        B2 (3)
   47    18           2.1976763734          59.8018143853      A1        A1 (1)
   48    45           2.3040704294          62.6969438356      B2        B2 (3)
   49    46           2.4010989632          65.3372244694      B2        B2 (3)
   50    55           2.5494616322          69.3743779374      A2        A2 (4)
   51    19           2.5500473398          69.3903158503      A1        A1 (1)
   52    56           2.6205482406          71.3087428936      A2        A2 (4)
   53    47           2.6638531216          72.4871286130      B2        B2 (3)
   54    31           2.9209458048          79.4829761858      B1        B1 (2)
   55    20           2.9230377502          79.5399009141      A1        A1 (1)
   56    48           3.3637700606          91.5328367883      B2        B2 (3)
   57    57           3.4723836306          94.4883622828      A2        A2 (4)


  VSCF finished.

 @CHECKOUT-I, Total execution time (CPU/WALL):        0.25/       0.11 seconds.
--executable xvscf finished with status     0 in        0.13 seconds (walltime).
 --invoking executable--
/home/tsommerfeld/zscale/bin/xvtran
 @GETMEM-I,  Allocated   85830 MB of main memory.
  Full RHF integral transformation
  Transformation of IIII integrals :
  1 pass through the AO integral file was required.
       29550 AO integrals were read.
       37182 MO integrals were written to HF2.
  Transformation of IIJJ integrals :
  1 pass through the AO integral file was required.
       58057 AO integrals were read.
       75393 MO integrals were written to HF2.
  Transformation of IJIJ integrals :
  1 pass through the AO integral file was required.
      102148 AO integrals were read.
      132879 MO integrals were written to HF2.
  Transformation of IJKL integrals :
  1 pass through the AO integral file was required.
       75376 AO integrals were read.
      100980 MO integrals were written to HF2.
  Summary of active molecular orbitals: 
------------------------------------------------------------------------
 
  Index      Eigenvalue    Symmetry    Index      Eigenvalue    Symmetry
------------------------------------------------------------------------
     1       -11.0987254        1        30         1.8228550        2
     2        -0.9025923        1        31         2.1192967        2
     3        -0.4304322        1        32         2.1492826        2
     4        -0.2379114        1        33         2.1541163        2
     5        -0.0384018        1        34         2.9209458        2
     6        -0.5236845        2        35         0.3065235        3
     7       -11.0970164        3        36         0.3675790        3
     8        -0.6459722        3        37         0.5634266        3
     9        -0.3805061        4        38         0.5732688        3
    10         0.2860568        1        39         0.9242177        3
    11         0.3361696        1        40         0.9567211        3
    12         0.5590954        1        41         1.0962568        3
    13         0.6910477        1        42         1.3729898        3
    14         0.8209284        1        43         1.9633913        3
    15         0.9200584        1        44         2.0094220        3
    16         1.0860242        1        45         2.1563543        3
    17         1.1696569        1        46         2.3040704        3
    18         1.4278833        1        47         2.4010990        3
    19         1.7304438        1        48         2.6638531        3
    20         2.0555563        1        49         3.3637701        3
    21         2.0666108        1        50         0.4222332        4
    22         2.1976764        1        51         1.0687861        4
    23         2.5500473        1        52         1.4206294        4
    24         2.9230378        1        53         1.4783609        4
    25         0.3506458        2        54         1.7460073        4
    26         0.5628421        2        55         2.5494616        4
    27         0.7890103        2        56         2.6205482        4
    28         0.9955709        2        57         3.4723836        4
    29         1.2524603        2
------------------------------------------------------------------------
  -11.0987253733190      -0.902592260650144      -0.430432167835876     
 -0.237911356090622      -3.840179990073148E-002 -0.523684494135961     
  -11.0970163606692      -0.645972193327736      -0.380506086683645     
  0.286056845897130       0.336169635669411       0.559095355293212     
  0.691047741136760       0.820928408922963       0.920058360982136     
   1.08602422713560        1.16965685650975        1.42788332665961     
   1.73044384513022        2.05555626831872        2.06661084946357     
   2.19767637338582        2.55004733975750        2.92303775022687     
  0.350645801159081       0.562842080888882       0.789010277643934     
  0.995570861614309        1.25246025822501        1.82285496290889     
   2.11929672429957        2.14928258277956        2.15411627878089     
   2.92094580482759       0.306523543179495       0.367579019512035     
  0.563426589237569       0.573268835588519       0.924217719895924     
  0.956721123713262        1.09625684078409        1.37298977206290     
   1.96339126460470        2.00942201849398        2.15635428233231     
   2.30407042942104        2.40109896321378        2.66385312159466     
   3.36377006059684       0.422233167583125        1.06878608450388     
   1.42062937080886        1.47836085882604        1.74600728349773     
   2.54946163220228        2.62054824061430        3.47238363055142     
 @CHECKOUT-I, Total execution time (CPU/WALL):        0.54/       0.09 seconds.
--executable xvtran finished with status     0 in        0.11 seconds (walltime).
 --invoking executable--
/home/tsommerfeld/zscale/bin/xintprc
 @GETMEM-I,  Allocated   85830 MB of main memory.
  Processing integrals for CCSD calculation.
  @GMOIAA-I, Processing MO integrals for spin case AA.
  @GMOIAA-I, Generation of integral list completed.
                      TYPE                NUMBER
                      ----               --------
                      PPPP                174781
                      PPPH                128448
                      PPHH                 24003
                      PHPH                 13755
                      PHHH                  5115
                      HHHH                   332

                     TOTAL                346434

  @FORMT2-I, Second-order MP correlation energies:
            ------------------------------------------------
            E(SCF)                  =    -78.514983556933 a.u.
            E2(AA)                  =     -0.031431382895 a.u.
            E2(AB)                  =     -0.244656035377 a.u.
            E2(TOT)                 =     -0.307518801166 a.u.
            Total MP2 energy        =    -78.822502358099 a.u.
            ------------------------------------------------
   Largest T2 amplitudes for spin case AB:
       _       _                 _       _                 _       _
   i   j   a   b             i   j   a   b             i   j   a   b
-----------------------------------------------------------------------------
[  4   4  35  35]-0.09134 [  5   5  10  10]-0.08229 [  5   5  26  26]-0.04456
[  5   5  12  12]-0.03950 [  5   5  37  37]-0.03849 [  4   4  35  40] 0.02838
[  4   4  40  35] 0.02838 [  5   5  16  10] 0.02785 [  5   5  10  16] 0.02785
[  4   3  35  41] 0.02661 [  3   4  41  35] 0.02661 [  5   5  16  16]-0.02661
[  4   4  14  14]-0.02612 [  5   5  11  10] 0.02592 [  5   5  10  11] 0.02592
-----------------------------------------------------------------------------
   Norm of T2AB vector (    47574 symmetry allowed elements):  0.3162333603.
-----------------------------------------------------------------------------
 @CHECKOUT-I, Total execution time (CPU/WALL):        0.40/       0.09 seconds.
--executable xintprc finished with status     0 in        0.11 seconds (walltime).
  calling xvcc 
 --invoking executable--
/home/tsommerfeld/zscale/bin/xvcc
 @GETMEM-I,  Allocated   85830 MB of main memory.
   CCSD energy will be calculated.
   The total correlation energy is -0.307518801166 a.u.
   The total correlation energy is -0.333285409262 a.u.
  Convergence information after     1 iterations: 
  Largest element of residual vector : -0.32094464E-01.
  Largest element of DIIS residual   : -0.32094464E-01.
   The total correlation energy is -0.343317053313 a.u.
  Convergence information after     2 iterations: 
  Largest element of residual vector : -0.15119712E-01.
  Largest element of DIIS residual   : -0.10367036E-01.
   The total correlation energy is -0.347416657675 a.u.
  Convergence information after     3 iterations: 
  Largest element of residual vector : -0.53623875E-02.
  Largest element of DIIS residual   : -0.44000368E-02.
   The total correlation energy is -0.348483821455 a.u.
  Convergence information after     4 iterations: 
  Largest element of residual vector : -0.24298413E-02.
  Largest element of DIIS residual   : -0.12950496E-02.
   The total correlation energy is -0.348668688883 a.u.
  Convergence information after     5 iterations: 
  Largest element of residual vector : -0.64845230E-03.
  Largest element of DIIS residual   : -0.31807980E-03.
   The total correlation energy is -0.348665054453 a.u.
  Convergence information after     6 iterations: 
  Largest element of residual vector : -0.19530354E-03.
  Largest element of DIIS residual   :  0.18155099E-03.
   The total correlation energy is -0.348654996403 a.u.
  Convergence information after     7 iterations: 
  Largest element of residual vector :  0.86841274E-04.
  Largest element of DIIS residual   : -0.48249729E-04.
   The total correlation energy is -0.348648032546 a.u.
  Convergence information after     8 iterations: 
  Largest element of residual vector :  0.33565665E-04.
  Largest element of DIIS residual   : -0.19221343E-04.
   The total correlation energy is -0.348647365448 a.u.
  Convergence information after     9 iterations: 
  Largest element of residual vector : -0.12120513E-04.
  Largest element of DIIS residual   : -0.10125514E-04.
   The total correlation energy is -0.348647794876 a.u.
  Convergence information after    10 iterations: 
  Largest element of residual vector : -0.51089608E-05.
  Largest element of DIIS residual   : -0.48888673E-05.
   The total correlation energy is -0.348648338805 a.u.
  Convergence information after    11 iterations: 
  Largest element of residual vector : -0.31858848E-05.
  Largest element of DIIS residual   : -0.23231303E-05.
   The total correlation energy is -0.348648746763 a.u.
  Convergence information after    12 iterations: 
  Largest element of residual vector : -0.13290264E-05.
  Largest element of DIIS residual   : -0.78811841E-06.
   The total correlation energy is -0.348648918405 a.u.
  Convergence information after    13 iterations: 
  Largest element of residual vector : -0.51885191E-06.
  Largest element of DIIS residual   : -0.36864684E-06.
   The total correlation energy is -0.348648940738 a.u.
  Convergence information after    14 iterations: 
  Largest element of residual vector : -0.20803369E-06.
  Largest element of DIIS residual   :  0.16604084E-06.
   The total correlation energy is -0.348648936224 a.u.
  Convergence information after    15 iterations: 
  Largest element of residual vector : -0.94528638E-07.
  Largest element of DIIS residual   :  0.85518981E-07.
  Amplitude equations converged in    15iterations.
   The total correlation energy is -0.348648929716 a.u.
   The CC iterations have converged.

   Largest T1 amplitudes for spin case AA:
   i       a                 i       a                 i       a    
-----------------------------------------------------------------------------
[  5      10    ]-0.02454 [  4      14    ]-0.01716 [  4      18    ] 0.01612
[  4      15    ] 0.01357 [  5      16    ]-0.01153 [  5      17    ] 0.00906
[  4      12    ] 0.00839 [  6      27    ]-0.00624 [  4      21    ]-0.00561
[  3      13    ]-0.00475 [  9      56    ] 0.00448 [  9      50    ]-0.00442
[  3      23    ] 0.00402 [  6      30    ] 0.00398 [  3      19    ]-0.00374
-----------------------------------------------------------------------------
   Norm of T1AA vector (      123 symmetry allowed elements):  0.0444543263.
-----------------------------------------------------------------------------
   Largest T2 amplitudes for spin case AB:
       _       _                 _       _                 _       _
   i   j   a   b             i   j   a   b             i   j   a   b
-----------------------------------------------------------------------------
[  5   5  10  10]-0.15115 [  4   4  35  35]-0.13399 [  5   5  26  26]-0.06262
[  5   5  12  12]-0.05498 [  5   5  37  37]-0.05390 [  5   5  16  10] 0.05284
[  5   5  10  16] 0.05284 [  5   5  11  10] 0.04704 [  5   5  10  11] 0.04704
[  4   4  40  35] 0.03930 [  4   4  35  40] 0.03930 [  5   5  17  10]-0.03165
[  5   5  10  17]-0.03165 [  5   5  16  16]-0.03063 [  4   3  35  41] 0.02487
-----------------------------------------------------------------------------
   Norm of T2AB vector (    47574 symmetry allowed elements):  0.4110867678.
-----------------------------------------------------------------------------
       Summary of iterative solution of CC equations 
      -----------------------------------------------------------
                       Correlation           Total
       Iteration         Energy              Energy
      -----------------------------------------------------------
            0        -0.307518801166     -78.822502358099  DIIS 
            1        -0.333285409262     -78.848268966195  DIIS 
            2        -0.343317053313     -78.858300610246  DIIS 
            3        -0.347416657675     -78.862400214608  DIIS 
            4        -0.348483821455     -78.863467378388  DIIS 
            5        -0.348668688883     -78.863652245816  DIIS 
            6        -0.348665054453     -78.863648611387  DIIS 
            7        -0.348654996403     -78.863638553336  DIIS 
            8        -0.348648032546     -78.863631589479  DIIS 
            9        -0.348647365448     -78.863630922381  DIIS 
           10        -0.348647794876     -78.863631351809  DIIS 
           11        -0.348648338805     -78.863631895738  DIIS 
           12        -0.348648746763     -78.863632303696  DIIS 
           13        -0.348648918405     -78.863632475338  DIIS 
           14        -0.348648940738     -78.863632497672  DIIS 
           15        -0.348648929716     -78.863632486649  DIIS 
      -----------------------------------------------------------
      A miracle has come to pass. The CC iterations have converged.
      The reference energy is       -78.51498355693309 a.u.
      The correlation energy is      -0.34864892971556 a.u.
      The total energy is           -78.86363248664865 a.u.
 @CHECKOUT-I, Total execution time (CPU/WALL):        5.11/       0.65 seconds.
--executable xvcc finished with status     0 in        0.67 seconds (walltime).
 --invoking executable--
/home/tsommerfeld/zscale/bin/xlambda
 @GETMEM-I,  Allocated   85830 MB of main memory.
 Hbar is calculated for a CCSD wave function.
 Calculation of Hbar completed.
 @CHECKOUT-I, Total execution time (CPU/WALL):        0.82/       0.11 seconds.
--executable xlambda finished with status     0 in        0.13 seconds (walltime).
 --invoking executable--
/home/tsommerfeld/zscale/bin/xvee
 @GETMEM-I,  Allocated   85830 MB of main memory.
  cc2 and ccprog  F                     0
  EOMEE-CCSD excitation energies will be evaluated.
  @SETMET-I, VPROP property integrals are used.
  @SETMET-I, A total of   3 target states will be studied.
  Summary of active alpha molecular orbitals:
------------------------------------------------------------------------------
Orbital      Sym   Eigenvalue  <xx>     <yy>     <zz>     <xy>     <xz>     <yz>
        SCF
  #  position
------------------------------------------------------------------------------
   1      1    1     -11.0987   0.000    0.000    0.000    0.000    0.000    0.000
   2      3    1      -0.9026   0.000    0.000    0.000    0.000    0.000    0.000
   3      6    1      -0.4304   0.000    0.000    0.000    0.000    0.000    0.000
   4      8    1      -0.2379   0.000    0.000    0.000    0.000    0.000    0.000
   5      9    1      -0.0384   0.000    0.000    0.000    0.000    0.000    0.000
   6      5    2      -0.5237   0.000    0.000    0.000    0.000    0.000    0.000
   7      2    3     -11.0970   0.000    0.000    0.000    0.000    0.000    0.000
   8      4    3      -0.6460   0.000    0.000    0.000    0.000    0.000    0.000
   9      7    4      -0.3805   0.000    0.000    0.000    0.000    0.000    0.000
  10     10    1       0.2861   0.000    0.000    0.000    0.000    0.000    0.000
  11     12    1       0.3362   0.000    0.000    0.000    0.000    0.000    0.000
  12     16    1       0.5591   0.000    0.000    0.000    0.000    0.000    0.000
  13     20    1       0.6910   0.000    0.000    0.000    0.000    0.000    0.000
  14     22    1       0.8209   0.000    0.000    0.000    0.000    0.000    0.000
  15     23    1       0.9201   0.000    0.000    0.000    0.000    0.000    0.000
  16     28    1       1.0860   0.000    0.000    0.000    0.000    0.000    0.000
  17     30    1       1.1697   0.000    0.000    0.000    0.000    0.000    0.000
  18     34    1       1.4279   0.000    0.000    0.000    0.000    0.000    0.000
  19     36    1       1.7304   0.000    0.000    0.000    0.000    0.000    0.000
  20     41    1       2.0556   0.000    0.000    0.000    0.000    0.000    0.000
  21     42    1       2.0666   0.000    0.000    0.000    0.000    0.000    0.000
  22     47    1       2.1977   0.000    0.000    0.000    0.000    0.000    0.000
  23     51    1       2.5500   0.000    0.000    0.000    0.000    0.000    0.000
  24     55    1       2.9230   0.000    0.000    0.000    0.000    0.000    0.000
  25     13    2       0.3506   0.000    0.000    0.000    0.000    0.000    0.000
  26     17    2       0.5628   0.000    0.000    0.000    0.000    0.000    0.000
  27     21    2       0.7890   0.000    0.000    0.000    0.000    0.000    0.000
  28     26    2       0.9956   0.000    0.000    0.000    0.000    0.000    0.000
  29     31    2       1.2525   0.000    0.000    0.000    0.000    0.000    0.000
  30     38    2       1.8229   0.000    0.000    0.000    0.000    0.000    0.000
  31     43    2       2.1193   0.000    0.000    0.000    0.000    0.000    0.000
  32     44    2       2.1493   0.000    0.000    0.000    0.000    0.000    0.000
  33     45    2       2.1541   0.000    0.000    0.000    0.000    0.000    0.000
  34     54    2       2.9209   0.000    0.000    0.000    0.000    0.000    0.000
  35     11    3       0.3065   0.000    0.000    0.000    0.000    0.000    0.000
  36     14    3       0.3676   0.000    0.000    0.000    0.000    0.000    0.000
  37     18    3       0.5634   0.000    0.000    0.000    0.000    0.000    0.000
  38     19    3       0.5733   0.000    0.000    0.000    0.000    0.000    0.000
  39     24    3       0.9242   0.000    0.000    0.000    0.000    0.000    0.000
  40     25    3       0.9567   0.000    0.000    0.000    0.000    0.000    0.000
  41     29    3       1.0963   0.000    0.000    0.000    0.000    0.000    0.000
  42     32    3       1.3730   0.000    0.000    0.000    0.000    0.000    0.000
  43     39    3       1.9634   0.000    0.000    0.000    0.000    0.000    0.000
  44     40    3       2.0094   0.000    0.000    0.000    0.000    0.000    0.000
  45     46    3       2.1564   0.000    0.000    0.000    0.000    0.000    0.000
  46     48    3       2.3041   0.000    0.000    0.000    0.000    0.000    0.000
  47     49    3       2.4011   0.000    0.000    0.000    0.000    0.000    0.000
  48     53    3       2.6639   0.000    0.000    0.000    0.000    0.000    0.000
  49     56    3       3.3638   0.000    0.000    0.000    0.000    0.000    0.000
  50     15    4       0.4222   0.000    0.000    0.000    0.000    0.000    0.000
  51     27    4       1.0688   0.000    0.000    0.000    0.000    0.000    0.000
  52     33    4       1.4206   0.000    0.000    0.000    0.000    0.000    0.000
  53     35    4       1.4784   0.000    0.000    0.000    0.000    0.000    0.000
  54     37    4       1.7460   0.000    0.000    0.000    0.000    0.000    0.000
  55     50    4       2.5495   0.000    0.000    0.000    0.000    0.000    0.000
  56     52    4       2.6205   0.000    0.000    0.000    0.000    0.000    0.000
  57     57    4       3.4724   0.000    0.000    0.000    0.000    0.000    0.000
------------------------------------------------------------------------------
  @DRVTDA-I, Roots obtained by Davidson method.
  calling tda davidson                       6                     2
  after tda davidson                      6                     6
                     3                     3
  kroot is                      3
__________________________________________________________________________
    Tamm-Dancoff (CIS) Excitation Energies and Transition Moments

                Excitation         Transition Dipole         Oscillator
 Root  Symmetry  Energy         x           y           z     Strength
__________________________________________________________________________
   1       2    0.26198      0.0000      0.0000      0.0000  .00000000D+00
__________________________________________________________________________
 
__________________________________________________________________________
  TDA excitation ergy:             0.261977696558 a.u.    7.1288 eV
  Total TDA electronic energy:   -78.253005860375 a.u.
 
  Dominant contributions: 
  SCF eigenvalue ordering used in list below. 
--------------------------------------------------------------------------------
    I    j    A    b
--------------------------------------------------------------------------------
    9    0   13    0  -0.9901671970 AA  
    8    0   13    0  -0.1254161611 AA  
    9    0   17    0   0.0427745200 AA  
    8    0   26    0  -0.0222775101 AA  
    7    0   11    0   0.0179568946 AA  
    8    0   21    0   0.0169495909 AA  
    6    0   13    0   0.0130233447 AA  
    9    0   26    0  -0.0125503708 AA  
    7    0   14    0   0.0123063756 AA  
    9    0   21    0   0.0113925662 AA  
    5    0   12    0   0.0088470956 AA  
    8    0   17    0  -0.0066897012 AA  
    5    0   10    0   0.0044140611 AA  
    4    0   15    0   0.0043866115 AA  
    7    0   19    0  -0.0039113010 AA  
--------------------------------------------------------------------------------
   2       2    0.33765      0.0000      0.0000      0.0000  .00000000D+00
__________________________________________________________________________
 
__________________________________________________________________________
  TDA excitation ergy:             0.337649981485 a.u.    9.1879 eV
  Total TDA electronic energy:   -78.177333575448 a.u.
 
  Dominant contributions: 
  SCF eigenvalue ordering used in list below. 
--------------------------------------------------------------------------------
    I    j    A    b
--------------------------------------------------------------------------------
    8    0   13    0  -0.9623913661 AA  
    7    0   11    0   0.1769811348 AA  
    9    0   13    0   0.1291214394 AA  
    8    0   26    0  -0.1114902519 AA  
    8    0   21    0   0.1038804822 AA  
    8    0   17    0  -0.0315683341 AA  
    9    0   17    0  -0.0203562955 AA  
    7    0   25    0  -0.0190569940 AA  
    9    0   21    0   0.0113100349 AA  
    9    0   26    0  -0.0105784344 AA  
    8    0   43    0   0.0096455043 AA  
    7    0   18    0  -0.0087997384 AA  
    7    0   24    0  -0.0085494162 AA  
    8    0   38    0  -0.0082827230 AA  
    5    0   34    0   0.0080055121 AA  
--------------------------------------------------------------------------------
   3       2    0.36565      0.0000      0.0000      0.0000  .00000000D+00
__________________________________________________________________________
 
__________________________________________________________________________
  TDA excitation ergy:             0.365648235304 a.u.    9.9498 eV
  Total TDA electronic energy:   -78.149335321630 a.u.
 
  Dominant contributions: 
  SCF eigenvalue ordering used in list below. 
--------------------------------------------------------------------------------
    I    j    A    b
--------------------------------------------------------------------------------
    7    0   11    0  -0.9696863573 AA  
    8    0   13    0  -0.1766116332 AA  
    9    0   17    0  -0.1127092937 AA  
    7    0   25    0   0.0880007741 AA  
    7    0   18    0   0.0443340396 AA  
    5    0   34    0  -0.0410568201 AA  
    7    0   24    0   0.0380241229 AA  
    7    0   14    0  -0.0269301677 AA  
    8    0   26    0  -0.0217115052 AA  
    5    0   22    0   0.0209247937 AA  
    7    0   19    0  -0.0180818719 AA  
    5    0   16    0  -0.0153304442 AA  
    5    0   23    0  -0.0138884749 AA  
    5    0   42    0   0.0128069110 AA  
    4    0   33    0   0.0121580000 AA  
--------------------------------------------------------------------------------
__________________________________________________________________________
  @DOEOMEE-I, Excitation energies computed by the EOMEE-CCSD/CCSD-LR method.
  @DOEOMEE-I, right-hand eigenvectors will be computed.
  Beginning symmetry block   2.   3 roots requested.
  @DOEOMEE-I, Matrix dimension for diagonalization:    45852
  Creating initial guess for root
________________________________________________________________________
            Subspace          Eigenvalue           
 Iteration  Dimension   (a.u.)         (eV)       Overlap      Residual
________________________________________________________________________
  @NEWGES-I, Using TDA initial guess.
  1   1  0.3137564648D+00  0.8537747458D+01  0.0000000000D+00  0.1439864568D+01
  2   2  0.2367106263D+00  0.6441223608D+01  0.9376004301D+00  0.2094670684D+00
  3   3  0.2251038685D+00  0.6125387671D+01  0.9847903213D+00  0.5024919780D-01
  4   4  0.2231726232D+00  0.6072835814D+01  0.9986694792D+00  0.2783829067D-01
  5   5  0.2228124742D+00  0.6063035661D+01  0.9993860426D+00  0.7973703805D-02
  6   6  0.2227626654D+00  0.6061680294D+01  0.9999079897D+00  0.4366708933D-02
  L-O-C-K-I-N-G O-N R-O-O-T 
  7   7  0.2227708274D+00  0.6061902394D+01  0.9999894401D+00  0.1002757851D-02
  8   8  0.2227697291D+00  0.6061872507D+01  0.9999994741D+00  0.6395732338D-03
  9   9  0.2227678627D+00  0.6061821722D+01  0.9999996094D+00  0.1767618844D-03
 10  10  0.2227679572D+00  0.6061824293D+01  0.9999999616D+00  0.1417139943D-03
 11  11  0.2227680840D+00  0.6061827744D+01  0.9999999877D+00  0.3178160810D-04
 12  12  0.2227681021D+00  0.6061828234D+01  0.9999999993D+00  0.1064361511D-04
 13  13  0.2227681408D+00  0.6061829290D+01  0.9999999999D+00  0.3062582202D-05
  Converged eigenvalue:   0.222768140834680       a.u.
   Total EOMEE-CCSD electronic energy      -78.640864345813981 a.u.
  Converged eigenvector 
  SCF eigenvalue ordering used in list below. 
--------------------------------------------------------------------------------
    I    j    A    b
--------------------------------------------------------------------------------
    9    0   13    0  -0.6515974556 AA  
    9    9   13   10  -0.2197595336 ABAB
    9    9   10   13  -0.2197595336 ABAB
    9    9   13   28   0.0698802201 ABAB
    9    9   28   13   0.0698802201 ABAB
    9    9   13   12   0.0609267119 ABAB
    9    9   12   13   0.0609267119 ABAB
    9    9   13   30  -0.0426426097 ABAB
    9    9   30   13  -0.0426426097 ABAB
    9    9   13   16   0.0362897508 ABAB
    9    9   16   13   0.0362897508 ABAB
    9    8   15   11   0.0325090600 ABAB
    8    9   11   15   0.0325090600 ABAB
    9    0   26    0  -0.0277591354 AA  
    8    0   13    0  -0.0246201677 AA  
--------------------------------------------------------------------------------
  Converged eigenvector, normalized to one 
  SCF eigenvalue ordering used in list below. 
--------------------------------------------------------------------------------
    I    j    A    b
--------------------------------------------------------------------------------
    9    0   13    0  -0.6515974556 AA  
    9    9   13   10  -0.2197595336 ABAB
    9    9   10   13  -0.2197595336 ABAB
    9    9   13   28   0.0698802201 ABAB
    9    9   28   13   0.0698802201 ABAB
    9    9   13   12   0.0609267119 ABAB
    9    9   12   13   0.0609267119 ABAB
    9    9   13   30  -0.0426426097 ABAB
    9    9   30   13  -0.0426426097 ABAB
    9    9   13   16   0.0362897508 ABAB
    9    9   16   13   0.0362897508 ABAB
    9    8   15   11   0.0325090600 ABAB
    8    9   11   15   0.0325090600 ABAB
    9    0   26    0  -0.0277591354 AA  
    8    0   13    0  -0.0246201677 AA  
--------------------------------------------------------------------------------

  Eigenvector is saved on CCRE_2_1  

  Adding new vector to expansion space.
  Guess for next eigenvalue   0.337649981484618     
 14  14  0.3431555070D+00  0.9337736066D+01  0.6309173168D+00  0.1083241574D+00
 15  15  0.3391406104D+00  0.9228485177D+01  0.9927725759D+00  0.3337048993D-01
 16  16  0.3387378462D+00  0.9217525404D+01  0.9996364459D+00  0.1332897351D-01
  L-O-C-K-I-N-G O-N R-O-O-T 
 17  17  0.3387066124D+00  0.9216675490D+01  0.9999566384D+00  0.2831013056D-02
 18  18  0.3387041300D+00  0.9216607941D+01  0.9999912917D+00  0.7117681322D-03
 19  19  0.3387033999D+00  0.9216588073D+01  0.9999986137D+00  0.4304996796D-03
 20  20  0.3387031952D+00  0.9216582505D+01  0.9999997875D+00  0.1177344693D-03
 21  21  0.3387034679D+00  0.9216589924D+01  0.9999999888D+00  0.5827639441D-04
 22  22  0.3387035041D+00  0.9216590909D+01  0.9999999964D+00  0.2376365669D-04
 23  23  0.3387034584D+00  0.9216589665D+01  0.9999999992D+00  0.1600685539D-04
 24  24  0.3387034614D+00  0.9216589746D+01  0.9999999999D+00  0.5014105324D-05
  Converged eigenvalue:   0.338703461351997       a.u.
   Total EOMEE-CCSD electronic energy      -78.524929025296657 a.u.
  Converged eigenvector 
  SCF eigenvalue ordering used in list below. 
--------------------------------------------------------------------------------
    I    j    A    b
--------------------------------------------------------------------------------
    7    0   11    0  -0.4921937044 AA  
    8    0   13    0   0.4635247856 AA  
    5    8   11   11  -0.0695065576 ABAB
    8    5   11   11  -0.0695065576 ABAB
    7    0   25    0   0.0555345856 AA  
    8    0   26    0   0.0532961864 AA  
    8    0   21    0  -0.0526226487 AA  
    8    8   15   11  -0.0390128017 ABAB
    8    8   11   15  -0.0390128017 ABAB
    5    8   13   13   0.0261928819 ABAB
    8    5   13   13   0.0261928819 ABAB
    7    4   24   11   0.0243339267 ABAB
    4    7   11   24   0.0243339267 ABAB
    7    0   24    0   0.0239292328 AA  
    7    0   18    0   0.0237246914 AA  
--------------------------------------------------------------------------------
  Converged eigenvector, normalized to one 
  SCF eigenvalue ordering used in list below. 
--------------------------------------------------------------------------------
    I    j    A    b
--------------------------------------------------------------------------------
    7    0   11    0  -0.4921937044 AA  
    8    0   13    0   0.4635247856 AA  
    5    8   11   11  -0.0695065576 ABAB
    8    5   11   11  -0.0695065576 ABAB
    7    0   25    0   0.0555345856 AA  
    8    0   26    0   0.0532961864 AA  
    8    0   21    0  -0.0526226487 AA  
    8    8   15   11  -0.0390128017 ABAB
    8    8   11   15  -0.0390128017 ABAB
    5    8   13   13   0.0261928819 ABAB
    8    5   13   13   0.0261928819 ABAB
    7    4   24   11   0.0243339267 ABAB
    4    7   11   24   0.0243339267 ABAB
    7    0   24    0   0.0239292328 AA  
    7    0   18    0   0.0237246914 AA  
--------------------------------------------------------------------------------

  Eigenvector is saved on CCRE_2_2  

  Adding new vector to expansion space.
  Guess for next eigenvalue   0.365648235303545     
 25  25  0.3533537664D+00  0.9615244813D+01  0.5721363584D+00  0.6895884012D-01
 26  26  0.3517132202D+00  0.9570603281D+01  0.9987658156D+00  0.2285310251D-01
 27  27  0.3515230818D+00  0.9565429353D+01  0.9998936591D+00  0.6713421579D-02
  L-O-C-K-I-N-G O-N R-O-O-T 
 28  28  0.3515049193D+00  0.9564935125D+01  0.9999881261D+00  0.1490018480D-02
 29  29  0.3515054083D+00  0.9564948432D+01  0.9999988805D+00  0.5327323059D-03
 30  30  0.3515049761D+00  0.9564936671D+01  0.9999997573D+00  0.2163241486D-03
 31  31  0.3515049844D+00  0.9564936898D+01  0.9999999560D+00  0.7737088046D-04
 32  32  0.3515050945D+00  0.9564939895D+01  0.9999999948D+00  0.2173068258D-04
 33  33  0.3515050833D+00  0.9564939590D+01  0.9999999997D+00  0.7272500105D-05
  Converged eigenvalue:   0.351505083341415       a.u.
   Total EOMEE-CCSD electronic energy      -78.512127403307232 a.u.
  Converged eigenvector 
  SCF eigenvalue ordering used in list below. 
--------------------------------------------------------------------------------
    I    j    A    b
--------------------------------------------------------------------------------
    8    0   13    0   0.4983991706 AA  
    7    0   11    0   0.4627091211 AA  
    5    8   11   11   0.0606467125 ABAB
    8    5   11   11   0.0606467125 ABAB
    8    0   26    0   0.0563864508 AA  
    7    0   25    0  -0.0480107697 AA  
    8    0   21    0  -0.0369377870 AA  
    8    8   15   11  -0.0328290046 ABAB
    8    8   11   15  -0.0328290046 ABAB
    5    8   13   13   0.0283314215 ABAB
    8    5   13   13   0.0283314215 ABAB
    7    4   24   11  -0.0228573669 ABAB
    4    7   11   24  -0.0228573669 ABAB
    9    0   17    0   0.0225040775 AA  
    4    8   14   13   0.0214109067 ABAB
--------------------------------------------------------------------------------
  Converged eigenvector, normalized to one 
  SCF eigenvalue ordering used in list below. 
--------------------------------------------------------------------------------
    I    j    A    b
--------------------------------------------------------------------------------
    8    0   13    0   0.4983991706 AA  
    7    0   11    0   0.4627091211 AA  
    5    8   11   11   0.0606467125 ABAB
    8    5   11   11   0.0606467125 ABAB
    8    0   26    0   0.0563864508 AA  
    7    0   25    0  -0.0480107697 AA  
    8    0   21    0  -0.0369377870 AA  
    8    8   15   11  -0.0328290046 ABAB
    8    8   11   15  -0.0328290046 ABAB
    5    8   13   13   0.0283314215 ABAB
    8    5   13   13   0.0283314215 ABAB
    7    4   24   11  -0.0228573669 ABAB
    4    7   11   24  -0.0228573669 ABAB
    9    0   17    0   0.0225040775 AA  
    4    8   14   13   0.0214109067 ABAB
--------------------------------------------------------------------------------

  Eigenvector is saved on CCRE_2_3  

  Solution of   3 roots required   33 iterations.
 @CHECKOUT-I, Total execution time (CPU/WALL):       19.00/       2.38 seconds.
--executable xvee finished with status     0 in        2.40 seconds (walltime).
  The final electronic energy is       -78.512127403307232 a.u. 
  This computation required                            4.02 seconds (walltime).
