CFour on node02
 --invoking executable--
/home/tsommerfeld/zscale/bin/xjoda


   *************************************************************************
         <<<     CCCCCC     CCCCCC   |||     CCCCCC     CCCCCC   >>>
       <<<      CCC        CCC       |||    CCC        CCC         >>>
      <<<      CCC        CCC        |||   CCC        CCC            >>>
    <<<        CCC        CCC        |||   CCC        CCC              >>>
      <<<      CCC        CCC        |||   CCC        CCC            >>>
       <<<      CCC        CCC       |||    CCC        CCC         >>>
         <<<     CCCCCC     CCCCCC   |||     CCCCCC     CCCCCC   >>>
   *************************************************************************

     ****************************************************************
     * CFOUR Coupled-Cluster techniques for Computational Chemistry *
     ****************************************************************
 

   Department of Chemistry                Institut fuer Physikalische Chemie
   University of Florida                  Universitaet Mainz
   Gainesville, FL 32611, USA             D-55099 Mainz, Germany

   Department of Chemistry                Department of Chemistry
   Johns Hopkins University               Southern Methodist University
   Baltimore, MD 21218, USA               Dallas, TX 75275, USA

   Institute of Nanotechnology            Department of Physical Chemistry
   Karlsruhe Inst. of Technology          Eotvos Lorand University
   D-76021 Karlsruhe, Germany             H-1053 Budapest, Hungary

 
                       Version 2.1
 
                     node02                                            
                     Tue Mar 29 16:04:56 CST 2022                      
                     integer*8 version is running
 
********************************************************************************
*                          Input from ZMAT file                                *
********************************************************************************
h_ethylene                                                                      
C       0.000000      0.0   -0.664500                                           
C       0.000000      0.0    0.664500                                           
H       0.962348      0.0   -1.159080                                           
H       0.962348      0.0    1.159080                                           
H      -0.962348      0.0   -1.159080                                           
H      -0.962348      0.0    1.159080                                           
H      0.000000      2.5454545454545454      0.000000                           
                                                                                
*CFOUR(CALC=CCSD                                                                
EXCITE=EOMEE                                                                    
ESTATE_SYM=0/3/0/0                                                              
CC_PROG=VCC                                                                     
CHARGE=-1                                                                       
COORDINATES=CARTESIAN                                                           
BASIS=SPECIAL                                                                   
REFERENCE=RHF                                                                   
MEM_SIZE=90,MEM_UNIT=GB)                                                        
                                                                                
C:CC-PVDZ                                                                       
C:CC-PVDZ                                                                       
H:CC-PVDZ                                                                       
H:CC-PVDZ                                                                       
H:CC-PVDZ                                                                       
H:CC-PVDZ                                                                       
H:AUG-CC-PVDZ                                                                   
                                                                                
********************************************************************************
    -------------------------------------------------------------------
                    CFOUR Control Parameters 
    -------------------------------------------------------------------
        External           Internal           Value            Units
          Name               Name
    -------------------------------------------------------------------
       ABCDTYPE             IABCDT         STANDARD    [  0]    ***   
       ANHARMONIC           IANHAR         OFF         [  0]    ***   
       ANH_ALGORIT          IANALG         STANDARD    [  0]    ***   
       ANH_DERIVAT          IANDER         SECOND      [  1]    ***   
       ANH_MODE             ANHMOD         VIBRATION   [  0]    ***   
       ANH_STEPSIZ          ICUBST             50000          x 10-6  
       ANH_SYMMETR          IANHSM         ABELIAN     [  0]    ***   
       AO_LADDERS           IAOLAD         SINGLEPASS  [  1]    ***   
       AV_SCF               IAVSCF         OFF         [  0]    ***   
       BASIS                IBASIS         SPECIAL     [  0]    ***   
       BOTHVECTORS          BOTHVC         OFF         [  0]    ***   
       BOX_POTENT           IPIAB          OFF         [  0]    ***   
       BREIT                IBREIT         OFF         [  0]    ***   
       BRUCK_CONV           IBRTOL          10D-  4             ***   
       BRUECKNER            IBRKNR         OFF         [  0]    ***   
       BUFFERSIZE           IBUFFS              4096            ***   
       CACHE_RECS           ICHREC             10               ***   
       CALCLEVEL            ICLLVL         CCSD        [ 10]    ***   
       CCORBOPT             ICCORB         OFF         [  0]  x 0.01  
       CC_CONV              ICCCNV          10D-  7             ***   
       CC_EXPORDER          ICCEOR              5               ***   
       CC_EXTRAPOL          ICCEXT         DIIS        [  1]    ***   
       CC_GUESS             ICCGES         MP2         [  0]    ***   
       CC_MAXCYC            ICCCYC            100              cycles 
       CC_PROGRAM           ICCPRO         VCC         [  0]    ***   
       CHARGE               ICHRGE             -1               ***   
       CHOLESKY             ICHOLE         OFF         [  0]    ***   
       CIS_CONV             ICISTL              5               ***   
       COMM_SIZE            IPSIZE            ***               ***   
       CONSTANT             ICONST         OLD         [  1]    ***   
       CONTINUUM            ICONTU         NONE        [  0]    ***   
       CONTRACTION          ICNTYP         GENERAL     [  1]    ***   
       COORDINATES          ICOORD         CARTESIAN   [  1]    ***   
       CPHF_CONVER          ICPHFT          10D- 16             ***   
       CPHF_MAXCYC          ICPHFC             64              cycles 
       CUBIC                ICUBIC         OFF         [  0]    ***   
       CURVILINEAR          ICURVY         OFF         [  0]    ***   
       DBOC                 IDBOC          OFF         [  0]    ***   
       DCT                  IDCT           OFF         [  0]    ***   
       DERIV_LEV            IDRLVL         ZERO        [  0]    ***   
       DEVMEM_SIZE          IDVMEM         *********           MByte  
       DIAG_MRCC            IEOMST          10D-  0             ***   
       DIFF_TYPE            IDIFTY         RELAXED     [  0]    ***   
       DIRECT               IDIRCT         OFF         [  0]    ***   
       DROPMO               IDRPMO      NONE         
       ECP                  IECP           OFF         [  0]    ***   
       EIGENVECTOR          IVEC                1               ***   
       EL_ANHARM            IELANH         OFF         [  0]    ***   
       EOMFOLLOW            IEOMSR         ENERGY      [  0]    ***   
       EOMIP                IEOMIP         OFF         [  0]    ***   
       EOMLEVEL             HBARFM         SAME        [  0]    ***   
       EOM_MRCC             IMRCCE         NEW         [  1]    ***   
       EOM_NONIT            EOMNON         OFF         [  0]    ***   
       EOM_NSING            IEOMSI          10D-  0             ***   
       EOM_NSTATES          IMRCCD         DAVIDSON    [  0]    ***   
       EOM_NTRIP            IEOMTR          10D-  0             ***   
       EOM_ORDER            IEXORD         ENERGY      [  0]    ***   
       EOM_PROPSTA          IEOMST              0               ***   
       ESTATE_CONV          IEXTOL          10D-  5             ***   
       ESTATE_DIAG          IEXDIG         ITERATIVE   [  0]    ***   
       ESTATE_LOCK          IESLOC         ON          [  1]    ***   
       ESTATE_MAXC          IEXMXC             40               ***   
       ESTATE_PROP          IEXPRP         OFF         [  0]    ***   
       ESTATE_SYM           IEXSYM   0,  3,  0,  0,
       EVAL_HESS            IRECAL              0            # of cyc.
       EXCITATION           IEXCIT              0               ***   
       EXCITE               IEXCIT         EOMEE       [  3]    ***   
       EXTERN_POT           IEXPOT         OFF         [  0]    ***   
       FCGRADNEW            IFCGNW         OFF         [  0]    ***   
       FC_FIELD             IFINFC              0             x 10-6  
       FD_CALTYPE           IFDCAL         GRADONLY    [  0]    ***   
       FD_PROJECT           IFDPRJ         OFF         [  1]    ***   
       FD_STEPSIZE          IDISFD              0            10-4 bohr
       FD_USEGROUP          IFDGRP         FULL        [  0]    ***   
       FILE_RECSIZ          IFLREC              4096           words  
       FINITE_PERT          IFIPER              0             x 10-6  
       FIXGEOM              IFIXGM         OFF         [  0]    ***   
       FOCK                 IFOCK          AO          [  1]    ***   
       FREQ_ALGORI          IVIALG         STANDARD    [  0]    ***   
       FROZEN_CORE          IFROCO         OFF         [  0]    ***   
       GAMMA_ABCD           IGABCD         STORE       [  0]    ***   
       GAMMA_ABCI           IGABCI         STORE       [  0]    ***   
       GENBAS_1             IGNBS1              0               ***   
       GENBAS_2             IGNBS2              0               ***   
       GENBAS_3             IGNBS3              0               ***   
       GENBAS_4             IGNBS4              0               ***   
       GEO_CONV             ICONTL              5              H/bohr 
       GEO_MAXCYC           IOPTCY             50               ***   
       GEO_MAXSTEP          IMXSTP            300            millibohr
       GEO_METHOD           INR            SINGLE_POINT[  5]    ***   
       GIAO                 IGIAO          OFF         [  1]    ***   
       GIMIC                IGIMIC         OFF         [  0]    ***   
       GRID                 IGRID          OFF         [  0]    ***   
       GRID_ALGO            IGALGO         SERIAL      [  0]    ***   
       GUESS                IGUESS         MOREAD      [  0]    ***   
       HBAR                 IHBAR          ON          [  1]    ***   
       HESS_TYPE            IHESTP         SCF         [  0]    ***   
       HF2_FILE             IHF2Fl         USE         [  1]    ***   
       HFSTABILITY          ISTABL         OFF         [  0]    ***   
       INCORE               INCORE         OFF         [  0]    ***   
       INPUT_MRCC           IMRCC          ON          [  1]    ***   
       INTEGRALS            INTTYP         VMOL        [  1]    ***   
       JODA_PRINT           IJPRNT              0               ***   
       KEYWORD_OUT          IDMPKW         NO          [  0]    ***   
       LINDEP_TOL           ILINDP              8               ***   
       LINEQ_CONV           IZTACN          10D-  7           cycles  
       LINEQ_EXPOR          ILMAXD              5               ***   
       LINEQ_MAXCY          ILMAXC            100               ***   
       LINEQ_TYPE           ILTYPE         DIIS        [  1]    ***   
       LOCK_ORBOCC          ILOCOC         OFF         [  0]    ***   
       MEMORY_SIZE          IMEMSZ         *********           words  
       MEM_UNIT             IMEMU          GB          [  3]    ***   
       MRCC                 IMRCCC         OFF         [  0]    ***   
       MULTIPLICTY          IMULTP              1               ***   
       NACOUPLING           IVCOUP         OFF         [  0]    ***   
       NEGEVAL              IDIE           ABORT       [  0]    ***   
       NEWNORM              INEWNO         OFF         [  0]    ***   
       NON-HF               INONHF         OFF         [  0]    ***   
       NTOP_TAMP            ITOPT2             15               ***   
       NUC_MODEL            INUCMO         POINT       [  0]    ***   
       OCCUPATION           IOCCU   ESTIMATED BY SCF 
       OPEN-SHELL           IOPEN          SPIN-ORBITAL[  0]    ***   
       OPTVIB               IOPTVB         OFF         [  0]    ***   
       ORBITALS             IORBTP         STANDARD    [  0]    ***   
       PARALLEL             IPARAL         ON          [  1]    ***   
       PARA_INT             IPINTS         ON          [  1]    ***   
       PARA_PRINT           IPPRIN              0               ***   
       PERT_ORB             IPTORB         STANDARD    [  0]    ***   
       POINTS               IGRDFD              0               ***   
       PRINT                IPRNT               0               ***   
       PROPS                IPROPS         OFF         [  0]    ***   
       PROP_INTEGR          IINTYP         INTERNAL    [  0]    ***   
       PSI                  IPSI           OFF         [  0]    ***   
       QC_ALG               IQCALG         FLM         [  0]    ***   
       QC_LINALG            IQCLIN         TRIDIAG     [  2]    ***   
       QC_MAXCYC            IQCMAX          10D-100           cycles  
       QC_MAXSCFCY          IQCMSC          10D- 15           cycles  
       QC_RTRUST            IQCRTR          10D-  0           x 10-3  
       QC_SKIPSCF           IQCSKI         OFF         [  0]    ***   
       QC_START             IQCSTA          10D-  1             ***   
       QRHFGUESS            IQGUES         OFF         [  0]    ***   
       QUARTIC              IQUART         OFF         [  0]    ***   
       RAMAN_INT            IRAMIN         OFF         [  0]    ***   
       RAMAN_ORB            IRAMRE         UNRELAXED   [  0]    ***   
       RDO                  IRDOFM         OFF         [  0]    ***   
       REDUCE_REPR          REDREP         Ir          [  0]    ***   
       REFERENCE            IREFNC         RHF         [  0]    ***   
       RELATIVIST           IRELAT         OFF         [  0]    ***   
       RELAX_DENS           IRDENS         OFF         [  0]    ***   
       RESET_FLAGS          IRESET         OFF         [  0]    ***   
       RESTART_CC           ICCRES         OFF         [  0]    ***   
       ROT_EVEC             ROTVEC              0               ***   
       SAVE_INTS            ISVINT         OFF         [  0]    ***   
       SCALE_ON             ISTCRT              0               ***   
       SCF_CONV             ISCFCV          10D-  7             ***   
       SCF_DAMPING          IDAMP               0             x 10-3  
       SCF_EXPORDE          IRPPOR              6               ***   
       SCF_EXPSTAR          IRPPLS              8               ***   
       SCF_EXTRAPO          IRPP           ON          [  1]    ***   
       SCF_MAXCYC           ISCFCY            150              cycles 
       SCF_NOSTOP           ISCFST         OFF         [  0]    ***   
       SCF_PRINT            ISCFPR              0               ***   
       SCF_PROG             ISCFPR         SCF         [  0]    ***   
       SD_FIELD             IFINSD              0             x 10-6  
       SOPERT               IPERSO         OFF         [  0]    ***   
       SPHERICAL            IDFGHI         ON          [  1]    ***   
       SPINORBIT            ISOCAL         OFF         [  0]    ***   
       SPINROTATIO          ISRCON         OFF         [  0]    ***   
       SPIN_FLIP            ISPFLP         OFF         [  0]    ***   
       SPIN_ORBIT           ISPORB         OFF         [  0]    ***   
       SPIN_SCAL            ISCSMP         OFF         [  0]    ***   
       STEEPSCALE           ISTPSC              1000          x 10-3  
       SUBGROUP             ISUBGP         DEFAULT     [  0]    ***   
       SUBGRPAXIS           ISBXYZ         X           [  0]    ***   
       SYMMETRY             ISYM           ON          [  0]    ***   
       SYM_CHECK            ISYMCK         OVERRIDE    [  1]    ***   
       T3_EXTRAPOL          IT3EXT         OFF         [  0]    ***   
       T4_EXTRAPOL          IT4EXP         OFF         [  0]    ***   
       TAMP_SUM             IEVERY              5               ***   
       TESTSUITE            ITESTS         OFF         [  0]    ***   
       THERMOCH             ITHERM         OFF         [  0]    ***   
       TOL_CHOLESK          ITOLCH          10D-  4             ***   
       TRANGRAD             IRESRM         OFF         [  0]    ***   
       TRANS_INV            ITRAIN         USE         [  0]    ***   
       TREAT_PERT           ITREAT         SIMULTANEOUS[  0]    ***   
       TRIP_ALGORI          ITRALG         NORMAL      [  0]    ***   
       UIJ_THRESHO          IUIJTH              1               ***   
       UNITS                IUNITS         ANGSTROM    [  0]    ***   
       UNOS                 IUNOS          OFF         [  0]    ***   
       UPDATE_HESS          IHUPDT         ON          [  1]    ***   
       VIBPHASE             ISETPH         STANDARD    [  0]    ***   
       VIBRATION            IVIB           NO          [  0]    ***   
       VIB_ALGORIT          IGEALG         STANDARD    [  0]    ***   
       VNATORB              IVNORB         OFF         [  0]    ***   
       VTRAN                IVTRAN         FULL/PARTIAL[  0]    ***   
       XFIELD               IXEFLD              0             x 10-6  
       XFORM_TOL            IXFTOL          10D- 11             ***   
       YFIELD               IYEFLD              0             x 10-6  
       ZFIELD               IZEFLD              0             x 10-6  
       ZSCALE_EXP           IZEXPS         OFF         [  0]    ***   
    -------------------------------------------------------------------
  @GETXYZ-I,     7 atoms read from ZMAT.
   Rotational constants (in cm-1): 
          0.7553794609             0.8536890782             1.6795735732
   Rotational constants (in MHz): 
      22645.7097037195         25592.9582983935         50352.3560457616
********************************************************************************
   The full molecular point group is C2v .
   The largest Abelian subgroup of the full molecular point group is C2v .
   The computational point group is C2v .
********************************************************************************


 ----------------------------------------------------------------
         Coordinates used in calculation (QCOMP) 
 ----------------------------------------------------------------
 Z-matrix   Atomic            Coordinates (in bohr)
  Symbol    Number           X              Y              Z
 ----------------------------------------------------------------
     C         6         0.00000000    -1.25572327     0.16694212
     C         6         0.00000000     1.25572327     0.16694212
     H         1         1.81857454    -2.19034422     0.16694212
     H         1         1.81857454     2.19034422     0.16694212
     H         1        -1.81857454    -2.19034422     0.16694212
     H         1        -1.81857454     2.19034422     0.16694212
     H         1         0.00000000     0.00000000    -4.64327084
 ----------------------------------------------------------------
 
   Interatomic distance matrix (Angstroms) 
 
                 C             C             H             H             H    
                [ 1]        [ 2]        [ 3]        [ 4]        [ 5]
  C    [ 1]     0.00000
  C    [ 2]     1.32900     0.00000
  H    [ 3]     1.08200     2.06193     0.00000
  H    [ 4]     2.06193     1.08200     2.31816     0.00000
  H    [ 5]     1.08200     2.06193     1.92470     3.01303     0.00000
  H    [ 6]     2.06193     1.08200     3.01303     1.92470     2.31816
  H    [ 7]     2.63076     2.63076     2.95786     2.95786     2.95786
 
                 H             H    
                [ 6]        [ 7]
  H    [ 6]     0.00000
  H    [ 7]     2.95786     0.00000
 rotcon2
   Rotational constants (in cm-1): 
          0.7553794609             1.6795735732             0.8536890782
   Rotational constants (in MHz): 
      22645.7097037195         50352.3560457616         25592.9582983935
  ECPDATA file not present.   Using default ECPDATA. 
  There are   57 basis functions.
 @GEOPT-W, Archive file not created for single-point calculation.
 @CHECKOUT-I, Total execution time (CPU/WALL):        0.12/       0.13 seconds.
--executable xjoda finished with status     0 in        0.15 seconds (walltime).
 --invoking executable--
/home/tsommerfeld/zscale/bin/xvmol
 SERIAL VERSION OF MOLECULE STARTED
********************************************************************************
                    INPUT FROM MOL FILE
********************************************************************************
INTGRL        1    0    1    0    0    0    0    0    0                         
         *** CFOUR Program System (Release V0.1) ***                            
h_ethylene                                                                      
    3    2 X  Y       0.10E-08              0    0                              
   9999.00      3.00                                                            
          6.00000000    1    3    1    1    1                                   
C #1   0.000000000000000  -1.255723272983657   0.166942117480033                
    9    3                                                                      
   6665.00000000000       6.920000000000000E-004 -1.460000000000000E-004        
  0.000000000000000E+000                                                        
   1000.00000000000       5.329000000000000E-003 -1.154000000000000E-003        
  0.000000000000000E+000                                                        
   228.000000000000       2.707700000000000E-002 -5.725000000000000E-003        
  0.000000000000000E+000                                                        
   64.7100000000000       0.101718000000000      -2.331200000000000E-002        
  0.000000000000000E+000                                                        
   21.0600000000000       0.274740000000000      -6.395500000000000E-002        
  0.000000000000000E+000                                                        
   7.49500000000000       0.448564000000000      -0.149981000000000             
  0.000000000000000E+000                                                        
   2.79700000000000       0.285074000000000      -0.127262000000000             
  0.000000000000000E+000                                                        
  0.521500000000000       1.520400000000000E-002  0.544529000000000             
  0.000000000000000E+000                                                        
  0.159600000000000      -3.191000000000000E-003  0.580496000000000             
   1.00000000000000                                                             
    4    2                                                                      
   9.43900000000000       3.810900000000000E-002  0.000000000000000E+000        
   2.00200000000000       0.209480000000000       0.000000000000000E+000        
  0.545600000000000       0.508557000000000       0.000000000000000E+000        
  0.151700000000000       0.468842000000000        1.00000000000000             
    1    1                                                                      
  0.550000000000000        1.00000000000000                                     
          1.00000000    1    2    1    1                                        
H #2   1.818574537711477  -2.190344215575466   0.166942117480033                
    4    2                                                                      
   13.0100000000000       1.968500000000000E-002  0.000000000000000E+000        
   1.96200000000000       0.137977000000000       0.000000000000000E+000        
  0.444600000000000       0.478148000000000       0.000000000000000E+000        
  0.122000000000000       0.501240000000000        1.00000000000000             
    1    1                                                                      
  0.727000000000000        1.00000000000000                                     
          1.00000000    1    2    1    1                                        
H #3   0.000000000000000   0.000000000000000  -4.643270844219454                
    5    3                                                                      
   13.0100000000000       1.968500000000000E-002  0.000000000000000E+000        
  0.000000000000000E+000                                                        
   1.96200000000000       0.137977000000000       0.000000000000000E+000        
  0.000000000000000E+000                                                        
  0.444600000000000       0.478148000000000       0.000000000000000E+000        
  0.000000000000000E+000                                                        
  0.122000000000000       0.501240000000000        1.00000000000000             
  0.000000000000000E+000                                                        
  2.974000000000000E-002  0.000000000000000E+000  0.000000000000000E+000        
   1.00000000000000                                                             
    2    2                                                                      
  0.727000000000000        1.00000000000000       0.000000000000000E+000        
  0.141000000000000       0.000000000000000E+000   1.00000000000000             
FINISH                                                                          
 
********************************************************************************
 ONE- AND TWO-ELECTRON INTEGRALS OVER SYMMETRY-ADAPTED AOS ARE CALCULATED.

  SPHERICAL HARMONICS ARE USED.
  
  INTEGRALS LESS THAN  0.10E-13 ARE NEGLECTED.

  NUCLEAR REPULSION ENERGY :   36.7186363570 A.U.
  @MOLECU-I, ONE ELECTRON INTEGRALS (CPU/WALL):        0.01/       0.01 SECONDS.
  @TWOEL-I,      29572 INTEGRALS OF SYMMETRY TYPE  I I I I
  @TWOEL-I,     102291 INTEGRALS OF SYMMETRY TYPE  I J I J
  @TWOEL-I,      58089 INTEGRALS OF SYMMETRY TYPE  I I J J
  @TWOEL-I,      75480 INTEGRALS OF SYMMETRY TYPE  I J K L
  @TWOEL-I, TOTAL NUMBER OF 2-E INTEGRALS     265432.
  @MOLECU-I, TWO ELECTRON INTEGRALS (CPU/WALL):        0.21/       0.21 SECONDS.
 @CHECKOUT-I, Total execution time (CPU/WALL):        0.23/       0.24 seconds.

Running with 8 threads/proc

--executable xvmol finished with status     0 in        0.26 seconds (walltime).
 --invoking executable--
/home/tsommerfeld/zscale/bin/xvmol2ja
 @GETMEM-I,  Allocated   85830 MB of main memory.
 @CHECKOUT-I, Total execution time (CPU/WALL):        0.02/       0.01 seconds.
--executable xvmol2ja finished with status     0 in        0.03 seconds (walltime).
 --invoking executable--
/home/tsommerfeld/zscale/bin/xvscf
  There are   57 functions in the AO basis.

  There are 4 irreducible representations.

       Irrep        # of functions
         1                 20
         2                 11
         3                 17
         4                  9


  Parameters for SCF calculation: 
        SCF reference function:  RHF  
  Maximum number of iterations:  150
     Full symmetry point group: C2v 
     Computational point group: C2v 
        Initial density matrix: MOREAD                 
     SCF convergence tolerance: 10**(- 7)
  DIIS convergence acceleration:  ON
          Latest start for DIIS:   8
                     DIIS order:   6

  Memory information:     156410 words required.
  Fock matrices are constructed from AO integral file.
 @GETMEM-I,  Allocated       1 MB of main memory.
  Initialization and symmetry analysis required      0.002 seconds.

  @INITGES-I, Occupancies from core Hamiltonian:

          Alpha population by irrep:   3    1    4    1
           Beta population by irrep:   3    1    4    1


 total no. of electrons in initial guess :  0.000000000000000E+000
  --------------------------------------------------------------------
  Iteration         Total Energy            Largest Density Difference
  --------------------------------------------------------------------
       0            36.718636357008805              0.0000000000D+00
   current occupation vector 
     3  1  4  1
     3  1  4  1
       1           -61.168894860875469              0.8846568214D+01
   current occupation vector 
     3  1  4  1
     3  1  4  1
       2           -61.980447953838222              0.8698874688D+01
   current occupation vector 
     4  1  3  1
     4  1  3  1
       3           -70.732314889250574              0.4790986841D+01
   current occupation vector 
     4  1  3  1
     4  1  3  1
       4           -65.829177569055901              0.4626306980D+01
   current occupation vector 
     4  1  3  1
     4  1  3  1
       5           -71.978412835189161              0.4626329816D+01
   current occupation vector 
     4  1  3  1
     4  1  3  1
       6           -67.285825760847644              0.4574554606D+01
   current occupation vector 
     4  1  3  1
     4  1  3  1
       7           -72.393769753648044              0.4574550208D+01
   current occupation vector 
     4  1  3  1
     4  1  3  1
       8           -67.901253594686310              0.4563399096D+01
   current occupation vector 
     4  1  3  1
     4  1  3  1
       9           -77.363954706606464              0.4563398489D+01
   current occupation vector 
     4  1  3  1
     4  1  3  1
      10           -78.371940227181398              0.1512238295D+01
   current occupation vector 
     5  1  2  1
     5  1  2  1
      11           -78.466991940485940              0.5880693952D+00
   current occupation vector 
     5  1  2  1
     5  1  2  1
      12           -78.491667804434897              0.1472253582D+00
   current occupation vector 
     5  1  2  1
     5  1  2  1
      13           -78.494263500162589              0.6615129065D-01
   current occupation vector 
     5  1  2  1
     5  1  2  1
      14           -78.494308214111541              0.4775545043D-02
   current occupation vector 
     5  1  2  1
     5  1  2  1
      15           -78.494311349089827              0.2175302868D-02
   current occupation vector 
     5  1  2  1
     5  1  2  1
      16           -78.494311596295972              0.6791147444D-03
   current occupation vector 
     5  1  2  1
     5  1  2  1
      17           -78.494311605460993              0.1137795152D-03
   current occupation vector 
     5  1  2  1
     5  1  2  1
      18           -78.494311605648264              0.1200219473D-04
   current occupation vector 
     5  1  2  1
     5  1  2  1
      19           -78.494311605651902              0.3118682645D-05
   current occupation vector 
     5  1  2  1
     5  1  2  1
      20           -78.494311605651887              0.4373142881D-06
   current occupation vector 
     5  1  2  1
     5  1  2  1

  SCF has converged.

 Density matrix saved to file den.dat
 total electron number:   18.0000000000000     
     E(SCF)=       -78.494311605652129              0.6169074634D-07


  Final occupancies:

     Alpha population by irrep:   5    1    2    1
      Beta population by irrep:   5    1    2    1


  Eigenvector printing suppressed.

 @PUTMOS-I, Writing converged MOs to NEWMOS. 
 @PUTMOS-I, Symmetry   1 Full Blocks  5 Partial Blocksize   0
 @PUTMOS-I, Symmetry   2 Full Blocks  2 Partial Blocksize   3
 @PUTMOS-I, Symmetry   3 Full Blocks  4 Partial Blocksize   1
 @PUTMOS-I, Symmetry   4 Full Blocks  2 Partial Blocksize   1
 @PUTFOCK-I, Writing converged Fock matrix to NEWFOCK. 
 @PUTFOCK-I, Symmetry   1 Full Blocks  5 Partial Blocksize   0
 @PUTFOCK-I, Symmetry   2 Full Blocks  2 Partial Blocksize   3
 @PUTFOCK-I, Symmetry   3 Full Blocks  4 Partial Blocksize   1
 @PUTFOCK-I, Symmetry   4 Full Blocks  2 Partial Blocksize   1


 
  ORBITAL EIGENVALUES (ALPHA)  (1H = 27.2113834 eV)

       MO #        E(hartree)               E(eV)           FULLSYM    COMPSYM
       ----   --------------------   --------------------   -------   ---------
    1     1         -11.0684417292        -301.1876115339      A1        A1 (1)
    2    32         -11.0667286582        -301.1409965030      B2        B2 (3)
    3     2          -0.8722922765         -23.7362795733      A1        A1 (1)
    4    33          -0.6174121022         -16.8006374278      B2        B2 (3)
    5    21          -0.4943572680         -13.4521451561      B1        B1 (2)
    6     3          -0.4011984285         -10.9171642567      A1        A1 (1)
    7    49          -0.3521987683          -9.5838157163      A2        A2 (4)
    8     4          -0.2152285534          -5.8566666860      A1        A1 (1)
    9     5          -0.0238794379          -0.6497925389      A1        A1 (1)
  +++++++++++++++++++++++++++++++++++++++++++++++++++++++++++++++++++++++++++++
   10     6           0.2816600646           7.6643600076      A1        A1 (1)
   11    34           0.3344145109           9.0998814707      B2        B2 (3)
   12     7           0.3640613855           9.9066139424      A1        A1 (1)
   13    22           0.3710816881          10.0976460879      B1        B1 (2)
   14    35           0.3876306759          10.5479669383      B2        B2 (3)
   15    50           0.4423957688          12.0382008801      A2        A2 (4)
   16    23           0.5629654742          15.3190693594      B1        B1 (2)
   17    36           0.5777308311          15.7208551484      B2        B2 (3)
   18    37           0.6080060178          16.5446848587      B2        B2 (3)
   19     8           0.6202448437          16.8777202440      A1        A1 (1)
   20     9           0.7246930729          19.7199010541      A1        A1 (1)
   21    24           0.8288215272          22.5533803478      B1        B1 (2)
   22    10           0.8486281383          23.0923456366      A1        A1 (1)
   23    38           0.9539029484          25.9570188545      B2        B2 (3)
   24    11           1.0166257769          27.6637937882      A1        A1 (1)
   25    39           1.0242327052          27.8707888321      B2        B2 (3)
   26    25           1.0243552759          27.8741241501      B1        B1 (2)
   27    51           1.0956435412          29.8139764706      A2        A2 (4)
   28    12           1.1054624332          30.0811621051      A1        A1 (1)
   29    40           1.1279238352          30.6923679254      B2        B2 (3)
   30    26           1.2938177156          35.2065699102      B1        B1 (2)
   31    13           1.3493378918          36.7173507111      A1        A1 (1)
   32    41           1.4302037438          38.9178224118      B2        B2 (3)
   33    52           1.4495669165          39.4447211286      A2        A2 (4)
   34    14           1.5063077257          40.9887170420      A1        A1 (1)
   35    53           1.5064766426          40.9933135050      A2        A2 (4)
   36    15           1.7631035537          47.9764867740      A1        A1 (1)
   37    54           1.7731458432          48.2497513630      A2        A2 (4)
   38    27           1.8638219126          50.7171726539      B1        B1 (2)
   39    42           2.0113723074          54.7322230168      B2        B2 (3)
   40    43           2.0414682223          55.5511744958      B2        B2 (3)
   41    16           2.0795784787          56.5882072934      A1        A1 (1)
   42    17           2.1212408941          57.7218992522      A1        A1 (1)
   43    28           2.1416501155          58.2772624028      B1        B1 (2)
   44    29           2.1702332194          59.0550482010      B1        B1 (2)
   45    44           2.1715838734          59.0918013648      B2        B2 (3)
   46    30           2.1832157099          59.4083197276      B1        B1 (2)
   47    18           2.2530525574          61.3086769605      A1        A1 (1)
   48    45           2.3352214289          63.5446056253      B2        B2 (3)
   49    46           2.4372010070          66.3196110254      B2        B2 (3)
   50    55           2.5789136969          70.1758093619      A2        A2 (4)
   51    19           2.5860850123          70.3709507755      A1        A1 (1)
   52    56           2.6483211335          72.0644817305      A2        A2 (4)
   53    47           2.6962493735          73.3686754445      B2        B2 (3)
   54    31           2.9505966873          80.2898177174      B1        B1 (2)
   55    20           2.9543023575          80.3906541306      A1        A1 (1)
   56    48           3.4036635447          92.6183936786      B2        B2 (3)
   57    57           3.5011854955          95.2721008739      A2        A2 (4)


  VSCF finished.

 @CHECKOUT-I, Total execution time (CPU/WALL):        0.27/       0.11 seconds.
--executable xvscf finished with status     0 in        0.13 seconds (walltime).
 --invoking executable--
/home/tsommerfeld/zscale/bin/xvtran
 @GETMEM-I,  Allocated   85830 MB of main memory.
  Full RHF integral transformation
  Transformation of IIII integrals :
  1 pass through the AO integral file was required.
       29572 AO integrals were read.
       37182 MO integrals were written to HF2.
  Transformation of IIJJ integrals :
  1 pass through the AO integral file was required.
       58089 AO integrals were read.
       75393 MO integrals were written to HF2.
  Transformation of IJIJ integrals :
  1 pass through the AO integral file was required.
      102291 AO integrals were read.
      132879 MO integrals were written to HF2.
  Transformation of IJKL integrals :
  1 pass through the AO integral file was required.
       75480 AO integrals were read.
      100980 MO integrals were written to HF2.
  Summary of active molecular orbitals: 
------------------------------------------------------------------------
 
  Index      Eigenvalue    Symmetry    Index      Eigenvalue    Symmetry
------------------------------------------------------------------------
     1       -11.0684417        1        30         1.8638219        2
     2        -0.8722923        1        31         2.1416501        2
     3        -0.4011984        1        32         2.1702332        2
     4        -0.2152286        1        33         2.1832157        2
     5        -0.0238794        1        34         2.9505967        2
     6        -0.4943573        2        35         0.3344145        3
     7       -11.0667287        3        36         0.3876307        3
     8        -0.6174121        3        37         0.5777308        3
     9        -0.3521988        4        38         0.6080060        3
    10         0.2816601        1        39         0.9539029        3
    11         0.3640614        1        40         1.0242327        3
    12         0.6202448        1        41         1.1279238        3
    13         0.7246931        1        42         1.4302037        3
    14         0.8486281        1        43         2.0113723        3
    15         1.0166258        1        44         2.0414682        3
    16         1.1054624        1        45         2.1715839        3
    17         1.3493379        1        46         2.3352214        3
    18         1.5063077        1        47         2.4372010        3
    19         1.7631036        1        48         2.6962494        3
    20         2.0795785        1        49         3.4036635        3
    21         2.1212409        1        50         0.4423958        4
    22         2.2530526        1        51         1.0956435        4
    23         2.5860850        1        52         1.4495669        4
    24         2.9543024        1        53         1.5064766        4
    25         0.3710817        2        54         1.7731458        4
    26         0.5629655        2        55         2.5789137        4
    27         0.8288215        2        56         2.6483211        4
    28         1.0243553        2        57         3.5011855        4
    29         1.2938177        2
------------------------------------------------------------------------
  -11.0684417292030      -0.872292276521044      -0.401198428473934     
 -0.215228553429685      -2.387943785749549E-002 -0.494357267998515     
  -11.0667286582366      -0.617412102163073      -0.352198768267971     
  0.281660064646558       0.364061385515428       0.620244843708974     
  0.724693072904751       0.848628138348258        1.01662577685027     
   1.10546243323700        1.34933789184482        1.50630772568479     
   1.76310355371494        2.07957847866653        2.12124089406738     
   2.25305255742548        2.58608501232996        2.95430235754084     
  0.371081688109059       0.562965474198607       0.828821527235222     
   1.02435527589190        1.29381771564641        1.86382191263074     
   2.14165011554571        2.17023321941673        2.18321570992389     
   2.95059668731703       0.334414510901235       0.387630675856174     
  0.577730831147880       0.608006017757655       0.953902948369011     
   1.02423270520490        1.12792383519282        1.43020374376851     
   2.01137230740056        2.04146822229637        2.17158387341556     
   2.33522142888534        2.43720100703844        2.69624937350514     
   3.40366354466782       0.442395768828363        1.09564354124611     
   1.44956691649273        1.50647664260393        1.77314584318374     
   2.57891369690186        2.64832113351923        3.50118549554821     
 @CHECKOUT-I, Total execution time (CPU/WALL):        0.54/       0.09 seconds.
--executable xvtran finished with status     0 in        0.11 seconds (walltime).
 --invoking executable--
/home/tsommerfeld/zscale/bin/xintprc
 @GETMEM-I,  Allocated   85830 MB of main memory.
  Processing integrals for CCSD calculation.
  @GMOIAA-I, Processing MO integrals for spin case AA.
  @GMOIAA-I, Generation of integral list completed.
                      TYPE                NUMBER
                      ----               --------
                      PPPP                174781
                      PPPH                128448
                      PPHH                 24003
                      PHPH                 13755
                      PHHH                  5115
                      HHHH                   332

                     TOTAL                346434

  @FORMT2-I, Second-order MP correlation energies:
            ------------------------------------------------
            E(SCF)                  =    -78.494311605652 a.u.
            E2(AA)                  =     -0.032436227199 a.u.
            E2(AB)                  =     -0.248343529391 a.u.
            E2(TOT)                 =     -0.313215983788 a.u.
            Total MP2 energy        =    -78.807527589440 a.u.
            ------------------------------------------------
   Largest T2 amplitudes for spin case AB:
       _       _                 _       _                 _       _
   i   j   a   b             i   j   a   b             i   j   a   b
-----------------------------------------------------------------------------
[  5   5  10  10]-0.08922 [  4   4  35  35]-0.08579 [  5   5  26  26]-0.04106
[  5   5  12  12]-0.02974 [  4   3  35  41] 0.02634 [  3   4  41  35] 0.02634
[  4   4  14  14]-0.02549 [  5   5  37  37]-0.02445 [  5   5  15  10] 0.02401
[  5   5  10  15] 0.02401 [  5   5  16  10] 0.02324 [  5   5  10  16] 0.02324
[  3   3  41  41]-0.02298 [  5   4  35  35]-0.02204 [  4   5  35  35]-0.02204
-----------------------------------------------------------------------------
   Norm of T2AB vector (    47574 symmetry allowed elements):  0.3206068059.
-----------------------------------------------------------------------------
 @CHECKOUT-I, Total execution time (CPU/WALL):        0.42/       0.09 seconds.
--executable xintprc finished with status     0 in        0.11 seconds (walltime).
  calling xvcc 
 --invoking executable--
/home/tsommerfeld/zscale/bin/xvcc
 @GETMEM-I,  Allocated   85830 MB of main memory.
   CCSD energy will be calculated.
   The total correlation energy is -0.313215983788 a.u.
   The total correlation energy is -0.338353098906 a.u.
  Convergence information after     1 iterations: 
  Largest element of residual vector : -0.34222882E-01.
  Largest element of DIIS residual   : -0.34222882E-01.
   The total correlation energy is -0.348452142241 a.u.
  Convergence information after     2 iterations: 
  Largest element of residual vector : -0.16939774E-01.
  Largest element of DIIS residual   : -0.96616946E-02.
   The total correlation energy is -0.352520294469 a.u.
  Convergence information after     3 iterations: 
  Largest element of residual vector : -0.66715786E-02.
  Largest element of DIIS residual   : -0.45562855E-02.
   The total correlation energy is -0.353721873929 a.u.
  Convergence information after     4 iterations: 
  Largest element of residual vector : -0.29334700E-02.
  Largest element of DIIS residual   : -0.13684101E-02.
   The total correlation energy is -0.353923900526 a.u.
  Convergence information after     5 iterations: 
  Largest element of residual vector : -0.80672340E-03.
  Largest element of DIIS residual   : -0.38989400E-03.
   The total correlation energy is -0.353914397759 a.u.
  Convergence information after     6 iterations: 
  Largest element of residual vector : -0.21793076E-03.
  Largest element of DIIS residual   :  0.16807201E-03.
   The total correlation energy is -0.353900487033 a.u.
  Convergence information after     7 iterations: 
  Largest element of residual vector : -0.89630265E-04.
  Largest element of DIIS residual   :  0.33494422E-04.
   The total correlation energy is -0.353895034736 a.u.
  Convergence information after     8 iterations: 
  Largest element of residual vector :  0.27796021E-04.
  Largest element of DIIS residual   : -0.23383108E-04.
   The total correlation energy is -0.353894973375 a.u.
  Convergence information after     9 iterations: 
  Largest element of residual vector : -0.79172911E-05.
  Largest element of DIIS residual   : -0.68736506E-05.
   The total correlation energy is -0.353895329280 a.u.
  Convergence information after    10 iterations: 
  Largest element of residual vector : -0.51378076E-05.
  Largest element of DIIS residual   : -0.34922423E-05.
   The total correlation energy is -0.353895789189 a.u.
  Convergence information after    11 iterations: 
  Largest element of residual vector : -0.22557111E-05.
  Largest element of DIIS residual   : -0.15972783E-05.
   The total correlation energy is -0.353896076043 a.u.
  Convergence information after    12 iterations: 
  Largest element of residual vector : -0.10992626E-05.
  Largest element of DIIS residual   : -0.67572205E-06.
   The total correlation energy is -0.353896169163 a.u.
  Convergence information after    13 iterations: 
  Largest element of residual vector : -0.33242400E-06.
  Largest element of DIIS residual   : -0.27769690E-06.
   The total correlation energy is -0.353896175617 a.u.
  Convergence information after    14 iterations: 
  Largest element of residual vector : -0.19990965E-06.
  Largest element of DIIS residual   : -0.11268787E-06.
   The total correlation energy is -0.353896174245 a.u.
  Convergence information after    15 iterations: 
  Largest element of residual vector : -0.72660318E-07.
  Largest element of DIIS residual   :  0.41705668E-07.
  Amplitude equations converged in    15iterations.
   The total correlation energy is -0.353896171923 a.u.
   The CC iterations have converged.

   Largest T1 amplitudes for spin case AA:
   i       a                 i       a                 i       a    
-----------------------------------------------------------------------------
[  5      10    ]-0.03028 [  4      14    ]-0.01895 [  4      18    ] 0.01462
[  4      10    ] 0.01151 [  5      14    ]-0.01095 [  4      15    ] 0.00890
[  5      16    ]-0.00828 [  5      18    ] 0.00821 [  6      27    ]-0.00662
[  4      17    ]-0.00629 [  5      15    ]-0.00574 [  5      17    ] 0.00535
[  5      12    ] 0.00520 [  4      21    ]-0.00464 [  5      11    ]-0.00461
-----------------------------------------------------------------------------
   Norm of T1AA vector (      123 symmetry allowed elements):  0.0494737747.
-----------------------------------------------------------------------------
   Largest T2 amplitudes for spin case AB:
       _       _                 _       _                 _       _
   i   j   a   b             i   j   a   b             i   j   a   b
-----------------------------------------------------------------------------
[  5   5  10  10]-0.16698 [  4   4  35  35]-0.12461 [  5   5  26  26]-0.05734
[  5   5  15  10] 0.04562 [  5   5  10  15] 0.04562 [  5   5  16  10] 0.04407
[  5   5  10  16] 0.04407 [  5   5  12  12]-0.03921 [  5   4  35  35]-0.03610
[  4   5  35  35]-0.03610 [  5   5  37  37]-0.03297 [  4   4  40  35] 0.02931
[  4   4  35  40] 0.02931 [  5   4  10  10] 0.02874 [  4   5  10  10] 0.02874
-----------------------------------------------------------------------------
   Norm of T2AB vector (    47574 symmetry allowed elements):  0.4174763374.
-----------------------------------------------------------------------------
       Summary of iterative solution of CC equations 
      -----------------------------------------------------------
                       Correlation           Total
       Iteration         Energy              Energy
      -----------------------------------------------------------
            0        -0.313215983788     -78.807527589440  DIIS 
            1        -0.338353098906     -78.832664704558  DIIS 
            2        -0.348452142241     -78.842763747893  DIIS 
            3        -0.352520294469     -78.846831900122  DIIS 
            4        -0.353721873929     -78.848033479581  DIIS 
            5        -0.353923900526     -78.848235506178  DIIS 
            6        -0.353914397759     -78.848226003411  DIIS 
            7        -0.353900487033     -78.848212092685  DIIS 
            8        -0.353895034736     -78.848206640388  DIIS 
            9        -0.353894973375     -78.848206579027  DIIS 
           10        -0.353895329280     -78.848206934932  DIIS 
           11        -0.353895789189     -78.848207394841  DIIS 
           12        -0.353896076043     -78.848207681695  DIIS 
           13        -0.353896169163     -78.848207774815  DIIS 
           14        -0.353896175617     -78.848207781269  DIIS 
           15        -0.353896171923     -78.848207777575  DIIS 
      -----------------------------------------------------------
      A miracle has come to pass. The CC iterations have converged.
      The reference energy is       -78.49431160565213 a.u.
      The correlation energy is      -0.35389617192255 a.u.
      The total energy is           -78.84820777757469 a.u.
 @CHECKOUT-I, Total execution time (CPU/WALL):        5.31/       0.67 seconds.
--executable xvcc finished with status     0 in        0.69 seconds (walltime).
 --invoking executable--
/home/tsommerfeld/zscale/bin/xlambda
 @GETMEM-I,  Allocated   85830 MB of main memory.
 Hbar is calculated for a CCSD wave function.
 Calculation of Hbar completed.
 @CHECKOUT-I, Total execution time (CPU/WALL):        0.89/       0.12 seconds.
--executable xlambda finished with status     0 in        0.14 seconds (walltime).
 --invoking executable--
/home/tsommerfeld/zscale/bin/xvee
 @GETMEM-I,  Allocated   85830 MB of main memory.
  cc2 and ccprog  F                     0
  EOMEE-CCSD excitation energies will be evaluated.
  @SETMET-I, VPROP property integrals are used.
  @SETMET-I, A total of   3 target states will be studied.
  Summary of active alpha molecular orbitals:
------------------------------------------------------------------------------
Orbital      Sym   Eigenvalue  <xx>     <yy>     <zz>     <xy>     <xz>     <yz>
        SCF
  #  position
------------------------------------------------------------------------------
   1      1    1     -11.0684   0.000    0.000    0.000    0.000    0.000    0.000
   2      3    1      -0.8723   0.000    0.000    0.000    0.000    0.000    0.000
   3      6    1      -0.4012   0.000    0.000    0.000    0.000    0.000    0.000
   4      8    1      -0.2152   0.000    0.000    0.000    0.000    0.000    0.000
   5      9    1      -0.0239   0.000    0.000    0.000    0.000    0.000    0.000
   6      5    2      -0.4944   0.000    0.000    0.000    0.000    0.000    0.000
   7      2    3     -11.0667   0.000    0.000    0.000    0.000    0.000    0.000
   8      4    3      -0.6174   0.000    0.000    0.000    0.000    0.000    0.000
   9      7    4      -0.3522   0.000    0.000    0.000    0.000    0.000    0.000
  10     10    1       0.2817   0.000    0.000    0.000    0.000    0.000    0.000
  11     12    1       0.3641   0.000    0.000    0.000    0.000    0.000    0.000
  12     19    1       0.6202   0.000    0.000    0.000    0.000    0.000    0.000
  13     20    1       0.7247   0.000    0.000    0.000    0.000    0.000    0.000
  14     22    1       0.8486   0.000    0.000    0.000    0.000    0.000    0.000
  15     24    1       1.0166   0.000    0.000    0.000    0.000    0.000    0.000
  16     28    1       1.1055   0.000    0.000    0.000    0.000    0.000    0.000
  17     31    1       1.3493   0.000    0.000    0.000    0.000    0.000    0.000
  18     34    1       1.5063   0.000    0.000    0.000    0.000    0.000    0.000
  19     36    1       1.7631   0.000    0.000    0.000    0.000    0.000    0.000
  20     41    1       2.0796   0.000    0.000    0.000    0.000    0.000    0.000
  21     42    1       2.1212   0.000    0.000    0.000    0.000    0.000    0.000
  22     47    1       2.2531   0.000    0.000    0.000    0.000    0.000    0.000
  23     51    1       2.5861   0.000    0.000    0.000    0.000    0.000    0.000
  24     55    1       2.9543   0.000    0.000    0.000    0.000    0.000    0.000
  25     13    2       0.3711   0.000    0.000    0.000    0.000    0.000    0.000
  26     16    2       0.5630   0.000    0.000    0.000    0.000    0.000    0.000
  27     21    2       0.8288   0.000    0.000    0.000    0.000    0.000    0.000
  28     26    2       1.0244   0.000    0.000    0.000    0.000    0.000    0.000
  29     30    2       1.2938   0.000    0.000    0.000    0.000    0.000    0.000
  30     38    2       1.8638   0.000    0.000    0.000    0.000    0.000    0.000
  31     43    2       2.1417   0.000    0.000    0.000    0.000    0.000    0.000
  32     44    2       2.1702   0.000    0.000    0.000    0.000    0.000    0.000
  33     46    2       2.1832   0.000    0.000    0.000    0.000    0.000    0.000
  34     54    2       2.9506   0.000    0.000    0.000    0.000    0.000    0.000
  35     11    3       0.3344   0.000    0.000    0.000    0.000    0.000    0.000
  36     14    3       0.3876   0.000    0.000    0.000    0.000    0.000    0.000
  37     17    3       0.5777   0.000    0.000    0.000    0.000    0.000    0.000
  38     18    3       0.6080   0.000    0.000    0.000    0.000    0.000    0.000
  39     23    3       0.9539   0.000    0.000    0.000    0.000    0.000    0.000
  40     25    3       1.0242   0.000    0.000    0.000    0.000    0.000    0.000
  41     29    3       1.1279   0.000    0.000    0.000    0.000    0.000    0.000
  42     32    3       1.4302   0.000    0.000    0.000    0.000    0.000    0.000
  43     39    3       2.0114   0.000    0.000    0.000    0.000    0.000    0.000
  44     40    3       2.0415   0.000    0.000    0.000    0.000    0.000    0.000
  45     45    3       2.1716   0.000    0.000    0.000    0.000    0.000    0.000
  46     48    3       2.3352   0.000    0.000    0.000    0.000    0.000    0.000
  47     49    3       2.4372   0.000    0.000    0.000    0.000    0.000    0.000
  48     53    3       2.6962   0.000    0.000    0.000    0.000    0.000    0.000
  49     56    3       3.4037   0.000    0.000    0.000    0.000    0.000    0.000
  50     15    4       0.4424   0.000    0.000    0.000    0.000    0.000    0.000
  51     27    4       1.0956   0.000    0.000    0.000    0.000    0.000    0.000
  52     33    4       1.4496   0.000    0.000    0.000    0.000    0.000    0.000
  53     35    4       1.5065   0.000    0.000    0.000    0.000    0.000    0.000
  54     37    4       1.7731   0.000    0.000    0.000    0.000    0.000    0.000
  55     50    4       2.5789   0.000    0.000    0.000    0.000    0.000    0.000
  56     52    4       2.6483   0.000    0.000    0.000    0.000    0.000    0.000
  57     57    4       3.5012   0.000    0.000    0.000    0.000    0.000    0.000
------------------------------------------------------------------------------
  @DRVTDA-I, Roots obtained by Davidson method.
  calling tda davidson                       6                     2
  after tda davidson                      6                     6
                     3                     3
  kroot is                      3
__________________________________________________________________________
    Tamm-Dancoff (CIS) Excitation Energies and Transition Moments

                Excitation         Transition Dipole         Oscillator
 Root  Symmetry  Energy         x           y           z     Strength
__________________________________________________________________________
   1       2    0.23335      0.0000      0.0000      0.0000  .00000000D+00
__________________________________________________________________________
 
__________________________________________________________________________
  TDA excitation ergy:             0.233349483958 a.u.    6.3498 eV
  Total TDA electronic energy:   -78.260962121694 a.u.
 
  Dominant contributions: 
  SCF eigenvalue ordering used in list below. 
--------------------------------------------------------------------------------
    I    j    A    b
--------------------------------------------------------------------------------
    9    0   13    0  -0.9766928802 AA  
    8    0   13    0  -0.1930884227 AA  
    9    0   16    0   0.0406949373 AA  
    8    0   26    0  -0.0389996201 AA  
    9    0   21    0   0.0305078853 AA  
    9    0   26    0  -0.0300927153 AA  
    8    0   21    0   0.0296542436 AA  
    7    0   11    0   0.0278464334 AA  
    7    0   14    0   0.0212702829 AA  
    6    0   13    0   0.0209459213 AA  
    8    0   16    0  -0.0174262160 AA  
    5    0   12    0   0.0171804635 AA  
    7    0   17    0  -0.0108620489 AA  
    8    0   30    0  -0.0082509723 AA  
    4    0   15    0   0.0077225117 AA  
--------------------------------------------------------------------------------
   2       2    0.34245      0.0000      0.0000      0.0000  .00000000D+00
__________________________________________________________________________
 
__________________________________________________________________________
  TDA excitation ergy:             0.342447007889 a.u.    9.3185 eV
  Total TDA electronic energy:   -78.151864597763 a.u.
 
  Dominant contributions: 
  SCF eigenvalue ordering used in list below. 
--------------------------------------------------------------------------------
    I    j    A    b
--------------------------------------------------------------------------------
    8    0   13    0  -0.9365174166 AA  
    9    0   16    0  -0.2146323373 AA  
    9    0   13    0   0.1881336089 AA  
    7    0   11    0   0.1341905331 AA  
    8    0   21    0   0.0988880389 AA  
    8    0   26    0  -0.0980904146 AA  
    8    0   16    0  -0.0379295533 AA  
    9    0   21    0   0.0242366793 AA  
    9    0   26    0  -0.0230503201 AA  
    6    0   13    0  -0.0159944377 AA  
    7    0   14    0  -0.0146095801 AA  
    5    0   12    0  -0.0132257976 AA  
    7    0   23    0  -0.0129711061 AA  
    7    0   18    0   0.0126651724 AA  
    7    0   25    0  -0.0105572799 AA  
--------------------------------------------------------------------------------
   3       2    0.36320      0.0000      0.0000      0.0000  .00000000D+00
__________________________________________________________________________
 
__________________________________________________________________________
  TDA excitation ergy:             0.363200672022 a.u.    9.8832 eV
  Total TDA electronic energy:   -78.131110933630 a.u.
 
  Dominant contributions: 
  SCF eigenvalue ordering used in list below. 
--------------------------------------------------------------------------------
    I    j    A    b
--------------------------------------------------------------------------------
    7    0   11    0   0.7818405125 AA  
    9    0   16    0   0.6070091898 AA  
    7    0   17    0  -0.0595136213 AA  
    7    0   25    0  -0.0552382777 AA  
    9    0   13    0   0.0544293476 AA  
    7    0   14    0   0.0498983835 AA  
    7    0   23    0  -0.0437941788 AA  
    7    0   18    0   0.0329976573 AA  
    8    0   16    0  -0.0323172157 AA  
    5    0   34    0   0.0287109499 AA  
    5    0   10    0   0.0273197476 AA  
    5    0   12    0   0.0271339117 AA  
    6    0   13    0   0.0199356203 AA  
    5    0   31    0  -0.0171865615 AA  
    5    0   22    0  -0.0166604294 AA  
--------------------------------------------------------------------------------
__________________________________________________________________________
  @DOEOMEE-I, Excitation energies computed by the EOMEE-CCSD/CCSD-LR method.
  @DOEOMEE-I, right-hand eigenvectors will be computed.
  Beginning symmetry block   2.   3 roots requested.
  @DOEOMEE-I, Matrix dimension for diagonalization:    45852
  Creating initial guess for root
________________________________________________________________________
            Subspace          Eigenvalue           
 Iteration  Dimension   (a.u.)         (eV)       Overlap      Residual
________________________________________________________________________
  @NEWGES-I, Using TDA initial guess.
  1   1  0.2946507482D+00  0.8017854478D+01  0.0000000000D+00  0.1712912599D+01
  2   2  0.2309572735D+00  0.6284666918D+01  0.9425106888D+00  0.3287878382D+00
  3   3  0.2096580465D+00  0.5705085488D+01  0.9751444676D+00  0.5478077363D-01
  4   4  0.2057775196D+00  0.5599490981D+01  0.9968654054D+00  0.3663928575D-01
  5   5  0.2051215945D+00  0.5581642352D+01  0.9988660780D+00  0.8687617141D-02
  6   6  0.2050394024D+00  0.5579405792D+01  0.9999204777D+00  0.2761234539D-02
  L-O-C-K-I-N-G O-N R-O-O-T 
  7   7  0.2050459516D+00  0.5579584004D+01  0.9999944048D+00  0.8400220019D-03
  8   8  0.2050388946D+00  0.5579391974D+01  0.9999994245D+00  0.6052427927D-03
  9   9  0.2050389040D+00  0.5579392228D+01  0.9999997166D+00  0.1571296312D-03
 The phase angle is:   0.270823568412746     
 Cr.Cr.  0.293516239291748     
 Ci.Ci.  0.706483760708252     
 10  10  0.2050392487D+00  0.5579401609D+01  0.9999999746D+00  0.1007761682D-03
 11  11  0.2050389841D+00  0.5579394407D+01  0.9999999924D+00  0.2632807904D-04
 12  12  0.2050391352D+00  0.5579398520D+01  0.9999999995D+00  0.8641837630D-05
  Converged eigenvalue:   0.205039135203786       a.u.
   Total EOMEE-CCSD electronic energy      -78.643168642370895 a.u.
  Converged eigenvector 
  SCF eigenvalue ordering used in list below. 
--------------------------------------------------------------------------------
    I    j    A    b
--------------------------------------------------------------------------------
    9    0   13    0  -0.6545190473 AA  
    9    9   13   10  -0.2090799393 ABAB
    9    9   10   13  -0.2090799393 ABAB
    9    9   13   24   0.0532836115 ABAB
    9    9   24   13   0.0532836115 ABAB
    9    9   13   28   0.0526388866 ABAB
    9    9   28   13   0.0526388866 ABAB
    9    9   13   19   0.0367408370 ABAB
    9    9   19   13   0.0367408370 ABAB
    8    0   13    0  -0.0356089408 AA  
    9    0   26    0  -0.0338110764 AA  
    9    8   15   11   0.0322632609 ABAB
    8    9   11   15   0.0322632609 ABAB
    9    8   13   10   0.0318596498 ABAB
    8    9   10   13   0.0318596498 ABAB
--------------------------------------------------------------------------------
  Converged eigenvector, normalized to one 
  SCF eigenvalue ordering used in list below. 
--------------------------------------------------------------------------------
    I    j    A    b
--------------------------------------------------------------------------------
    9    0   13    0  -0.6545190473 AA  
    9    9   13   10  -0.2090799393 ABAB
    9    9   10   13  -0.2090799393 ABAB
    9    9   13   24   0.0532836115 ABAB
    9    9   24   13   0.0532836115 ABAB
    9    9   13   28   0.0526388866 ABAB
    9    9   28   13   0.0526388866 ABAB
    9    9   13   19   0.0367408370 ABAB
    9    9   19   13   0.0367408370 ABAB
    8    0   13    0  -0.0356089408 AA  
    9    0   26    0  -0.0338110764 AA  
    9    8   15   11   0.0322632609 ABAB
    8    9   11   15   0.0322632609 ABAB
    9    8   13   10   0.0318596498 ABAB
    8    9   10   13   0.0318596498 ABAB
--------------------------------------------------------------------------------

  Eigenvector is saved on CCRE_2_1  

  Adding new vector to expansion space.
  Guess for next eigenvalue   0.342447007889428     
 13  13  0.3434067094D+00  0.9344571630D+01  0.7149193492D+00  0.2497754056D+00
 14  14  0.3386525504D+00  0.9215204387D+01  0.9897737505D+00  0.1020111904D+00
 15  15  0.3377604163D+00  0.9190928186D+01  0.9977691273D+00  0.1621740109D-01
 16  16  0.3375843772D+00  0.9186137917D+01  0.9996430345D+00  0.7781161857D-02
  L-O-C-K-I-N-G O-N R-O-O-T 
 17  17  0.3375658776D+00  0.9185634519D+01  0.9998778967D+00  0.2980777938D-02
 18  18  0.3375616080D+00  0.9185518336D+01  0.9999644943D+00  0.1364298639D-02
 19  19  0.3375614803D+00  0.9185514861D+01  0.9999966318D+00  0.4796251142D-03
 20  20  0.3375622834D+00  0.9185536714D+01  0.9999997664D+00  0.2041454362D-03
 21  21  0.3375621910D+00  0.9185534202D+01  0.9999999691D+00  0.7209029542D-04
 22  22  0.3375621357D+00  0.9185532696D+01  0.9999999944D+00  0.3760538779D-04
 23  23  0.3375620940D+00  0.9185531562D+01  0.9999999988D+00  0.1201803859D-04
 24  24  0.3375621107D+00  0.9185532015D+01  0.9999999999D+00  0.3611436262D-05
  Converged eigenvalue:   0.337562110677139       a.u.
   Total EOMEE-CCSD electronic energy      -78.510645666897545 a.u.
  Converged eigenvector 
  SCF eigenvalue ordering used in list below. 
--------------------------------------------------------------------------------
    I    j    A    b
--------------------------------------------------------------------------------
    8    0   13    0  -0.5459570269 AA  
    7    0   11    0   0.3899949930 AA  
    9    9   13   10   0.0810394042 ABAB
    9    9   10   13   0.0810394042 ABAB
    8    0   26    0  -0.0586468154 AA  
    8    0   21    0   0.0545071786 AA  
    5    8   11   11   0.0535168606 ABAB
    8    5   11   11   0.0535168606 ABAB
    8    8   15   11   0.0411316179 ABAB
    8    8   11   15   0.0411316179 ABAB
    7    0   25    0  -0.0345933273 AA  
    7    0   23    0  -0.0301861344 AA  
    8    0   16    0  -0.0299501725 AA  
    5    8   13   13  -0.0286239688 ABAB
    8    5   13   13  -0.0286239688 ABAB
--------------------------------------------------------------------------------
  Converged eigenvector, normalized to one 
  SCF eigenvalue ordering used in list below. 
--------------------------------------------------------------------------------
    I    j    A    b
--------------------------------------------------------------------------------
    8    0   13    0  -0.5459570269 AA  
    7    0   11    0   0.3899949930 AA  
    9    9   13   10   0.0810394042 ABAB
    9    9   10   13   0.0810394042 ABAB
    8    0   26    0  -0.0586468154 AA  
    8    0   21    0   0.0545071786 AA  
    5    8   11   11   0.0535168606 ABAB
    8    5   11   11   0.0535168606 ABAB
    8    8   15   11   0.0411316179 ABAB
    8    8   11   15   0.0411316179 ABAB
    7    0   25    0  -0.0345933273 AA  
    7    0   23    0  -0.0301861344 AA  
    8    0   16    0  -0.0299501725 AA  
    5    8   13   13  -0.0286239688 ABAB
    8    5   13   13  -0.0286239688 ABAB
--------------------------------------------------------------------------------

  Eigenvector is saved on CCRE_2_2  

  Adding new vector to expansion space.
  Guess for next eigenvalue   0.363200672021820     
 25  25  0.3515139889D+00  0.9565181922D+01  0.5367906801D+00  0.6782586927D-01
 26  26  0.3496373938D+00  0.9514117172D+01  0.9977048249D+00  0.1678168398D-01
 27  27  0.3493470011D+00  0.9506215188D+01  0.9997915360D+00  0.5434440748D-02
  L-O-C-K-I-N-G O-N R-O-O-T 
 28  28  0.3493207528D+00  0.9505500935D+01  0.9999820925D+00  0.1640327463D-02
 29  29  0.3493215138D+00  0.9505521643D+01  0.9999974229D+00  0.8230408302D-03
 30  30  0.3493212042D+00  0.9505513217D+01  0.9999991555D+00  0.3280874539D-03
 31  31  0.3493210388D+00  0.9505508717D+01  0.9999998664D+00  0.1125538447D-03
 32  32  0.3493211623D+00  0.9505512077D+01  0.9999999883D+00  0.4355418308D-04
 33  33  0.3493211155D+00  0.9505510804D+01  0.9999999986D+00  0.1428810434D-04
 34  34  0.3493211048D+00  0.9505510511D+01  0.9999999999D+00  0.5647822944D-05
  Converged eigenvalue:   0.349321104760066       a.u.
   Total EOMEE-CCSD electronic energy      -78.498886672814621 a.u.
  Converged eigenvector 
  SCF eigenvalue ordering used in list below. 
--------------------------------------------------------------------------------
    I    j    A    b
--------------------------------------------------------------------------------
    7    0   11    0   0.5442883218 AA  
    8    0   13    0   0.3828891675 AA  
    9    0   16    0   0.1168663072 AA  
    5    8   11   11   0.0694793706 ABAB
    8    5   11   11   0.0694793706 ABAB
    9    9   13   10  -0.0509930990 ABAB
    9    9   10   13  -0.0509930990 ABAB
    7    0   25    0  -0.0444503005 AA  
    8    0   26    0   0.0401206368 AA  
    7    0   23    0  -0.0374989282 AA  
    9    9   16   10   0.0365912493 ABAB
    9    9   10   16   0.0365912493 ABAB
    7    0   17    0  -0.0360678534 AA  
    7    0   18    0   0.0261032485 AA  
    8    0   21    0  -0.0251167180 AA  
--------------------------------------------------------------------------------
  Converged eigenvector, normalized to one 
  SCF eigenvalue ordering used in list below. 
--------------------------------------------------------------------------------
    I    j    A    b
--------------------------------------------------------------------------------
    7    0   11    0   0.5442883218 AA  
    8    0   13    0   0.3828891675 AA  
    9    0   16    0   0.1168663072 AA  
    5    8   11   11   0.0694793706 ABAB
    8    5   11   11   0.0694793706 ABAB
    9    9   13   10  -0.0509930990 ABAB
    9    9   10   13  -0.0509930990 ABAB
    7    0   25    0  -0.0444503005 AA  
    8    0   26    0   0.0401206368 AA  
    7    0   23    0  -0.0374989282 AA  
    9    9   16   10   0.0365912493 ABAB
    9    9   10   16   0.0365912493 ABAB
    7    0   17    0  -0.0360678534 AA  
    7    0   18    0   0.0261032485 AA  
    8    0   21    0  -0.0251167180 AA  
--------------------------------------------------------------------------------

  Eigenvector is saved on CCRE_2_3  

  Solution of   3 roots required   34 iterations.
 @CHECKOUT-I, Total execution time (CPU/WALL):       19.66/       2.47 seconds.
--executable xvee finished with status     0 in        2.49 seconds (walltime).
  The final electronic energy is       -78.498886672814621 a.u. 
  This computation required                            4.13 seconds (walltime).
