CFour on node02
 --invoking executable--
/home/tsommerfeld/zscale/bin/xjoda


   *************************************************************************
         <<<     CCCCCC     CCCCCC   |||     CCCCCC     CCCCCC   >>>
       <<<      CCC        CCC       |||    CCC        CCC         >>>
      <<<      CCC        CCC        |||   CCC        CCC            >>>
    <<<        CCC        CCC        |||   CCC        CCC              >>>
      <<<      CCC        CCC        |||   CCC        CCC            >>>
       <<<      CCC        CCC       |||    CCC        CCC         >>>
         <<<     CCCCCC     CCCCCC   |||     CCCCCC     CCCCCC   >>>
   *************************************************************************

     ****************************************************************
     * CFOUR Coupled-Cluster techniques for Computational Chemistry *
     ****************************************************************
 

   Department of Chemistry                Institut fuer Physikalische Chemie
   University of Florida                  Universitaet Mainz
   Gainesville, FL 32611, USA             D-55099 Mainz, Germany

   Department of Chemistry                Department of Chemistry
   Johns Hopkins University               Southern Methodist University
   Baltimore, MD 21218, USA               Dallas, TX 75275, USA

   Institute of Nanotechnology            Department of Physical Chemistry
   Karlsruhe Inst. of Technology          Eotvos Lorand University
   D-76021 Karlsruhe, Germany             H-1053 Budapest, Hungary

 
                       Version 2.1
 
                     node02                                            
                     Tue Mar 29 15:03:07 CST 2022                      
                     integer*8 version is running
 
********************************************************************************
*                          Input from ZMAT file                                *
********************************************************************************
h_ethylene                                                                      
C       0.000000      0.0   -0.664500                                           
C       0.000000      0.0    0.664500                                           
H       0.962348      0.0   -1.159080                                           
H       0.962348      0.0    1.159080                                           
H      -0.962348      0.0   -1.159080                                           
H      -0.962348      0.0    1.159080                                           
H      0.000000      4.068965517241379      0.000000                            
                                                                                
*CFOUR(CALC=CCSD                                                                
EXCITE=EOMEE                                                                    
ESTATE_SYM=0/3/0/0                                                              
CC_PROG=VCC                                                                     
CHARGE=-1                                                                       
COORDINATES=CARTESIAN                                                           
SCF_DAMP=500                                                                    
SCF_MAXCYC=300                                                                  
BASIS=SPECIAL                                                                   
REFERENCE=RHF                                                                   
MEM_SIZE=90,MEM_UNIT=GB)                                                        
                                                                                
C:CC-PVDZ                                                                       
C:CC-PVDZ                                                                       
H:CC-PVDZ                                                                       
H:CC-PVDZ                                                                       
H:CC-PVDZ                                                                       
H:CC-PVDZ                                                                       
H:AUG-CC-PVDZ                                                                   
                                                                                
********************************************************************************
    -------------------------------------------------------------------
                    CFOUR Control Parameters 
    -------------------------------------------------------------------
        External           Internal           Value            Units
          Name               Name
    -------------------------------------------------------------------
       ABCDTYPE             IABCDT         STANDARD    [  0]    ***   
       ANHARMONIC           IANHAR         OFF         [  0]    ***   
       ANH_ALGORIT          IANALG         STANDARD    [  0]    ***   
       ANH_DERIVAT          IANDER         SECOND      [  1]    ***   
       ANH_MODE             ANHMOD         VIBRATION   [  0]    ***   
       ANH_STEPSIZ          ICUBST             50000          x 10-6  
       ANH_SYMMETR          IANHSM         ABELIAN     [  0]    ***   
       AO_LADDERS           IAOLAD         SINGLEPASS  [  1]    ***   
       AV_SCF               IAVSCF         OFF         [  0]    ***   
       BASIS                IBASIS         SPECIAL     [  0]    ***   
       BOTHVECTORS          BOTHVC         OFF         [  0]    ***   
       BOX_POTENT           IPIAB          OFF         [  0]    ***   
       BREIT                IBREIT         OFF         [  0]    ***   
       BRUCK_CONV           IBRTOL          10D-  4             ***   
       BRUECKNER            IBRKNR         OFF         [  0]    ***   
       BUFFERSIZE           IBUFFS              4096            ***   
       CACHE_RECS           ICHREC             10               ***   
       CALCLEVEL            ICLLVL         CCSD        [ 10]    ***   
       CCORBOPT             ICCORB         OFF         [  0]  x 0.01  
       CC_CONV              ICCCNV          10D-  7             ***   
       CC_EXPORDER          ICCEOR              5               ***   
       CC_EXTRAPOL          ICCEXT         DIIS        [  1]    ***   
       CC_GUESS             ICCGES         MP2         [  0]    ***   
       CC_MAXCYC            ICCCYC            100              cycles 
       CC_PROGRAM           ICCPRO         VCC         [  0]    ***   
       CHARGE               ICHRGE             -1               ***   
       CHOLESKY             ICHOLE         OFF         [  0]    ***   
       CIS_CONV             ICISTL              5               ***   
       COMM_SIZE            IPSIZE            ***               ***   
       CONSTANT             ICONST         OLD         [  1]    ***   
       CONTINUUM            ICONTU         NONE        [  0]    ***   
       CONTRACTION          ICNTYP         GENERAL     [  1]    ***   
       COORDINATES          ICOORD         CARTESIAN   [  1]    ***   
       CPHF_CONVER          ICPHFT          10D- 16             ***   
       CPHF_MAXCYC          ICPHFC             64              cycles 
       CUBIC                ICUBIC         OFF         [  0]    ***   
       CURVILINEAR          ICURVY         OFF         [  0]    ***   
       DBOC                 IDBOC          OFF         [  0]    ***   
       DCT                  IDCT           OFF         [  0]    ***   
       DERIV_LEV            IDRLVL         ZERO        [  0]    ***   
       DEVMEM_SIZE          IDVMEM         *********           MByte  
       DIAG_MRCC            IEOMST          10D-  0             ***   
       DIFF_TYPE            IDIFTY         RELAXED     [  0]    ***   
       DIRECT               IDIRCT         OFF         [  0]    ***   
       DROPMO               IDRPMO      NONE         
       ECP                  IECP           OFF         [  0]    ***   
       EIGENVECTOR          IVEC                1               ***   
       EL_ANHARM            IELANH         OFF         [  0]    ***   
       EOMFOLLOW            IEOMSR         ENERGY      [  0]    ***   
       EOMIP                IEOMIP         OFF         [  0]    ***   
       EOMLEVEL             HBARFM         SAME        [  0]    ***   
       EOM_MRCC             IMRCCE         NEW         [  1]    ***   
       EOM_NONIT            EOMNON         OFF         [  0]    ***   
       EOM_NSING            IEOMSI          10D-  0             ***   
       EOM_NSTATES          IMRCCD         DAVIDSON    [  0]    ***   
       EOM_NTRIP            IEOMTR          10D-  0             ***   
       EOM_ORDER            IEXORD         ENERGY      [  0]    ***   
       EOM_PROPSTA          IEOMST              0               ***   
       ESTATE_CONV          IEXTOL          10D-  5             ***   
       ESTATE_DIAG          IEXDIG         ITERATIVE   [  0]    ***   
       ESTATE_LOCK          IESLOC         ON          [  1]    ***   
       ESTATE_MAXC          IEXMXC             40               ***   
       ESTATE_PROP          IEXPRP         OFF         [  0]    ***   
       ESTATE_SYM           IEXSYM   0,  3,  0,  0,
       EVAL_HESS            IRECAL              0            # of cyc.
       EXCITATION           IEXCIT              0               ***   
       EXCITE               IEXCIT         EOMEE       [  3]    ***   
       EXTERN_POT           IEXPOT         OFF         [  0]    ***   
       FCGRADNEW            IFCGNW         OFF         [  0]    ***   
       FC_FIELD             IFINFC              0             x 10-6  
       FD_CALTYPE           IFDCAL         GRADONLY    [  0]    ***   
       FD_PROJECT           IFDPRJ         OFF         [  1]    ***   
       FD_STEPSIZE          IDISFD              0            10-4 bohr
       FD_USEGROUP          IFDGRP         FULL        [  0]    ***   
       FILE_RECSIZ          IFLREC              4096           words  
       FINITE_PERT          IFIPER              0             x 10-6  
       FIXGEOM              IFIXGM         OFF         [  0]    ***   
       FOCK                 IFOCK          AO          [  1]    ***   
       FREQ_ALGORI          IVIALG         STANDARD    [  0]    ***   
       FROZEN_CORE          IFROCO         OFF         [  0]    ***   
       GAMMA_ABCD           IGABCD         STORE       [  0]    ***   
       GAMMA_ABCI           IGABCI         STORE       [  0]    ***   
       GENBAS_1             IGNBS1              0               ***   
       GENBAS_2             IGNBS2              0               ***   
       GENBAS_3             IGNBS3              0               ***   
       GENBAS_4             IGNBS4              0               ***   
       GEO_CONV             ICONTL              5              H/bohr 
       GEO_MAXCYC           IOPTCY             50               ***   
       GEO_MAXSTEP          IMXSTP            300            millibohr
       GEO_METHOD           INR            SINGLE_POINT[  5]    ***   
       GIAO                 IGIAO          OFF         [  1]    ***   
       GIMIC                IGIMIC         OFF         [  0]    ***   
       GRID                 IGRID          OFF         [  0]    ***   
       GRID_ALGO            IGALGO         SERIAL      [  0]    ***   
       GUESS                IGUESS         MOREAD      [  0]    ***   
       HBAR                 IHBAR          ON          [  1]    ***   
       HESS_TYPE            IHESTP         SCF         [  0]    ***   
       HF2_FILE             IHF2Fl         USE         [  1]    ***   
       HFSTABILITY          ISTABL         OFF         [  0]    ***   
       INCORE               INCORE         OFF         [  0]    ***   
       INPUT_MRCC           IMRCC          ON          [  1]    ***   
       INTEGRALS            INTTYP         VMOL        [  1]    ***   
       JODA_PRINT           IJPRNT              0               ***   
       KEYWORD_OUT          IDMPKW         NO          [  0]    ***   
       LINDEP_TOL           ILINDP              8               ***   
       LINEQ_CONV           IZTACN          10D-  7           cycles  
       LINEQ_EXPOR          ILMAXD              5               ***   
       LINEQ_MAXCY          ILMAXC            100               ***   
       LINEQ_TYPE           ILTYPE         DIIS        [  1]    ***   
       LOCK_ORBOCC          ILOCOC         OFF         [  0]    ***   
       MEMORY_SIZE          IMEMSZ         *********           words  
       MEM_UNIT             IMEMU          GB          [  3]    ***   
       MRCC                 IMRCCC         OFF         [  0]    ***   
       MULTIPLICTY          IMULTP              1               ***   
       NACOUPLING           IVCOUP         OFF         [  0]    ***   
       NEGEVAL              IDIE           ABORT       [  0]    ***   
       NEWNORM              INEWNO         OFF         [  0]    ***   
       NON-HF               INONHF         OFF         [  0]    ***   
       NTOP_TAMP            ITOPT2             15               ***   
       NUC_MODEL            INUCMO         POINT       [  0]    ***   
       OCCUPATION           IOCCU   ESTIMATED BY SCF 
       OPEN-SHELL           IOPEN          SPIN-ORBITAL[  0]    ***   
       OPTVIB               IOPTVB         OFF         [  0]    ***   
       ORBITALS             IORBTP         STANDARD    [  0]    ***   
       PARALLEL             IPARAL         ON          [  1]    ***   
       PARA_INT             IPINTS         ON          [  1]    ***   
       PARA_PRINT           IPPRIN              0               ***   
       PERT_ORB             IPTORB         STANDARD    [  0]    ***   
       POINTS               IGRDFD              0               ***   
       PRINT                IPRNT               0               ***   
       PROPS                IPROPS         OFF         [  0]    ***   
       PROP_INTEGR          IINTYP         INTERNAL    [  0]    ***   
       PSI                  IPSI           OFF         [  0]    ***   
       QC_ALG               IQCALG         FLM         [  0]    ***   
       QC_LINALG            IQCLIN         TRIDIAG     [  2]    ***   
       QC_MAXCYC            IQCMAX          10D-100           cycles  
       QC_MAXSCFCY          IQCMSC          10D- 15           cycles  
       QC_RTRUST            IQCRTR          10D-  0           x 10-3  
       QC_SKIPSCF           IQCSKI         OFF         [  0]    ***   
       QC_START             IQCSTA          10D-  1             ***   
       QRHFGUESS            IQGUES         OFF         [  0]    ***   
       QUARTIC              IQUART         OFF         [  0]    ***   
       RAMAN_INT            IRAMIN         OFF         [  0]    ***   
       RAMAN_ORB            IRAMRE         UNRELAXED   [  0]    ***   
       RDO                  IRDOFM         OFF         [  0]    ***   
       REDUCE_REPR          REDREP         Ir          [  0]    ***   
       REFERENCE            IREFNC         RHF         [  0]    ***   
       RELATIVIST           IRELAT         OFF         [  0]    ***   
       RELAX_DENS           IRDENS         OFF         [  0]    ***   
       RESET_FLAGS          IRESET         OFF         [  0]    ***   
       RESTART_CC           ICCRES         OFF         [  0]    ***   
       ROT_EVEC             ROTVEC              0               ***   
       SAVE_INTS            ISVINT         OFF         [  0]    ***   
       SCALE_ON             ISTCRT              0               ***   
       SCF_CONV             ISCFCV          10D-  7             ***   
       SCF_DAMPING          IDAMP             500             x 10-3  
       SCF_EXPORDE          IRPPOR              6               ***   
       SCF_EXPSTAR          IRPPLS              8               ***   
       SCF_EXTRAPO          IRPP           ON          [  1]    ***   
       SCF_MAXCYC           ISCFCY            300              cycles 
       SCF_NOSTOP           ISCFST         OFF         [  0]    ***   
       SCF_PRINT            ISCFPR              0               ***   
       SCF_PROG             ISCFPR         SCF         [  0]    ***   
       SD_FIELD             IFINSD              0             x 10-6  
       SOPERT               IPERSO         OFF         [  0]    ***   
       SPHERICAL            IDFGHI         ON          [  1]    ***   
       SPINORBIT            ISOCAL         OFF         [  0]    ***   
       SPINROTATIO          ISRCON         OFF         [  0]    ***   
       SPIN_FLIP            ISPFLP         OFF         [  0]    ***   
       SPIN_ORBIT           ISPORB         OFF         [  0]    ***   
       SPIN_SCAL            ISCSMP         OFF         [  0]    ***   
       STEEPSCALE           ISTPSC              1000          x 10-3  
       SUBGROUP             ISUBGP         DEFAULT     [  0]    ***   
       SUBGRPAXIS           ISBXYZ         X           [  0]    ***   
       SYMMETRY             ISYM           ON          [  0]    ***   
       SYM_CHECK            ISYMCK         OVERRIDE    [  1]    ***   
       T3_EXTRAPOL          IT3EXT         OFF         [  0]    ***   
       T4_EXTRAPOL          IT4EXP         OFF         [  0]    ***   
       TAMP_SUM             IEVERY              5               ***   
       TESTSUITE            ITESTS         OFF         [  0]    ***   
       THERMOCH             ITHERM         OFF         [  0]    ***   
       TOL_CHOLESK          ITOLCH          10D-  4             ***   
       TRANGRAD             IRESRM         OFF         [  0]    ***   
       TRANS_INV            ITRAIN         USE         [  0]    ***   
       TREAT_PERT           ITREAT         SIMULTANEOUS[  0]    ***   
       TRIP_ALGORI          ITRALG         NORMAL      [  0]    ***   
       UIJ_THRESHO          IUIJTH              1               ***   
       UNITS                IUNITS         ANGSTROM    [  0]    ***   
       UNOS                 IUNOS          OFF         [  0]    ***   
       UPDATE_HESS          IHUPDT         ON          [  1]    ***   
       VIBPHASE             ISETPH         STANDARD    [  0]    ***   
       VIBRATION            IVIB           NO          [  0]    ***   
       VIB_ALGORIT          IGEALG         STANDARD    [  0]    ***   
       VNATORB              IVNORB         OFF         [  0]    ***   
       VTRAN                IVTRAN         FULL/PARTIAL[  0]    ***   
       XFIELD               IXEFLD              0             x 10-6  
       XFORM_TOL            IXFTOL          10D- 11             ***   
       YFIELD               IYEFLD              0             x 10-6  
       ZFIELD               IZEFLD              0             x 10-6  
       ZSCALE_EXP           IZEXPS         OFF         [  0]    ***   
    -------------------------------------------------------------------
  @GETXYZ-I,     7 atoms read from ZMAT.
   Rotational constants (in cm-1): 
          0.5248280189             0.8496629033             0.8536890782
   Rotational constants (in MHz): 
      15733.9503853850         25472.2565933874         25592.9582983935
********************************************************************************
   The full molecular point group is C2v .
   The largest Abelian subgroup of the full molecular point group is C2v .
   The computational point group is C2v .
********************************************************************************


 ----------------------------------------------------------------
         Coordinates used in calculation (QCOMP) 
 ----------------------------------------------------------------
 Z-matrix   Atomic            Coordinates (in bohr)
  Symbol    Number           X              Y              Z
 ----------------------------------------------------------------
     C         6        -1.25572327     0.00000000    -0.26686068
     C         6         1.25572327     0.00000000    -0.26686068
     H         1        -2.19034422     1.81857454    -0.26686068
     H         1         2.19034422     1.81857454    -0.26686068
     H         1        -2.19034422    -1.81857454    -0.26686068
     H         1         2.19034422    -1.81857454    -0.26686068
     H         1         0.00000000     0.00000000     7.42237137
 ----------------------------------------------------------------
 
   Interatomic distance matrix (Angstroms) 
 
                 C             C             H             H             H    
                [ 1]        [ 2]        [ 3]        [ 4]        [ 5]
  C    [ 1]     0.00000
  C    [ 2]     1.32900     0.00000
  H    [ 3]     1.08200     2.06193     0.00000
  H    [ 4]     2.06193     1.08200     2.31816     0.00000
  H    [ 5]     1.08200     2.06193     1.92470     3.01303     0.00000
  H    [ 6]     2.06193     1.08200     3.01303     1.92470     2.31816
  H    [ 7]     4.12287     4.12287     4.33890     4.33890     4.33890
 
                 H             H    
                [ 6]        [ 7]
  H    [ 6]     0.00000
  H    [ 7]     4.33890     0.00000
 rotcon2
   Rotational constants (in cm-1): 
          0.8496629033             0.5248280189             0.8536890782
   Rotational constants (in MHz): 
      25472.2565933874         15733.9503853850         25592.9582983935
  ECPDATA file not present.   Using default ECPDATA. 
  There are   57 basis functions.
 @GEOPT-W, Archive file not created for single-point calculation.
 @CHECKOUT-I, Total execution time (CPU/WALL):        0.12/       0.13 seconds.
--executable xjoda finished with status     0 in        0.15 seconds (walltime).
 --invoking executable--
/home/tsommerfeld/zscale/bin/xvmol
 SERIAL VERSION OF MOLECULE STARTED
********************************************************************************
                    INPUT FROM MOL FILE
********************************************************************************
INTGRL        1    0    1    0    0    0    0    0    0                         
         *** CFOUR Program System (Release V0.1) ***                            
h_ethylene                                                                      
    3    2 X  Y       0.10E-08              0    0                              
   9999.00      3.00                                                            
          6.00000000    1    3    1    1    1                                   
C #1  -1.255723272983657   0.000000000000000  -0.266860675479166                
    9    3                                                                      
   6665.00000000000       6.920000000000000E-004 -1.460000000000000E-004        
  0.000000000000000E+000                                                        
   1000.00000000000       5.329000000000000E-003 -1.154000000000000E-003        
  0.000000000000000E+000                                                        
   228.000000000000       2.707700000000000E-002 -5.725000000000000E-003        
  0.000000000000000E+000                                                        
   64.7100000000000       0.101718000000000      -2.331200000000000E-002        
  0.000000000000000E+000                                                        
   21.0600000000000       0.274740000000000      -6.395500000000000E-002        
  0.000000000000000E+000                                                        
   7.49500000000000       0.448564000000000      -0.149981000000000             
  0.000000000000000E+000                                                        
   2.79700000000000       0.285074000000000      -0.127262000000000             
  0.000000000000000E+000                                                        
  0.521500000000000       1.520400000000000E-002  0.544529000000000             
  0.000000000000000E+000                                                        
  0.159600000000000      -3.191000000000000E-003  0.580496000000000             
   1.00000000000000                                                             
    4    2                                                                      
   9.43900000000000       3.810900000000000E-002  0.000000000000000E+000        
   2.00200000000000       0.209480000000000       0.000000000000000E+000        
  0.545600000000000       0.508557000000000       0.000000000000000E+000        
  0.151700000000000       0.468842000000000        1.00000000000000             
    1    1                                                                      
  0.550000000000000        1.00000000000000                                     
          1.00000000    1    2    1    1                                        
H #2  -2.190344215575466   1.818574537711477  -0.266860675479166                
    4    2                                                                      
   13.0100000000000       1.968500000000000E-002  0.000000000000000E+000        
   1.96200000000000       0.137977000000000       0.000000000000000E+000        
  0.444600000000000       0.478148000000000       0.000000000000000E+000        
  0.122000000000000       0.501240000000000        1.00000000000000             
    1    1                                                                      
  0.727000000000000        1.00000000000000                                     
          1.00000000    1    2    1    1                                        
H #3   0.000000000000000   0.000000000000000   7.422371374134053                
    5    3                                                                      
   13.0100000000000       1.968500000000000E-002  0.000000000000000E+000        
  0.000000000000000E+000                                                        
   1.96200000000000       0.137977000000000       0.000000000000000E+000        
  0.000000000000000E+000                                                        
  0.444600000000000       0.478148000000000       0.000000000000000E+000        
  0.000000000000000E+000                                                        
  0.122000000000000       0.501240000000000        1.00000000000000             
  0.000000000000000E+000                                                        
  2.974000000000000E-002  0.000000000000000E+000  0.000000000000000E+000        
   1.00000000000000                                                             
    2    2                                                                      
  0.727000000000000        1.00000000000000       0.000000000000000E+000        
  0.141000000000000       0.000000000000000E+000   1.00000000000000             
FINISH                                                                          
 
********************************************************************************
 ONE- AND TWO-ELECTRON INTEGRALS OVER SYMMETRY-ADAPTED AOS ARE CALCULATED.

  SPHERICAL HARMONICS ARE USED.
  
  INTEGRALS LESS THAN  0.10E-13 ARE NEGLECTED.

  NUCLEAR REPULSION ENERGY :   35.6172802443 A.U.
  @MOLECU-I, ONE ELECTRON INTEGRALS (CPU/WALL):        0.01/       0.01 SECONDS.
  @TWOEL-I,      29502 INTEGRALS OF SYMMETRY TYPE  I I I I
  @TWOEL-I,     101662 INTEGRALS OF SYMMETRY TYPE  I J I J
  @TWOEL-I,      57959 INTEGRALS OF SYMMETRY TYPE  I I J J
  @TWOEL-I,      74960 INTEGRALS OF SYMMETRY TYPE  I J K L
  @TWOEL-I, TOTAL NUMBER OF 2-E INTEGRALS     264083.
  @MOLECU-I, TWO ELECTRON INTEGRALS (CPU/WALL):        0.18/       0.19 SECONDS.
 @CHECKOUT-I, Total execution time (CPU/WALL):        0.20/       0.22 seconds.

Running with 8 threads/proc

--executable xvmol finished with status     0 in        0.24 seconds (walltime).
 --invoking executable--
/home/tsommerfeld/zscale/bin/xvmol2ja
 @GETMEM-I,  Allocated   85830 MB of main memory.
 @CHECKOUT-I, Total execution time (CPU/WALL):        0.03/       0.01 seconds.
--executable xvmol2ja finished with status     0 in        0.03 seconds (walltime).
 --invoking executable--
/home/tsommerfeld/zscale/bin/xvscf
  There are   57 functions in the AO basis.

  There are 4 irreducible representations.

       Irrep        # of functions
         1                 20
         2                 17
         3                 11
         4                  9


  Parameters for SCF calculation: 
        SCF reference function:  RHF  
  Maximum number of iterations:  300
     Full symmetry point group: C2v 
     Computational point group: C2v 
        Initial density matrix: MOREAD                 
     SCF convergence tolerance: 10**(- 7)
  DIIS convergence acceleration:  ON
          Latest start for DIIS:   8
                     DIIS order:   6

  Memory information:     156410 words required.
  Fock matrices are constructed from AO integral file.
 @GETMEM-I,  Allocated       1 MB of main memory.
  Initialization and symmetry analysis required      0.002 seconds.

  @INITGES-I, Occupancies from core Hamiltonian:

          Alpha population by irrep:   3    4    1    1
           Beta population by irrep:   3    4    1    1


 total no. of electrons in initial guess :  0.000000000000000E+000
  --------------------------------------------------------------------
  Iteration         Total Energy            Largest Density Difference
  --------------------------------------------------------------------
       0            35.617280244311267              0.0000000000D+00
   current occupation vector 
     3  4  1  1
     3  4  1  1
  applying damping factor of   0.500000000000000     
       1           -39.352479848581218              0.8822603838D+01
   current occupation vector 
     3  4  1  1
     3  4  1  1
  applying damping factor of   0.500000000000000     
       2           -60.723059480053045              0.3199966711D+01
   current occupation vector 
     4  3  1  1
     4  3  1  1
  applying damping factor of   0.500000000000000     
       3           -69.778151148840493              0.2681165838D+01
   current occupation vector 
     5  2  1  1
     5  2  1  1
  applying damping factor of   0.500000000000000     
       4           -74.160520209544813              0.1424089504D+01
   current occupation vector 
     5  2  1  1
     5  2  1  1
  applying damping factor of   0.500000000000000     
       5           -76.333619591751756              0.7378857481D+00
   current occupation vector 
     5  2  1  1
     5  2  1  1
  applying damping factor of   0.500000000000000     
       6           -77.421445640983706              0.3790346846D+00
   current occupation vector 
     5  2  1  1
     5  2  1  1
  applying damping factor of   0.500000000000000     
       7           -77.967549680607192              0.2382144661D+00
   current occupation vector 
     5  2  1  1
     5  2  1  1
       8           -78.517830714261862              0.1275776016D+00
   current occupation vector 
     5  2  1  1
     5  2  1  1
       9           -78.517833151045608              0.2407181359D-02
   current occupation vector 
     5  2  1  1
     5  2  1  1
      10           -78.517833312919436              0.4197465039D-03
   current occupation vector 
     5  2  1  1
     5  2  1  1
      11           -78.517833319665101              0.5989705433D-04
   current occupation vector 
     5  2  1  1
     5  2  1  1
      12           -78.517833319916264              0.1026626601D-04
   current occupation vector 
     5  2  1  1
     5  2  1  1
      13           -78.517833319937580              0.4095531109D-05
   current occupation vector 
     5  2  1  1
     5  2  1  1
      14           -78.517833319938347              0.7989301525D-06
   current occupation vector 
     5  2  1  1
     5  2  1  1
      15           -78.517833319938632              0.1761364629D-06
   current occupation vector 
     5  2  1  1
     5  2  1  1

  SCF has converged.

 Density matrix saved to file den.dat
 total electron number:   18.0000000000000     
     E(SCF)=       -78.517833319938518              0.4639231738D-07


  Final occupancies:

     Alpha population by irrep:   5    2    1    1
      Beta population by irrep:   5    2    1    1


  Eigenvector printing suppressed.

 @PUTMOS-I, Writing converged MOs to NEWMOS. 
 @PUTMOS-I, Symmetry   1 Full Blocks  5 Partial Blocksize   0
 @PUTMOS-I, Symmetry   2 Full Blocks  4 Partial Blocksize   1
 @PUTMOS-I, Symmetry   3 Full Blocks  2 Partial Blocksize   3
 @PUTMOS-I, Symmetry   4 Full Blocks  2 Partial Blocksize   1
 @PUTFOCK-I, Writing converged Fock matrix to NEWFOCK. 
 @PUTFOCK-I, Symmetry   1 Full Blocks  5 Partial Blocksize   0
 @PUTFOCK-I, Symmetry   2 Full Blocks  4 Partial Blocksize   1
 @PUTFOCK-I, Symmetry   3 Full Blocks  2 Partial Blocksize   3
 @PUTFOCK-I, Symmetry   4 Full Blocks  2 Partial Blocksize   1


 
  ORBITAL EIGENVALUES (ALPHA)  (1H = 27.2113834 eV)

       MO #        E(hartree)               E(eV)           FULLSYM    COMPSYM
       ----   --------------------   --------------------   -------   ---------
    1     1         -11.1109937101        -302.3455097997      A1        A1 (1)
    2    21         -11.1092857552        -302.2990339854      B1        B1 (2)
    3     2          -0.9150225963         -24.8990306868      A1        A1 (1)
    4    22          -0.6577312628         -17.8977775664      B1        B1 (2)
    5    38          -0.5356497643         -14.5757711042      B2        B2 (3)
    6     3          -0.4423379425         -12.0366273470      A1        A1 (1)
    7    49          -0.3921083359         -10.6698102626      A2        A2 (4)
    8     4          -0.2501808682          -6.8077675230      A1        A1 (1)
    9     5          -0.0405889057          -1.1044802759      A1        A1 (1)
  +++++++++++++++++++++++++++++++++++++++++++++++++++++++++++++++++++++++++++++
   10     6           0.2841623271           7.7324500298      A1        A1 (1)
   11    23           0.2944643913           8.0127834495      B1        B1 (2)
   12     7           0.3266514032           8.8886365710      A1        A1 (1)
   13    39           0.3415303533           9.2935133864      B2        B2 (3)
   14    24           0.3586536582           9.7594622001      B1        B1 (2)
   15    50           0.4133192565          11.2469887565      A2        A2 (4)
   16     8           0.5556018156          15.1186940224      A1        A1 (1)
   17    25           0.5611337748          15.2692262856      B1        B1 (2)
   18    40           0.5622031771          15.2983262005      B2        B2 (3)
   19    26           0.5628414828          15.3156953817      B1        B1 (2)
   20     9           0.6787725028          18.4703388153      A1        A1 (1)
   21    41           0.7756556430          21.1066630884      B2        B2 (3)
   22    10           0.8103530092          22.0508264216      A1        A1 (1)
   23    11           0.8731714507          23.7602031179      A1        A1 (1)
   24    27           0.9124343133          24.8285999276      B1        B1 (2)
   25    28           0.9372495961          25.5038581007      B1        B1 (2)
   26    42           0.9841484207          26.7800399981      B2        B2 (3)
   27    51           1.0576765688          28.7808426275      A2        A2 (4)
   28    29           1.0847072352          29.5163844546      B1        B1 (2)
   29    12           1.0928564663          29.7381363057      A1        A1 (1)
   30    13           1.1324003103          30.8141790065      A1        A1 (1)
   31    43           1.2399280501          33.7401575604      B2        B2 (3)
   32    30           1.3589810948          36.9797556048      B1        B1 (2)
   33    52           1.4087837345          38.3349543279      A2        A2 (4)
   34    14           1.4104890674          38.3813587932      A1        A1 (1)
   35    53           1.4664701205          39.9046806927      A2        A2 (4)
   36    15           1.7184391318          46.7611060654      A1        A1 (1)
   37    54           1.7346995809          47.2035753807      A2        A2 (4)
   38    44           1.8108388993          49.2754315658      B2        B2 (3)
   39    31           1.9509390096          53.0877493807      B1        B1 (2)
   40    32           1.9981544526          54.3725469033      B1        B1 (2)
   41    16           2.0399211232          55.5090757903      A1        A1 (1)
   42    17           2.0531439407          55.8688869459      A1        A1 (1)
   43    45           2.1081933951          57.3668587559      B2        B2 (3)
   44    46           2.1413487316          58.2690613287      B2        B2 (3)
   45    47           2.1456926640          58.3872657400      B2        B2 (3)
   46    33           2.1474822645          58.4359632431      B1        B1 (2)
   47    18           2.1667300449          58.9597219766      A1        A1 (1)
   48    34           2.2914074675          62.3523671242      B1        B1 (2)
   49    35           2.3875519165          64.9685905880      B1        B1 (2)
   50    55           2.5373853387          69.0457652836      A2        A2 (4)
   51    19           2.5376378029          69.0526351854      A1        A1 (1)
   52    56           2.6091606781          70.9988715634      A2        A2 (4)
   53    36           2.6520525703          72.1660192885      B1        B1 (2)
   54    48           2.9093142432          79.1664653029      B2        B2 (3)
   55    20           2.9111523332          79.2164822734      A1        A1 (1)
   56    37           3.3507980485          91.1798503940      B1        B1 (2)
   57    57           3.4606585597          94.1693068832      A2        A2 (4)


  VSCF finished.

 @CHECKOUT-I, Total execution time (CPU/WALL):        0.26/       0.10 seconds.
--executable xvscf finished with status     0 in        0.11 seconds (walltime).
 --invoking executable--
/home/tsommerfeld/zscale/bin/xvtran
 @GETMEM-I,  Allocated   85830 MB of main memory.
  Full RHF integral transformation
  Transformation of IIII integrals :
  1 pass through the AO integral file was required.
       29502 AO integrals were read.
       37182 MO integrals were written to HF2.
  Transformation of IIJJ integrals :
  1 pass through the AO integral file was required.
       57959 AO integrals were read.
       75393 MO integrals were written to HF2.
  Transformation of IJIJ integrals :
  1 pass through the AO integral file was required.
      101662 AO integrals were read.
      132879 MO integrals were written to HF2.
  Transformation of IJKL integrals :
  1 pass through the AO integral file was required.
       74960 AO integrals were read.
      100980 MO integrals were written to HF2.
  Summary of active molecular orbitals: 
------------------------------------------------------------------------
 
  Index      Eigenvalue    Symmetry    Index      Eigenvalue    Symmetry
------------------------------------------------------------------------
     1       -11.1109937        1        30         0.9372496        2
     2        -0.9150226        1        31         1.0847072        2
     3        -0.4423379        1        32         1.3589811        2
     4        -0.2501809        1        33         1.9509390        2
     5        -0.0405889        1        34         1.9981545        2
     6       -11.1092858        2        35         2.1474823        2
     7        -0.6577313        2        36         2.2914075        2
     8        -0.5356498        3        37         2.3875519        2
     9        -0.3921083        4        38         2.6520526        2
    10         0.2841623        1        39         3.3507980        2
    11         0.3266514        1        40         0.3415304        3
    12         0.5556018        1        41         0.5622032        3
    13         0.6787725        1        42         0.7756556        3
    14         0.8103530        1        43         0.9841484        3
    15         0.8731715        1        44         1.2399281        3
    16         1.0928565        1        45         1.8108389        3
    17         1.1324003        1        46         2.1081934        3
    18         1.4104891        1        47         2.1413487        3
    19         1.7184391        1        48         2.1456927        3
    20         2.0399211        1        49         2.9093142        3
    21         2.0531439        1        50         0.4133193        4
    22         2.1667300        1        51         1.0576766        4
    23         2.5376378        1        52         1.4087837        4
    24         2.9111523        1        53         1.4664701        4
    25         0.2944644        2        54         1.7346996        4
    26         0.3586537        2        55         2.5373853        4
    27         0.5611338        2        56         2.6091607        4
    28         0.5628415        2        57         3.4606586        4
    29         0.9124343        2
------------------------------------------------------------------------
  -11.1109937100705      -0.915022596269905      -0.442337942547495     
 -0.250180868164829      -4.058890574170776E-002  -11.1092857552165     
 -0.657731262807498      -0.535649764288440      -0.392108335904672     
  0.284162327071244       0.326651403215323       0.555601815614739     
  0.678772502807110       0.810353009160149       0.873171450661487     
   1.09285646630131        1.13240031032221        1.41048906735224     
   1.71843913181695        2.03992112324216        2.05314394070358     
   2.16673004491782        2.53763780291447        2.91115233315991     
  0.294464391305577       0.358653658164783       0.561133774830756     
  0.562841482792022       0.912434313341011       0.937249596091255     
   1.08470723523185        1.35898109483000        1.95093900961658     
   1.99815445264504        2.14748226446556        2.29140746751435     
   2.38755191652731        2.65205257034081        3.35079804851057     
  0.341530353300948       0.562203177091019       0.775655643011991     
  0.984148420696685        1.23992805012704        1.81083889934834     
   2.10819339511858        2.14134873160012        2.14569266404762     
   2.90931424320416       0.413319256547688        1.05767656882355     
   1.40878373452846        1.46647012046965        1.73469958093740     
   2.53738533865170        2.60916067807877        3.46065855965383     
 @CHECKOUT-I, Total execution time (CPU/WALL):        0.36/       0.07 seconds.
--executable xvtran finished with status     0 in        0.09 seconds (walltime).
 --invoking executable--
/home/tsommerfeld/zscale/bin/xintprc
 @GETMEM-I,  Allocated   85830 MB of main memory.
  Processing integrals for CCSD calculation.
  @GMOIAA-I, Processing MO integrals for spin case AA.
  @GMOIAA-I, Generation of integral list completed.
                      TYPE                NUMBER
                      ----               --------
                      PPPP                174781
                      PPPH                128448
                      PPHH                 24003
                      PHPH                 13755
                      PHHH                  5115
                      HHHH                   332

                     TOTAL                346434

  @FORMT2-I, Second-order MP correlation energies:
            ------------------------------------------------
            E(SCF)                  =    -78.517833319939 a.u.
            E2(AA)                  =     -0.031263648021 a.u.
            E2(AB)                  =     -0.244026780754 a.u.
            E2(TOT)                 =     -0.306554076796 a.u.
            Total MP2 energy        =    -78.824387396735 a.u.
            ------------------------------------------------
   Largest T2 amplitudes for spin case AB:
       _       _                 _       _                 _       _
   i   j   a   b             i   j   a   b             i   j   a   b
-----------------------------------------------------------------------------
[  4   4  25  25]-0.09185 [  5   5  10  10]-0.07652 [  5   5  41  41]-0.04480
[  5   5  12  12]-0.04202 [  5   5  11  10] 0.03347 [  5   5  10  11] 0.03347
[  5   5  16  16]-0.03247 [  5   5  28  28]-0.03208 [  4   4  30  25] 0.02984
[  4   4  25  30] 0.02984 [  5   5  16  10] 0.02935 [  5   5  10  16] 0.02935
[  4   3  25  31] 0.02661 [  3   4  31  25] 0.02661 [  4   4  14  14]-0.02588
-----------------------------------------------------------------------------
   Norm of T2AB vector (    47574 symmetry allowed elements):  0.3156635839.
-----------------------------------------------------------------------------
 @CHECKOUT-I, Total execution time (CPU/WALL):        0.43/       0.10 seconds.
--executable xintprc finished with status     0 in        0.12 seconds (walltime).
  calling xvcc 
 --invoking executable--
/home/tsommerfeld/zscale/bin/xvcc
 @GETMEM-I,  Allocated   85830 MB of main memory.
   CCSD energy will be calculated.
   The total correlation energy is -0.306554076796 a.u.
   The total correlation energy is -0.332427644477 a.u.
  Convergence information after     1 iterations: 
  Largest element of residual vector : -0.30047914E-01.
  Largest element of DIIS residual   : -0.30047914E-01.
   The total correlation energy is -0.342474352156 a.u.
  Convergence information after     2 iterations: 
  Largest element of residual vector : -0.14190505E-01.
  Largest element of DIIS residual   : -0.10412030E-01.
   The total correlation energy is -0.346608424913 a.u.
  Convergence information after     3 iterations: 
  Largest element of residual vector : -0.49508339E-02.
  Largest element of DIIS residual   : -0.42829771E-02.
   The total correlation energy is -0.347666495059 a.u.
  Convergence information after     4 iterations: 
  Largest element of residual vector : -0.22840107E-02.
  Largest element of DIIS residual   : -0.12524032E-02.
   The total correlation energy is -0.347850518592 a.u.
  Convergence information after     5 iterations: 
  Largest element of residual vector : -0.62123828E-03.
  Largest element of DIIS residual   :  0.32532287E-03.
   The total correlation energy is -0.347846844755 a.u.
  Convergence information after     6 iterations: 
  Largest element of residual vector : -0.21599777E-03.
  Largest element of DIIS residual   : -0.18318262E-03.
   The total correlation energy is -0.347837544665 a.u.
  Convergence information after     7 iterations: 
  Largest element of residual vector :  0.91126296E-04.
  Largest element of DIIS residual   : -0.54262872E-04.
   The total correlation energy is -0.347830318670 a.u.
  Convergence information after     8 iterations: 
  Largest element of residual vector :  0.34601257E-04.
  Largest element of DIIS residual   :  0.18524214E-04.
   The total correlation energy is -0.347829493615 a.u.
  Convergence information after     9 iterations: 
  Largest element of residual vector : -0.13878762E-04.
  Largest element of DIIS residual   : -0.10813333E-04.
   The total correlation energy is -0.347829890124 a.u.
  Convergence information after    10 iterations: 
  Largest element of residual vector : -0.51538544E-05.
  Largest element of DIIS residual   : -0.51773565E-05.
   The total correlation energy is -0.347830466126 a.u.
  Convergence information after    11 iterations: 
  Largest element of residual vector : -0.32881225E-05.
  Largest element of DIIS residual   : -0.26360422E-05.
   The total correlation energy is -0.347830884549 a.u.
  Convergence information after    12 iterations: 
  Largest element of residual vector : -0.14215558E-05.
  Largest element of DIIS residual   : -0.92406083E-06.
   The total correlation energy is -0.347831096378 a.u.
  Convergence information after    13 iterations: 
  Largest element of residual vector : -0.61840754E-06.
  Largest element of DIIS residual   : -0.40938578E-06.
   The total correlation energy is -0.347831125375 a.u.
  Convergence information after    14 iterations: 
  Largest element of residual vector : -0.22032028E-06.
  Largest element of DIIS residual   :  0.17630035E-06.
   The total correlation energy is -0.347831120369 a.u.
  Convergence information after    15 iterations: 
  Largest element of residual vector : -0.10181728E-06.
  Largest element of DIIS residual   :  0.94906830E-07.
   The total correlation energy is -0.347831111009 a.u.
  Convergence information after    16 iterations: 
  Largest element of residual vector :  0.53393996E-07.
  Largest element of DIIS residual   :  0.32852394E-07.
  Amplitude equations converged in    16iterations.
   The total correlation energy is -0.347831105858 a.u.
   The CC iterations have converged.

   Largest T1 amplitudes for spin case AA:
   i       a                 i       a                 i       a    
-----------------------------------------------------------------------------
[  5      10    ]-0.02290 [  4      14    ]-0.01683 [  4      18    ] 0.01592
[  4      15    ] 0.01546 [  5      16    ]-0.01310 [  5      17    ] 0.00748
[  4      12    ] 0.00730 [  8      42    ]-0.00617 [  4      21    ] 0.00581
[  3      13    ]-0.00481 [  9      56    ] 0.00447 [  9      50    ]-0.00438
[  3      23    ] 0.00402 [  8      45    ] 0.00399 [  3      19    ]-0.00374
-----------------------------------------------------------------------------
   Norm of T1AA vector (      123 symmetry allowed elements):  0.0438745199.
-----------------------------------------------------------------------------
   Largest T2 amplitudes for spin case AB:
       _       _                 _       _                 _       _
   i   j   a   b             i   j   a   b             i   j   a   b
-----------------------------------------------------------------------------
[  5   5  10  10]-0.14093 [  4   4  25  25]-0.13479 [  5   5  41  41]-0.06299
[  5   5  11  10] 0.06143 [  5   5  10  11] 0.06143 [  5   5  12  12]-0.05885
[  5   5  16  10] 0.05590 [  5   5  10  16] 0.05590 [  5   5  28  28]-0.04504
[  4   4  30  25] 0.04128 [  4   4  25  30] 0.04128 [  5   5  16  16]-0.03716
[  5   5  11  11]-0.02809 [  5   5  28  27] 0.02808 [  5   5  27  28] 0.02808
-----------------------------------------------------------------------------
   Norm of T2AB vector (    47574 symmetry allowed elements):  0.4109749579.
-----------------------------------------------------------------------------
       Summary of iterative solution of CC equations 
      -----------------------------------------------------------
                       Correlation           Total
       Iteration         Energy              Energy
      -----------------------------------------------------------
            0        -0.306554076796     -78.824387396735  DIIS 
            1        -0.332427644477     -78.850260964415  DIIS 
            2        -0.342474352156     -78.860307672095  DIIS 
            3        -0.346608424913     -78.864441744852  DIIS 
            4        -0.347666495059     -78.865499814997  DIIS 
            5        -0.347850518592     -78.865683838531  DIIS 
            6        -0.347846844755     -78.865680164693  DIIS 
            7        -0.347837544665     -78.865670864603  DIIS 
            8        -0.347830318670     -78.865663638609  DIIS 
            9        -0.347829493615     -78.865662813554  DIIS 
           10        -0.347829890124     -78.865663210062  DIIS 
           11        -0.347830466126     -78.865663786064  DIIS 
           12        -0.347830884549     -78.865664204488  DIIS 
           13        -0.347831096378     -78.865664416317  DIIS 
           14        -0.347831125375     -78.865664445314  DIIS 
           15        -0.347831120369     -78.865664440308  DIIS 
           16        -0.347831105858     -78.865664425796  DIIS 
      -----------------------------------------------------------
      A miracle has come to pass. The CC iterations have converged.
      The reference energy is       -78.51783331993852 a.u.
      The correlation energy is      -0.34783110585775 a.u.
      The total energy is           -78.86566442579627 a.u.
 @CHECKOUT-I, Total execution time (CPU/WALL):        5.65/       0.72 seconds.
--executable xvcc finished with status     0 in        0.74 seconds (walltime).
 --invoking executable--
/home/tsommerfeld/zscale/bin/xlambda
 @GETMEM-I,  Allocated   85830 MB of main memory.
 Hbar is calculated for a CCSD wave function.
 Calculation of Hbar completed.
 @CHECKOUT-I, Total execution time (CPU/WALL):        0.84/       0.12 seconds.
--executable xlambda finished with status     0 in        0.13 seconds (walltime).
 --invoking executable--
/home/tsommerfeld/zscale/bin/xvee
 @GETMEM-I,  Allocated   85830 MB of main memory.
  cc2 and ccprog  F                     0
  EOMEE-CCSD excitation energies will be evaluated.
  @SETMET-I, VPROP property integrals are used.
  @SETMET-I, A total of   3 target states will be studied.
  Summary of active alpha molecular orbitals:
------------------------------------------------------------------------------
Orbital      Sym   Eigenvalue  <xx>     <yy>     <zz>     <xy>     <xz>     <yz>
        SCF
  #  position
------------------------------------------------------------------------------
   1      1    1     -11.1110   0.000    0.000    0.000    0.000    0.000    0.000
   2      3    1      -0.9150   0.000    0.000    0.000    0.000    0.000    0.000
   3      6    1      -0.4423   0.000    0.000    0.000    0.000    0.000    0.000
   4      8    1      -0.2502   0.000    0.000    0.000    0.000    0.000    0.000
   5      9    1      -0.0406   0.000    0.000    0.000    0.000    0.000    0.000
   6      2    2     -11.1093   0.000    0.000    0.000    0.000    0.000    0.000
   7      4    2      -0.6577   0.000    0.000    0.000    0.000    0.000    0.000
   8      5    3      -0.5356   0.000    0.000    0.000    0.000    0.000    0.000
   9      7    4      -0.3921   0.000    0.000    0.000    0.000    0.000    0.000
  10     10    1       0.2842   0.000    0.000    0.000    0.000    0.000    0.000
  11     12    1       0.3267   0.000    0.000    0.000    0.000    0.000    0.000
  12     16    1       0.5556   0.000    0.000    0.000    0.000    0.000    0.000
  13     20    1       0.6788   0.000    0.000    0.000    0.000    0.000    0.000
  14     22    1       0.8104   0.000    0.000    0.000    0.000    0.000    0.000
  15     23    1       0.8732   0.000    0.000    0.000    0.000    0.000    0.000
  16     29    1       1.0929   0.000    0.000    0.000    0.000    0.000    0.000
  17     30    1       1.1324   0.000    0.000    0.000    0.000    0.000    0.000
  18     34    1       1.4105   0.000    0.000    0.000    0.000    0.000    0.000
  19     36    1       1.7184   0.000    0.000    0.000    0.000    0.000    0.000
  20     41    1       2.0399   0.000    0.000    0.000    0.000    0.000    0.000
  21     42    1       2.0531   0.000    0.000    0.000    0.000    0.000    0.000
  22     47    1       2.1667   0.000    0.000    0.000    0.000    0.000    0.000
  23     51    1       2.5376   0.000    0.000    0.000    0.000    0.000    0.000
  24     55    1       2.9112   0.000    0.000    0.000    0.000    0.000    0.000
  25     11    2       0.2945   0.000    0.000    0.000    0.000    0.000    0.000
  26     14    2       0.3587   0.000    0.000    0.000    0.000    0.000    0.000
  27     17    2       0.5611   0.000    0.000    0.000    0.000    0.000    0.000
  28     19    2       0.5628   0.000    0.000    0.000    0.000    0.000    0.000
  29     24    2       0.9124   0.000    0.000    0.000    0.000    0.000    0.000
  30     25    2       0.9372   0.000    0.000    0.000    0.000    0.000    0.000
  31     28    2       1.0847   0.000    0.000    0.000    0.000    0.000    0.000
  32     32    2       1.3590   0.000    0.000    0.000    0.000    0.000    0.000
  33     39    2       1.9509   0.000    0.000    0.000    0.000    0.000    0.000
  34     40    2       1.9982   0.000    0.000    0.000    0.000    0.000    0.000
  35     46    2       2.1475   0.000    0.000    0.000    0.000    0.000    0.000
  36     48    2       2.2914   0.000    0.000    0.000    0.000    0.000    0.000
  37     49    2       2.3876   0.000    0.000    0.000    0.000    0.000    0.000
  38     53    2       2.6521   0.000    0.000    0.000    0.000    0.000    0.000
  39     56    2       3.3508   0.000    0.000    0.000    0.000    0.000    0.000
  40     13    3       0.3415   0.000    0.000    0.000    0.000    0.000    0.000
  41     18    3       0.5622   0.000    0.000    0.000    0.000    0.000    0.000
  42     21    3       0.7757   0.000    0.000    0.000    0.000    0.000    0.000
  43     26    3       0.9841   0.000    0.000    0.000    0.000    0.000    0.000
  44     31    3       1.2399   0.000    0.000    0.000    0.000    0.000    0.000
  45     38    3       1.8108   0.000    0.000    0.000    0.000    0.000    0.000
  46     43    3       2.1082   0.000    0.000    0.000    0.000    0.000    0.000
  47     44    3       2.1413   0.000    0.000    0.000    0.000    0.000    0.000
  48     45    3       2.1457   0.000    0.000    0.000    0.000    0.000    0.000
  49     54    3       2.9093   0.000    0.000    0.000    0.000    0.000    0.000
  50     15    4       0.4133   0.000    0.000    0.000    0.000    0.000    0.000
  51     27    4       1.0577   0.000    0.000    0.000    0.000    0.000    0.000
  52     33    4       1.4088   0.000    0.000    0.000    0.000    0.000    0.000
  53     35    4       1.4665   0.000    0.000    0.000    0.000    0.000    0.000
  54     37    4       1.7347   0.000    0.000    0.000    0.000    0.000    0.000
  55     50    4       2.5374   0.000    0.000    0.000    0.000    0.000    0.000
  56     52    4       2.6092   0.000    0.000    0.000    0.000    0.000    0.000
  57     57    4       3.4607   0.000    0.000    0.000    0.000    0.000    0.000
------------------------------------------------------------------------------
  @DRVTDA-I, Roots obtained by Davidson method.
  calling tda davidson                       6                     2
  after tda davidson                      6                     6
                     3                     3
  kroot is                      3
__________________________________________________________________________
    Tamm-Dancoff (CIS) Excitation Energies and Transition Moments

                Excitation         Transition Dipole         Oscillator
 Root  Symmetry  Energy         x           y           z     Strength
__________________________________________________________________________
   1       2    0.20619      0.0000      0.0000      0.0000  .00000000D+00
__________________________________________________________________________
 
__________________________________________________________________________
  TDA excitation ergy:             0.206193860984 a.u.    5.6108 eV
  Total TDA electronic energy:   -78.311639458954 a.u.
 
  Dominant contributions: 
  SCF eigenvalue ordering used in list below. 
--------------------------------------------------------------------------------
    I    j    A    b
--------------------------------------------------------------------------------
    9    0   11    0  -0.9963054273 AA  
    8    0   11    0  -0.0574412318 AA  
    9    0   14    0  -0.0423588077 AA  
    9    0   19    0   0.0218958531 AA  
    9    0   24    0   0.0204015813 AA  
    9    0   17    0  -0.0153007691 AA  
    6    0   11    0   0.0133756748 AA  
    9    0   32    0   0.0126993419 AA  
    6    0   28    0  -0.0097372106 AA  
    7    0   13    0   0.0091008750 AA  
    5    0   15    0   0.0089807081 AA  
    4    0   12    0   0.0088423165 AA  
    9    0   28    0   0.0080854471 AA  
    6    0   17    0  -0.0075127969 AA  
    7    0   21    0   0.0062633134 AA  
--------------------------------------------------------------------------------
   2       2    0.28409      0.0000      0.0000      0.0000  .00000000D+00
__________________________________________________________________________
 
__________________________________________________________________________
  TDA excitation ergy:             0.284090689214 a.u.    7.7305 eV
  Total TDA electronic energy:   -78.233742630725 a.u.
 
  Dominant contributions: 
  SCF eigenvalue ordering used in list below. 
--------------------------------------------------------------------------------
    I    j    A    b
--------------------------------------------------------------------------------
    9    0   14    0  -0.9834272584 AA  
    8    0   11    0  -0.1475249977 AA  
    8    0   14    0  -0.0592428345 AA  
    9    0   11    0   0.0530180322 AA  
    9    0   19    0   0.0430269600 AA  
    9    0   17    0  -0.0272246943 AA  
    7    0   13    0   0.0173256480 AA  
    4    0   12    0   0.0142772862 AA  
    6    0   11    0   0.0141911098 AA  
    5    0   15    0   0.0134433251 AA  
    6    0   14    0   0.0132681817 AA  
    6    0   28    0  -0.0122096627 AA  
    9    0   25    0  -0.0119088821 AA  
    9    0   24    0  -0.0112625788 AA  
    6    0   17    0  -0.0097391312 AA  
--------------------------------------------------------------------------------
   3       2    0.30953      0.0000      0.0000      0.0000  .00000000D+00
__________________________________________________________________________
 
__________________________________________________________________________
  TDA excitation ergy:             0.309528476409 a.u.    8.4227 eV
  Total TDA electronic energy:   -78.208304843529 a.u.
 
  Dominant contributions: 
  SCF eigenvalue ordering used in list below. 
--------------------------------------------------------------------------------
    I    j    A    b
--------------------------------------------------------------------------------
    8    0   11    0  -0.9489599081 AA  
    9    0   14    0   0.1591668242 AA  
    6    0   28    0  -0.0916644637 AA  
    6    0   17    0  -0.0898108811 AA  
    4    0   12    0   0.0889148319 AA  
    5    0   15    0   0.0855346735 AA  
    7    0   13    0   0.0755911868 AA  
    7    0   21    0   0.0755856807 AA  
    9    0   19    0   0.0706810646 AA  
    6    0   19    0  -0.0574760895 AA  
    9    0   11    0   0.0563558809 AA  
    4    0   10    0   0.0561622311 AA  
    9    0   17    0  -0.0430892964 AA  
    3    0   14    0   0.0429689954 AA  
    5    0   27    0   0.0395636776 AA  
--------------------------------------------------------------------------------
__________________________________________________________________________
  @DOEOMEE-I, Excitation energies computed by the EOMEE-CCSD/CCSD-LR method.
  @DOEOMEE-I, right-hand eigenvectors will be computed.
  Beginning symmetry block   2.   3 roots requested.
  @DOEOMEE-I, Matrix dimension for diagonalization:    47661
  Creating initial guess for root
________________________________________________________________________
            Subspace          Eigenvalue           
 Iteration  Dimension   (a.u.)         (eV)       Overlap      Residual
________________________________________________________________________
  @NEWGES-I, Using TDA initial guess.
  1   1  0.2833277881D+00  0.7709741070D+01  0.0000000000D+00  0.4975539040D+00
  2   2  0.1707468182D+00  0.4646257135D+01  0.9380113085D+00  0.1273465737D+00
  3   3  0.1605568108D+00  0.4368972935D+01  0.9918886404D+00  0.4093165342D-01
  4   4  0.1597973392D+00  0.4348306664D+01  0.9993878282D+00  0.1630710854D-01
  5   5  0.1596488486D+00  0.4344266028D+01  0.9999443711D+00  0.5580949509D-02
  L-O-C-K-I-N-G O-N R-O-O-T 
  6   6  0.1596393480D+00  0.4344007503D+01  0.9999863294D+00  0.1795302950D-02
  7   7  0.1596395427D+00  0.4344012803D+01  0.9999981026D+00  0.7440151593D-03
  8   8  0.1596390133D+00  0.4343998396D+01  0.9999997253D+00  0.1511656102D-03
  9   9  0.1596388240D+00  0.4343993246D+01  0.9999999887D+00  0.5291322623D-04
 10  10  0.1596389984D+00  0.4343997991D+01  0.9999999984D+00  0.2155805583D-04
 11  11  0.1596389488D+00  0.4343996640D+01  0.9999999995D+00  0.1521008053D-04
 12  12  0.1596389075D+00  0.4343995519D+01  0.9999999997D+00  0.5163709952D-05
  Converged eigenvalue:   0.159638907544946       a.u.
   Total EOMEE-CCSD electronic energy      -78.706025518251323 a.u.
  Converged eigenvector 
  SCF eigenvalue ordering used in list below. 
--------------------------------------------------------------------------------
    I    j    A    b
--------------------------------------------------------------------------------
    9    0   11    0   0.6493894808 AA  
    9    9   11   10   0.1975757308 ABAB
    9    9   10   11   0.1975757308 ABAB
    9    9   11   12  -0.0801924014 ABAB
    9    9   12   11  -0.0801924014 ABAB
    9    9   11   29  -0.0717989600 ABAB
    9    9   29   11  -0.0717989600 ABAB
    9    8   11   10   0.0349680509 ABAB
    8    9   10   11   0.0349680509 ABAB
    7    9   15   11  -0.0338013165 ABAB
    9    7   11   15  -0.0338013165 ABAB
    9    9   11   30   0.0331332682 ABAB
    9    9   30   11   0.0331332682 ABAB
    9    9   11   16  -0.0312403302 ABAB
    9    9   16   11  -0.0312403302 ABAB
--------------------------------------------------------------------------------
  Converged eigenvector, normalized to one 
  SCF eigenvalue ordering used in list below. 
--------------------------------------------------------------------------------
    I    j    A    b
--------------------------------------------------------------------------------
    9    0   11    0   0.6493894808 AA  
    9    9   11   10   0.1975757308 ABAB
    9    9   10   11   0.1975757308 ABAB
    9    9   11   12  -0.0801924014 ABAB
    9    9   12   11  -0.0801924014 ABAB
    9    9   11   29  -0.0717989600 ABAB
    9    9   29   11  -0.0717989600 ABAB
    9    8   11   10   0.0349680509 ABAB
    8    9   10   11   0.0349680509 ABAB
    7    9   15   11  -0.0338013165 ABAB
    9    7   11   15  -0.0338013165 ABAB
    9    9   11   30   0.0331332682 ABAB
    9    9   30   11   0.0331332682 ABAB
    9    9   11   16  -0.0312403302 ABAB
    9    9   16   11  -0.0312403302 ABAB
--------------------------------------------------------------------------------

  Eigenvector is saved on CCRE_2_1  

  Adding new vector to expansion space.
  Guess for next eigenvalue   0.284090689213952     
 13  13  0.2652847505D+00  0.7218765056D+01  0.7618116502D+00  0.1863911986D+00
 14  14  0.2452183114D+00  0.6672729488D+01  0.9830496375D+00  0.7519322336D-01
 15  15  0.2423706374D+00  0.6595240339D+01  0.9962926915D+00  0.2771073147D-01
 16  16  0.2420232369D+00  0.6585787090D+01  0.9995751428D+00  0.9849976691D-02
 17  17  0.2419542495D+00  0.6583909848D+01  0.9999362829D+00  0.3427705790D-02
  L-O-C-K-I-N-G O-N R-O-O-T 
 18  18  0.2419422454D+00  0.6583583199D+01  0.9999899033D+00  0.1320758927D-02
 19  19  0.2419458531D+00  0.6583681372D+01  0.9999991501D+00  0.4189513487D-03
 20  20  0.2419458067D+00  0.6583680107D+01  0.9999999315D+00  0.1200055258D-03
 21  21  0.2419456276D+00  0.6583675233D+01  0.9999999903D+00  0.3772316043D-04
 22  22  0.2419455447D+00  0.6583672980D+01  0.9999999986D+00  0.1578703496D-04
 23  23  0.2419455905D+00  0.6583674225D+01  0.9999999997D+00  0.5257959781D-05
  Converged eigenvalue:   0.241945590484925       a.u.
   Total EOMEE-CCSD electronic energy      -78.623718835311337 a.u.
  Converged eigenvector 
  SCF eigenvalue ordering used in list below. 
--------------------------------------------------------------------------------
    I    j    A    b
--------------------------------------------------------------------------------
    9    0   14    0  -0.6493873529 AA  
    9    9   14   10  -0.2138414793 ABAB
    9    9   10   14  -0.2138414793 ABAB
    9    9   14   12   0.0886843113 ABAB
    9    9   12   14   0.0886843113 ABAB
    9    9   14   29   0.0768231257 ABAB
    9    9   29   14   0.0768231257 ABAB
    9    8   12   11   0.0393288915 ABAB
    8    9   11   12   0.0393288915 ABAB
    9    9   14   30  -0.0358767881 ABAB
    9    9   30   14  -0.0358767881 ABAB
    9    0   11    0   0.0287445662 AA  
    9    8   10   11   0.0264653853 ABAB
    8    9   11   10   0.0264653853 ABAB
    9    0   24    0  -0.0256701895 AA  
--------------------------------------------------------------------------------
  Converged eigenvector, normalized to one 
  SCF eigenvalue ordering used in list below. 
--------------------------------------------------------------------------------
    I    j    A    b
--------------------------------------------------------------------------------
    9    0   14    0  -0.6493873529 AA  
    9    9   14   10  -0.2138414793 ABAB
    9    9   10   14  -0.2138414793 ABAB
    9    9   14   12   0.0886843113 ABAB
    9    9   12   14   0.0886843113 ABAB
    9    9   14   29   0.0768231257 ABAB
    9    9   29   14   0.0768231257 ABAB
    9    8   12   11   0.0393288915 ABAB
    8    9   11   12   0.0393288915 ABAB
    9    9   14   30  -0.0358767881 ABAB
    9    9   30   14  -0.0358767881 ABAB
    9    0   11    0   0.0287445662 AA  
    9    8   10   11   0.0264653853 ABAB
    8    9   11   10   0.0264653853 ABAB
    9    0   24    0  -0.0256701895 AA  
--------------------------------------------------------------------------------

  Eigenvector is saved on CCRE_2_2  

  Adding new vector to expansion space.
  Guess for next eigenvalue   0.309528476409224     
 24  24  0.3379953108D+00  0.9197319990D+01  0.7270119251D+00  0.8551619948D+01
 25  25  0.3294460510D+00  0.8964682803D+01  0.9934697838D+00  0.1006857323D+00
 26  26  0.3273947323D+00  0.8908863585D+01  0.9957542197D+00  0.2352200292D-01
 27  27  0.3271490624D+00  0.8902178566D+01  0.9990093602D+00  0.1809312177D-01
 28  28  0.3270352580D+00  0.8899081792D+01  0.9994923855D+00  0.9882439723D-02
 29  29  0.3269956249D+00  0.8898003321D+01  0.9999150723D+00  0.4438175503D-02
  L-O-C-K-I-N-G O-N R-O-O-T 
 30  30  0.3269864545D+00  0.8897753780D+01  0.9999611667D+00  0.4499128037D-02
 31  31  0.3269847818D+00  0.8897708264D+01  0.9999649358D+00  0.1643975486D-02
 32  32  0.3269809674D+00  0.8897604468D+01  0.9999876864D+00  0.1104045238D-02
 33  33  0.3269802293D+00  0.8897584385D+01  0.9999991014D+00  0.3718292931D-03
 34  34  0.3269801609D+00  0.8897582523D+01  0.9999998477D+00  0.1919744081D-03
 35  35  0.3269800549D+00  0.8897579639D+01  0.9999999211D+00  0.1023174247D-03
 36  36  0.3269800069D+00  0.8897578331D+01  0.9999999616D+00  0.5364499787D-04
 37  37  0.3269799580D+00  0.8897577001D+01  0.9999999941D+00  0.2766637642D-04
 38  38  0.3269799581D+00  0.8897577003D+01  0.9999999981D+00  0.1032976922D-04
 39  39  0.3269799508D+00  0.8897576805D+01  0.9999999996D+00  0.4055676493D-05
  Converged eigenvalue:   0.326979950771230       a.u.
   Total EOMEE-CCSD electronic energy      -78.538684475025036 a.u.
  Converged eigenvector 
  SCF eigenvalue ordering used in list below. 
--------------------------------------------------------------------------------
    I    j    A    b
--------------------------------------------------------------------------------
    8    0   11    0   0.6659778372 AA  
    4    0   12    0  -0.0620438492 AA  
    6    0   17    0   0.0586926110 AA  
    6    0   28    0   0.0578453259 AA  
    9    0   19    0  -0.0573970549 AA  
    5    0   15    0  -0.0550344675 AA  
    7    0   21    0  -0.0531284563 AA  
    9    8   11   10  -0.0525315349 ABAB
    8    9   10   11  -0.0525315349 ABAB
    8    8   11   34  -0.0424906422 ABAB
    8    8   34   11  -0.0424906422 ABAB
    4    0   10    0  -0.0391712567 AA  
    7    0   13    0  -0.0382017069 AA  
    6    0   19    0   0.0380877267 AA  
    9    0   17    0   0.0348114060 AA  
--------------------------------------------------------------------------------
  Converged eigenvector, normalized to one 
  SCF eigenvalue ordering used in list below. 
--------------------------------------------------------------------------------
    I    j    A    b
--------------------------------------------------------------------------------
    8    0   11    0   0.6659778372 AA  
    4    0   12    0  -0.0620438492 AA  
    6    0   17    0   0.0586926110 AA  
    6    0   28    0   0.0578453259 AA  
    9    0   19    0  -0.0573970549 AA  
    5    0   15    0  -0.0550344675 AA  
    7    0   21    0  -0.0531284563 AA  
    9    8   11   10  -0.0525315349 ABAB
    8    9   10   11  -0.0525315349 ABAB
    8    8   11   34  -0.0424906422 ABAB
    8    8   34   11  -0.0424906422 ABAB
    4    0   10    0  -0.0391712567 AA  
    7    0   13    0  -0.0382017069 AA  
    6    0   19    0   0.0380877267 AA  
    9    0   17    0   0.0348114060 AA  
--------------------------------------------------------------------------------

  Eigenvector is saved on CCRE_2_3  

  Solution of   3 roots required   39 iterations.
 @CHECKOUT-I, Total execution time (CPU/WALL):       24.19/       3.03 seconds.
--executable xvee finished with status     0 in        3.05 seconds (walltime).
  The final electronic energy is       -78.538684475025036 a.u. 
  This computation required                            4.68 seconds (walltime).
