CFour on node01
 --invoking executable--
/home/tsommerfeld/zscale/bin/xjoda


   *************************************************************************
         <<<     CCCCCC     CCCCCC   |||     CCCCCC     CCCCCC   >>>
       <<<      CCC        CCC       |||    CCC        CCC         >>>
      <<<      CCC        CCC        |||   CCC        CCC            >>>
    <<<        CCC        CCC        |||   CCC        CCC              >>>
      <<<      CCC        CCC        |||   CCC        CCC            >>>
       <<<      CCC        CCC       |||    CCC        CCC         >>>
         <<<     CCCCCC     CCCCCC   |||     CCCCCC     CCCCCC   >>>
   *************************************************************************

     ****************************************************************
     * CFOUR Coupled-Cluster techniques for Computational Chemistry *
     ****************************************************************
 

   Department of Chemistry                Institut fuer Physikalische Chemie
   University of Florida                  Universitaet Mainz
   Gainesville, FL 32611, USA             D-55099 Mainz, Germany

   Department of Chemistry                Department of Chemistry
   Johns Hopkins University               Southern Methodist University
   Baltimore, MD 21218, USA               Dallas, TX 75275, USA

   Institute of Nanotechnology            Department of Physical Chemistry
   Karlsruhe Inst. of Technology          Eotvos Lorand University
   D-76021 Karlsruhe, Germany             H-1053 Budapest, Hungary

 
                       Version 2.1
 
                     node01                                            
                     Tue May  3 11:06:12 CDT 2022                      
                     integer*8 version is running
 
********************************************************************************
*                          Input from ZMAT file                                *
********************************************************************************
h_ethylene                                                                      
C       0.000000      0.0   -0.664500                                           
C       0.000000      0.0    0.664500                                           
H       0.962348      0.0   -1.159080                                           
H       0.962348      0.0    1.159080                                           
H      -0.962348      0.0   -1.159080                                           
H      -0.962348      0.0    1.159080                                           
H      0.000000      4.466666666666667      0.000000                            
                                                                                
*CFOUR(CALC=CCSD(T)                                                             
#EXCITE=EOMEE                                                                   
#ESTATE_SYM=0/3/0/0                                                             
CC_PROG=VCC                                                                     
CHARGE=-1                                                                       
COORDINATES=CARTESIAN                                                           
BASIS=SPECIAL                                                                   
REFERENCE=RHF                                                                   
MEM_SIZE=90,MEM_UNIT=GB)                                                        
                                                                                
C:cc-pVTZ                                                                       
C:cc-pVTZ                                                                       
H:cc-pVTZ                                                                       
H:cc-pVTZ                                                                       
H:cc-pVTZ                                                                       
H:cc-pVTZ                                                                       
H:aug-cc-pVTZ                                                                   
                                                                                
********************************************************************************
  @GTFLGS-W, Keyword #EXCITE not known and is ignored.
  @GTFLGS-W, Keyword #ESTATE_SYM not known and is ignored.
    -------------------------------------------------------------------
                    CFOUR Control Parameters 
    -------------------------------------------------------------------
        External           Internal           Value            Units
          Name               Name
    -------------------------------------------------------------------
       ABCDTYPE             IABCDT         STANDARD    [  0]    ***   
       ANHARMONIC           IANHAR         OFF         [  0]    ***   
       ANH_ALGORIT          IANALG         STANDARD    [  0]    ***   
       ANH_DERIVAT          IANDER         SECOND      [  1]    ***   
       ANH_MODE             ANHMOD         VIBRATION   [  0]    ***   
       ANH_STEPSIZ          ICUBST             50000          x 10-6  
       ANH_SYMMETR          IANHSM         ABELIAN     [  0]    ***   
       AO_LADDERS           IAOLAD         SINGLEPASS  [  1]    ***   
       AV_SCF               IAVSCF         OFF         [  0]    ***   
       BASIS                IBASIS         SPECIAL     [  0]    ***   
       BOTHVECTORS          BOTHVC         OFF         [  0]    ***   
       BOX_POTENT           IPIAB          OFF         [  0]    ***   
       BREIT                IBREIT         OFF         [  0]    ***   
       BRUCK_CONV           IBRTOL          10D-  4             ***   
       BRUECKNER            IBRKNR         OFF         [  0]    ***   
       BUFFERSIZE           IBUFFS              4096            ***   
       CACHE_RECS           ICHREC             10               ***   
       CALCLEVEL            ICLLVL         CCSD(T)     [ 22]    ***   
       CCORBOPT             ICCORB         OFF         [  0]  x 0.01  
       CC_CONV              ICCCNV          10D-  7             ***   
       CC_EXPORDER          ICCEOR              5               ***   
       CC_EXTRAPOL          ICCEXT         DIIS        [  1]    ***   
       CC_GUESS             ICCGES         MP2         [  0]    ***   
       CC_MAXCYC            ICCCYC            100              cycles 
       CC_PROGRAM           ICCPRO         VCC         [  0]    ***   
       CHARGE               ICHRGE             -1               ***   
       CHOLESKY             ICHOLE         OFF         [  0]    ***   
       CIS_CONV             ICISTL              5               ***   
       COMM_SIZE            IPSIZE            ***               ***   
       CONSTANT             ICONST         OLD         [  1]    ***   
       CONTINUUM            ICONTU         NONE        [  0]    ***   
       CONTRACTION          ICNTYP         GENERAL     [  1]    ***   
       COORDINATES          ICOORD         CARTESIAN   [  1]    ***   
       CPHF_CONVER          ICPHFT          10D- 16             ***   
       CPHF_MAXCYC          ICPHFC             64              cycles 
       CUBIC                ICUBIC         OFF         [  0]    ***   
       CURVILINEAR          ICURVY         OFF         [  0]    ***   
       DBOC                 IDBOC          OFF         [  0]    ***   
       DCT                  IDCT           OFF         [  0]    ***   
       DERIV_LEV            IDRLVL         ZERO        [  0]    ***   
       DEVMEM_SIZE          IDVMEM         *********           MByte  
       DIAG_MRCC            IEOMST          10D-  0             ***   
       DIFF_TYPE            IDIFTY         RELAXED     [  0]    ***   
       DIRECT               IDIRCT         OFF         [  0]    ***   
       DROPMO               IDRPMO      NONE         
       ECP                  IECP           OFF         [  0]    ***   
       EIGENVECTOR          IVEC                1               ***   
       EL_ANHARM            IELANH         OFF         [  0]    ***   
       EOMFOLLOW            IEOMSR         ENERGY      [  0]    ***   
       EOMIP                IEOMIP         OFF         [  0]    ***   
       EOMLEVEL             HBARFM         SAME        [  0]    ***   
       EOM_MRCC             IMRCCE         NEW         [  1]    ***   
       EOM_NONIT            EOMNON         OFF         [  0]    ***   
       EOM_NSING            IEOMSI          10D-  0             ***   
       EOM_NSTATES          IMRCCD         DAVIDSON    [  0]    ***   
       EOM_NTRIP            IEOMTR          10D-  0             ***   
       EOM_ORDER            IEXORD         ENERGY      [  0]    ***   
       EOM_PROPSTA          IEOMST              0               ***   
       ESTATE_CONV          IEXTOL          10D-  5             ***   
       ESTATE_DIAG          IEXDIG         ITERATIVE   [  0]    ***   
       ESTATE_LOCK          IESLOC         ON          [  1]    ***   
       ESTATE_MAXC          IEXMXC             40               ***   
       ESTATE_PROP          IEXPRP         OFF         [  0]    ***   
       EVAL_HESS            IRECAL              0            # of cyc.
       EXCITATION           IEXCIT              0               ***   
       EXCITE               IEXCIT         NONE        [  0]    ***   
       EXTERN_POT           IEXPOT         OFF         [  0]    ***   
       FCGRADNEW            IFCGNW         OFF         [  0]    ***   
       FC_FIELD             IFINFC              0             x 10-6  
       FD_CALTYPE           IFDCAL         GRADONLY    [  0]    ***   
       FD_PROJECT           IFDPRJ         OFF         [  1]    ***   
       FD_STEPSIZE          IDISFD              0            10-4 bohr
       FD_USEGROUP          IFDGRP         FULL        [  0]    ***   
       FILE_RECSIZ          IFLREC              4096           words  
       FINITE_PERT          IFIPER              0             x 10-6  
       FIXGEOM              IFIXGM         OFF         [  0]    ***   
       FOCK                 IFOCK          AO          [  1]    ***   
       FREQ_ALGORI          IVIALG         STANDARD    [  0]    ***   
       FROZEN_CORE          IFROCO         OFF         [  0]    ***   
       GAMMA_ABCD           IGABCD         STORE       [  0]    ***   
       GAMMA_ABCI           IGABCI         STORE       [  0]    ***   
       GENBAS_1             IGNBS1              0               ***   
       GENBAS_2             IGNBS2              0               ***   
       GENBAS_3             IGNBS3              0               ***   
       GENBAS_4             IGNBS4              0               ***   
       GEO_CONV             ICONTL              5              H/bohr 
       GEO_MAXCYC           IOPTCY             50               ***   
       GEO_MAXSTEP          IMXSTP            300            millibohr
       GEO_METHOD           INR            SINGLE_POINT[  5]    ***   
       GIAO                 IGIAO          OFF         [  1]    ***   
       GIMIC                IGIMIC         OFF         [  0]    ***   
       GRID                 IGRID          OFF         [  0]    ***   
       GRID_ALGO            IGALGO         SERIAL      [  0]    ***   
       GUESS                IGUESS         MOREAD      [  0]    ***   
       HBAR                 IHBAR          OFF         [  0]    ***   
       HESS_TYPE            IHESTP         SCF         [  0]    ***   
       HF2_FILE             IHF2Fl         USE         [  1]    ***   
       HFSTABILITY          ISTABL         OFF         [  0]    ***   
       INCORE               INCORE         OFF         [  0]    ***   
       INPUT_MRCC           IMRCC          ON          [  1]    ***   
       INTEGRALS            INTTYP         VMOL        [  1]    ***   
       JODA_PRINT           IJPRNT              0               ***   
       KEYWORD_OUT          IDMPKW         NO          [  0]    ***   
       LINDEP_TOL           ILINDP              8               ***   
       LINEQ_CONV           IZTACN          10D-  7           cycles  
       LINEQ_EXPOR          ILMAXD              5               ***   
       LINEQ_MAXCY          ILMAXC            100               ***   
       LINEQ_TYPE           ILTYPE         DIIS        [  1]    ***   
       LOCK_ORBOCC          ILOCOC         OFF         [  0]    ***   
       MEMORY_SIZE          IMEMSZ         *********           words  
       MEM_UNIT             IMEMU          GB          [  3]    ***   
       MRCC                 IMRCCC         OFF         [  0]    ***   
       MULTIPLICTY          IMULTP              1               ***   
       NACOUPLING           IVCOUP         OFF         [  0]    ***   
       NEGEVAL              IDIE           ABORT       [  0]    ***   
       NEWNORM              INEWNO         OFF         [  0]    ***   
       NON-HF               INONHF         OFF         [  0]    ***   
       NTOP_TAMP            ITOPT2             15               ***   
       NUC_MODEL            INUCMO         POINT       [  0]    ***   
       OCCUPATION           IOCCU   ESTIMATED BY SCF 
       OPEN-SHELL           IOPEN          SPIN-ORBITAL[  0]    ***   
       OPTVIB               IOPTVB         OFF         [  0]    ***   
       ORBITALS             IORBTP         STANDARD    [  0]    ***   
       PARALLEL             IPARAL         ON          [  1]    ***   
       PARA_INT             IPINTS         ON          [  1]    ***   
       PARA_PRINT           IPPRIN              0               ***   
       PERT_ORB             IPTORB         STANDARD    [  0]    ***   
       POINTS               IGRDFD              0               ***   
       PRINT                IPRNT               0               ***   
       PROPS                IPROPS         OFF         [  0]    ***   
       PROP_INTEGR          IINTYP         INTERNAL    [  0]    ***   
       PSI                  IPSI           OFF         [  0]    ***   
       QC_ALG               IQCALG         FLM         [  0]    ***   
       QC_LINALG            IQCLIN         TRIDIAG     [  2]    ***   
       QC_MAXCYC            IQCMAX          10D-100           cycles  
       QC_MAXSCFCY          IQCMSC          10D- 15           cycles  
       QC_RTRUST            IQCRTR          10D-  0           x 10-3  
       QC_SKIPSCF           IQCSKI         OFF         [  0]    ***   
       QC_START             IQCSTA          10D-  1             ***   
       QRHFGUESS            IQGUES         OFF         [  0]    ***   
       QUARTIC              IQUART         OFF         [  0]    ***   
       RAMAN_INT            IRAMIN         OFF         [  0]    ***   
       RAMAN_ORB            IRAMRE         UNRELAXED   [  0]    ***   
       RDO                  IRDOFM         OFF         [  0]    ***   
       REDUCE_REPR          REDREP         Ir          [  0]    ***   
       REFERENCE            IREFNC         RHF         [  0]    ***   
       RELATIVIST           IRELAT         OFF         [  0]    ***   
       RELAX_DENS           IRDENS         OFF         [  0]    ***   
       RESET_FLAGS          IRESET         OFF         [  0]    ***   
       RESTART_CC           ICCRES         OFF         [  0]    ***   
       ROT_EVEC             ROTVEC              0               ***   
       SAVE_INTS            ISVINT         OFF         [  0]    ***   
       SCALE_ON             ISTCRT              0               ***   
       SCF_CONV             ISCFCV          10D-  7             ***   
       SCF_DAMPING          IDAMP               0             x 10-3  
       SCF_EXPORDE          IRPPOR              6               ***   
       SCF_EXPSTAR          IRPPLS              8               ***   
       SCF_EXTRAPO          IRPP           ON          [  1]    ***   
       SCF_MAXCYC           ISCFCY            150              cycles 
       SCF_NOSTOP           ISCFST         OFF         [  0]    ***   
       SCF_PRINT            ISCFPR              0               ***   
       SCF_PROG             ISCFPR         SCF         [  0]    ***   
       SD_FIELD             IFINSD              0             x 10-6  
       SOPERT               IPERSO         OFF         [  0]    ***   
       SPHERICAL            IDFGHI         ON          [  1]    ***   
       SPINORBIT            ISOCAL         OFF         [  0]    ***   
       SPINROTATIO          ISRCON         OFF         [  0]    ***   
       SPIN_FLIP            ISPFLP         OFF         [  0]    ***   
       SPIN_ORBIT           ISPORB         OFF         [  0]    ***   
       SPIN_SCAL            ISCSMP         OFF         [  0]    ***   
       STEEPSCALE           ISTPSC              1000          x 10-3  
       SUBGROUP             ISUBGP         DEFAULT     [  0]    ***   
       SUBGRPAXIS           ISBXYZ         X           [  0]    ***   
       SYMMETRY             ISYM           ON          [  0]    ***   
       SYM_CHECK            ISYMCK         OVERRIDE    [  1]    ***   
       T3_EXTRAPOL          IT3EXT         OFF         [  0]    ***   
       T4_EXTRAPOL          IT4EXP         OFF         [  0]    ***   
       TAMP_SUM             IEVERY              5               ***   
       TESTSUITE            ITESTS         OFF         [  0]    ***   
       THERMOCH             ITHERM         OFF         [  0]    ***   
       TOL_CHOLESK          ITOLCH          10D-  4             ***   
       TRANGRAD             IRESRM         OFF         [  0]    ***   
       TRANS_INV            ITRAIN         USE         [  0]    ***   
       TREAT_PERT           ITREAT         SIMULTANEOUS[  0]    ***   
       TRIP_ALGORI          ITRALG         NORMAL      [  0]    ***   
       UIJ_THRESHO          IUIJTH              1               ***   
       UNITS                IUNITS         ANGSTROM    [  0]    ***   
       UNOS                 IUNOS          OFF         [  0]    ***   
       UPDATE_HESS          IHUPDT         ON          [  1]    ***   
       VIBPHASE             ISETPH         STANDARD    [  0]    ***   
       VIBRATION            IVIB           NO          [  0]    ***   
       VIB_ALGORIT          IGEALG         STANDARD    [  0]    ***   
       VNATORB              IVNORB         OFF         [  0]    ***   
       VTRAN                IVTRAN         FULL/PARTIAL[  0]    ***   
       XFIELD               IXEFLD              0             x 10-6  
       XFORM_TOL            IXFTOL          10D- 11             ***   
       YFIELD               IYEFLD              0             x 10-6  
       ZFIELD               IZEFLD              0             x 10-6  
       ZSCALE_EXP           IZEXPS         OFF         [  0]    ***   
    -------------------------------------------------------------------
  @GETXYZ-I,     7 atoms read from ZMAT.
   Rotational constants (in cm-1): 
          0.4758983732             0.7284168815             0.8536890782
   Rotational constants (in MHz): 
      14267.0763042163         21837.3917951655         25592.9582983935
********************************************************************************
   The full molecular point group is C2v .
   The largest Abelian subgroup of the full molecular point group is C2v .
   The computational point group is C2v .
********************************************************************************


 ----------------------------------------------------------------
         Coordinates used in calculation (QCOMP) 
 ----------------------------------------------------------------
 Z-matrix   Atomic            Coordinates (in bohr)
  Symbol    Number           X              Y              Z
 ----------------------------------------------------------------
     C         6        -1.25572327     0.00000000    -0.29294367
     C         6         1.25572327     0.00000000    -0.29294367
     H         1        -2.19034422     1.81857454    -0.29294367
     H         1         2.19034422     1.81857454    -0.29294367
     H         1        -2.19034422    -1.81857454    -0.29294367
     H         1         2.19034422    -1.81857454    -0.29294367
     H         1         0.00000000     0.00000000     8.14783479
 ----------------------------------------------------------------
 
   Interatomic distance matrix (Angstroms) 
 
                 C             C             H             H             H    
                [ 1]        [ 2]        [ 3]        [ 4]        [ 5]
  C    [ 1]     0.00000
  C    [ 2]     1.32900     0.00000
  H    [ 3]     1.08200     2.06193     0.00000
  H    [ 4]     2.06193     1.08200     2.31816     0.00000
  H    [ 5]     1.08200     2.06193     1.92470     3.01303     0.00000
  H    [ 6]     2.06193     1.08200     3.01303     1.92470     2.31816
  H    [ 7]     4.51583     4.51583     4.71388     4.71388     4.71388
 
                 H             H    
                [ 6]        [ 7]
  H    [ 6]     0.00000
  H    [ 7]     4.71388     0.00000
 rotcon2
   Rotational constants (in cm-1): 
          0.7284168815             0.4758983732             0.8536890782
   Rotational constants (in MHz): 
      21837.3917951655         14267.0763042163         25592.9582983935
  ECPDATA file not present.   Using default ECPDATA. 
  @GTFLGS-W, Keyword #EXCITE not known and is ignored.
  @GTFLGS-W, Keyword #ESTATE_SYM not known and is ignored.
  There are  139 basis functions.
 @GEOPT-W, Archive file not created for single-point calculation.
 @CHECKOUT-I, Total execution time (CPU/WALL):        0.15/       0.18 seconds.
--executable xjoda finished with status     0 in        0.20 seconds (walltime).
 --invoking executable--
/home/tsommerfeld/zscale/bin/xvmol
 SERIAL VERSION OF MOLECULE STARTED
********************************************************************************
                    INPUT FROM MOL FILE
********************************************************************************
INTGRL        1    0    1    0    0    0    0    0    0                         
         *** CFOUR Program System (Release V0.1) ***                            
h_ethylene                                                                      
    3    2 X  Y       0.10E-08              0    0                              
   9999.00      3.00                                                            
          6.00000000    1    4    1    1    1    1                              
C #1  -1.255723272983657   0.000000000000000  -0.292943668054249                
   10    4                                                                      
   8236.00000000000       5.310000000000000E-004  0.000000000000000E+000        
 -1.130000000000000E-004  0.000000000000000E+000                                
   1235.00000000000       4.108000000000000E-003  0.000000000000000E+000        
 -8.780000000000000E-004  0.000000000000000E+000                                
   280.800000000000       2.108700000000000E-002  0.000000000000000E+000        
 -4.540000000000000E-003  0.000000000000000E+000                                
   79.2700000000000       8.185300000000000E-002  0.000000000000000E+000        
 -1.813300000000000E-002  0.000000000000000E+000                                
   25.5900000000000       0.234817000000000       0.000000000000000E+000        
 -5.576000000000000E-002  0.000000000000000E+000                                
   8.99700000000000       0.434401000000000       0.000000000000000E+000        
 -0.126895000000000       0.000000000000000E+000                                
   3.31900000000000       0.346129000000000       0.000000000000000E+000        
 -0.170352000000000       0.000000000000000E+000                                
  0.905900000000000       3.937800000000000E-002   1.00000000000000             
  0.140382000000000       0.000000000000000E+000                                
  0.364300000000000      -8.983000000000000E-003  0.000000000000000E+000        
  0.598684000000000       0.000000000000000E+000                                
  0.128500000000000       2.385000000000000E-003  0.000000000000000E+000        
  0.395389000000000        1.00000000000000                                     
    5    3                                                                      
   18.7100000000000       0.000000000000000E+000  1.403100000000000E-002        
  0.000000000000000E+000                                                        
   4.13300000000000       0.000000000000000E+000  8.686600000000000E-002        
  0.000000000000000E+000                                                        
   1.20000000000000       0.000000000000000E+000  0.290216000000000             
  0.000000000000000E+000                                                        
  0.382700000000000        1.00000000000000       0.501008000000000             
  0.000000000000000E+000                                                        
  0.120900000000000       0.000000000000000E+000  0.343406000000000             
   1.00000000000000                                                             
    2    2                                                                      
   1.09700000000000        1.00000000000000       0.000000000000000E+000        
  0.318000000000000       0.000000000000000E+000   1.00000000000000             
    1    1                                                                      
  0.761000000000000        1.00000000000000                                     
          1.00000000    1    3    1    1    1                                   
H #2  -2.190344215575466   1.818574537711477  -0.292943668054249                
    5    3                                                                      
   33.8700000000000       0.000000000000000E+000  6.068000000000000E-003        
  0.000000000000000E+000                                                        
   5.09500000000000       0.000000000000000E+000  4.530800000000000E-002        
  0.000000000000000E+000                                                        
   1.15900000000000       0.000000000000000E+000  0.202822000000000             
  0.000000000000000E+000                                                        
  0.325800000000000        1.00000000000000       0.503903000000000             
  0.000000000000000E+000                                                        
  0.102700000000000       0.000000000000000E+000  0.383421000000000             
   1.00000000000000                                                             
    2    2                                                                      
   1.40700000000000        1.00000000000000       0.000000000000000E+000        
  0.388000000000000       0.000000000000000E+000   1.00000000000000             
    1    1                                                                      
   1.05700000000000        1.00000000000000                                     
          1.00000000    1    3    1    1    1                                   
H #3   0.000000000000000   0.000000000000000   8.147834790927947                
    6    4                                                                      
   33.8700000000000       0.000000000000000E+000  6.068000000000000E-003        
  0.000000000000000E+000  0.000000000000000E+000                                
   5.09500000000000       0.000000000000000E+000  4.530800000000000E-002        
  0.000000000000000E+000  0.000000000000000E+000                                
   1.15900000000000       0.000000000000000E+000  0.202822000000000             
  0.000000000000000E+000  0.000000000000000E+000                                
  0.325800000000000        1.00000000000000       0.503903000000000             
  0.000000000000000E+000  0.000000000000000E+000                                
  0.102700000000000       0.000000000000000E+000  0.383421000000000             
   1.00000000000000       0.000000000000000E+000                                
  2.526000000000000E-002  0.000000000000000E+000  0.000000000000000E+000        
  0.000000000000000E+000   1.00000000000000                                     
    3    3                                                                      
   1.40700000000000        1.00000000000000       0.000000000000000E+000        
  0.000000000000000E+000                                                        
  0.388000000000000       0.000000000000000E+000   1.00000000000000             
  0.000000000000000E+000                                                        
  0.102000000000000       0.000000000000000E+000  0.000000000000000E+000        
   1.00000000000000                                                             
    2    2                                                                      
   1.05700000000000        1.00000000000000       0.000000000000000E+000        
  0.247000000000000       0.000000000000000E+000   1.00000000000000             
FINISH                                                                          
 
********************************************************************************
 ONE- AND TWO-ELECTRON INTEGRALS OVER SYMMETRY-ADAPTED AOS ARE CALCULATED.

  SPHERICAL HARMONICS ARE USED.
  
  INTEGRALS LESS THAN  0.10E-13 ARE NEGLECTED.

  NUCLEAR REPULSION ENERGY :   35.4444466006 A.U.
  @MOLECU-I, ONE ELECTRON INTEGRALS (CPU/WALL):        0.04/       0.04 SECONDS.
  @TWOEL-I,     695583 INTEGRALS OF SYMMETRY TYPE  I I I I
  @TWOEL-I,    3004901 INTEGRALS OF SYMMETRY TYPE  I J I J
  @TWOEL-I,    1619800 INTEGRALS OF SYMMETRY TYPE  I I J J
  @TWOEL-I,    2589535 INTEGRALS OF SYMMETRY TYPE  I J K L
  @TWOEL-I, TOTAL NUMBER OF 2-E INTEGRALS    7909819.
  @MOLECU-I, TWO ELECTRON INTEGRALS (CPU/WALL):       43.12/       4.70 SECONDS.
 @CHECKOUT-I, Total execution time (CPU/WALL):       43.18/       4.76 seconds.

Running with 12 threads/proc

--executable xvmol finished with status     0 in        4.79 seconds (walltime).
 --invoking executable--
/home/tsommerfeld/zscale/bin/xvmol2ja
 @GETMEM-I,  Allocated   85830 MB of main memory.
 @CHECKOUT-I, Total execution time (CPU/WALL):        0.11/       0.02 seconds.
--executable xvmol2ja finished with status     0 in        0.05 seconds (walltime).
 --invoking executable--
/home/tsommerfeld/zscale/bin/xvscf
  There are  139 functions in the AO basis.

  There are 4 irreducible representations.

       Irrep        # of functions
         1                 45
         2                 39
         3                 29
         4                 26


  Parameters for SCF calculation: 
        SCF reference function:  RHF  
  Maximum number of iterations:  150
     Full symmetry point group: C2v 
     Computational point group: C2v 
        Initial density matrix: MOREAD                 
     SCF convergence tolerance: 10**(- 7)
  DIIS convergence acceleration:  ON
          Latest start for DIIS:   8
                     DIIS order:   6

  Memory information:     823082 words required.
  Fock matrices are constructed from AO integral file.
 @GETMEM-I,  Allocated       6 MB of main memory.
  Initialization and symmetry analysis required      0.002 seconds.

  @INITGES-I, Occupancies from core Hamiltonian:

          Alpha population by irrep:   4    3    1    1
           Beta population by irrep:   4    3    1    1


 total no. of electrons in initial guess :  0.000000000000000E+000
  --------------------------------------------------------------------
  Iteration         Total Energy            Largest Density Difference
  --------------------------------------------------------------------
       0            35.444446600576853              0.0000000000D+00
   current occupation vector 
     4  3  1  1
     4  3  1  1
       1           -51.824165177453210              0.8750614231D+01
   current occupation vector 
     4  3  1  1
     4  3  1  1
       2           -47.122108302055537              0.2969585356D+02
   current occupation vector 
     5  3  1  0
     5  3  1  0
       3           -68.241833961543293              0.2944030036D+02
   current occupation vector 
     4  3  1  1
     4  3  1  1
       4           -55.239335663107411              0.1254797019D+02
   current occupation vector 
     5  3  1  0
     5  3  1  0
       5           -69.345185505812822              0.1251112909D+02
   current occupation vector 
     4  3  1  1
     4  3  1  1
       6           -56.138159643174134              0.8317484671D+01
   current occupation vector 
     5  3  1  0
     5  3  1  0
       7           -69.645572744217773              0.8331020401D+01
   current occupation vector 
     4  3  1  1
     4  3  1  1
       8           -56.362229160608791              0.7293572431D+01
   current occupation vector 
     5  3  1  0
     5  3  1  0
       9           -75.608499194451056              0.7434925050D+01
   current occupation vector 
     4  3  1  1
     4  3  1  1
      10           -77.479852363580136              0.9151994543D+00
   current occupation vector 
     4  3  1  1
     4  3  1  1
      11           -78.325728004262047              0.1853145425D+01
   current occupation vector 
     5  2  1  1
     5  2  1  1
      12           -78.455768316410698              0.5221129014D+00
   current occupation vector 
     5  2  1  1
     5  2  1  1
      13           -78.534852730057580              0.3727280327D+00
   current occupation vector 
     5  2  1  1
     5  2  1  1
      14           -78.543984689007743              0.1351569890D+00
   current occupation vector 
     5  2  1  1
     5  2  1  1
      15           -78.544112091787952              0.2629173903D-01
   current occupation vector 
     5  2  1  1
     5  2  1  1
      16           -78.544117861577703              0.5389992155D-02
   current occupation vector 
     5  2  1  1
     5  2  1  1
      17           -78.544117936151252              0.5558849300D-03
   current occupation vector 
     5  2  1  1
     5  2  1  1
      18           -78.544117940445332              0.1376786484D-03
   current occupation vector 
     5  2  1  1
     5  2  1  1
      19           -78.544117940652470              0.2315926542D-04
   current occupation vector 
     5  2  1  1
     5  2  1  1
      20           -78.544117940663952              0.2682773721D-05
   current occupation vector 
     5  2  1  1
     5  2  1  1
      21           -78.544117940665572              0.1464039920D-05
   current occupation vector 
     5  2  1  1
     5  2  1  1
      22           -78.544117940664833              0.1734651180D-06
   current occupation vector 
     5  2  1  1
     5  2  1  1

  SCF has converged.

 Density matrix saved to file den.dat
 total electron number:   18.0000000000000     
     E(SCF)=       -78.544117940664620              0.3508592231D-07


  Final occupancies:

     Alpha population by irrep:   5    2    1    1
      Beta population by irrep:   5    2    1    1


  Eigenvector printing suppressed.

 @PUTMOS-I, Writing converged MOs to NEWMOS. 
 @PUTMOS-I, Symmetry   1 Full Blocks 11 Partial Blocksize   1
 @PUTMOS-I, Symmetry   2 Full Blocks  9 Partial Blocksize   3
 @PUTMOS-I, Symmetry   3 Full Blocks  7 Partial Blocksize   1
 @PUTMOS-I, Symmetry   4 Full Blocks  6 Partial Blocksize   2
 @PUTFOCK-I, Writing converged Fock matrix to NEWFOCK. 
 @PUTFOCK-I, Symmetry   1 Full Blocks 11 Partial Blocksize   1
 @PUTFOCK-I, Symmetry   2 Full Blocks  9 Partial Blocksize   3
 @PUTFOCK-I, Symmetry   3 Full Blocks  7 Partial Blocksize   1
 @PUTFOCK-I, Symmetry   4 Full Blocks  6 Partial Blocksize   2


 
  ORBITAL EIGENVALUES (ALPHA)  (1H = 27.2113834 eV)

       MO #        E(hartree)               E(eV)           FULLSYM    COMPSYM
       ----   --------------------   --------------------   -------   ---------
    1     1         -11.1139476537        -302.4258906914      A1        A1 (1)
    2    46         -11.1121833412        -302.3778813096      B1        B1 (2)
    3     2          -0.9248408674         -25.1661994270      A1        A1 (1)
    4    47          -0.6682183625         -18.1831460572      B1        B1 (2)
    5    85          -0.5472300853         -14.8908876599      B2        B2 (3)
    6     3          -0.4544810443         -12.3670579435      A1        A1 (1)
    7   114          -0.4035467586         -10.9810655668      A2        A2 (4)
    8     4          -0.2621146880          -7.1325032698      A1        A1 (1)
    9     5          -0.0433001715          -1.1782575676      A1        A1 (1)
  +++++++++++++++++++++++++++++++++++++++++++++++++++++++++++++++++++++++++++++
   10     6           0.2405187742           6.5448485809      A1        A1 (1)
   11    48           0.2681479291           7.2966761056      B1        B1 (2)
   12     7           0.2758059893           7.5050625181      A1        A1 (1)
   13    86           0.2886489363           7.8545368725      B2        B2 (3)
   14    49           0.2959247146           8.0525208665      B1        B1 (2)
   15   115           0.3409989049           9.2790519411      A2        A2 (4)
   16     8           0.4359134101          11.8618069307      A1        A1 (1)
   17    50           0.4502419845          12.2517072634      B1        B1 (2)
   18    87           0.4506288953          12.2622356403      B2        B2 (3)
   19    51           0.4615195220          12.5585846598      B1        B1 (2)
   20     9           0.4723388772          12.8529942823      A1        A1 (1)
   21    10           0.5670520736          15.4302713831      A1        A1 (1)
   22    88           0.5845516667          15.9064595207      B2        B2 (3)
   23    11           0.6481654523          17.6374786278      A1        A1 (1)
   24    52           0.6755487760          18.3826167489      B1        B1 (2)
   25    89           0.7054140220          19.1952914093      B2        B2 (3)
   26    53           0.7140395276          19.4300033490      B1        B1 (2)
   27    12           0.7325373484          19.9333546431      A1        A1 (1)
   28    54           0.7499644511          20.4075702162      B1        B1 (2)
   29    90           0.7812408360          21.2586439167      B2        B2 (3)
   30    13           0.7946153360          21.6225825628      A1        A1 (1)
   31   116           0.8024863763          21.8367644598      A2        A2 (4)
   32    55           0.8954101626          24.3653492337      B1        B1 (2)
   33   117           0.9401851777          25.5837393378      A2        A2 (4)
   34    14           1.0115119144          27.5246385151      A1        A1 (1)
   35   118           1.0163800362          27.6571068457      A2        A2 (4)
   36    15           1.0966794176          29.8421640988      A1        A1 (1)
   37    91           1.1005896206          29.9485661311      B2        B2 (3)
   38   119           1.1043888145          30.0519474545      A2        A2 (4)
   39    16           1.1047178305          30.0609004352      A1        A1 (1)
   40    56           1.1059177327          30.0935514333      B1        B1 (2)
   41    17           1.1125881611          30.2750630186      A1        A1 (1)
   42   120           1.1306456494          30.7664322544      A2        A2 (4)
   43    92           1.1537897340          31.3962148141      B2        B2 (3)
   44    57           1.2944279726          35.2231758472      B1        B1 (2)
   45    18           1.2945288314          35.2259203534      A1        A1 (1)
   46    19           1.3386957336          36.4277628639      A1        A1 (1)
   47    93           1.3422665264          36.5249290736      B2        B2 (3)
   48    58           1.3473734941          36.6638967315      B1        B1 (2)
   49    94           1.3671305500          37.2015135551      B2        B2 (3)
   50    20           1.3873676119          37.7521920050      A1        A1 (1)
   51    59           1.4331246106          38.9973032387      B1        B1 (2)
   52    95           1.4562084866          39.6254474402      B2        B2 (3)
   53    60           1.4802437317          40.2794797079      B1        B1 (2)
   54    96           1.5732480073          42.8102547110      B2        B2 (3)
   55    61           1.5882822498          43.2193572474      B1        B1 (2)
   56    21           1.6247884932          44.2127426331      A1        A1 (1)
   57    62           1.6520982748          44.9558795714      B1        B1 (2)
   58   121           1.7061302389          46.4261640619      A2        A2 (4)
   59   122           1.7490505105          47.5940840282      A2        A2 (4)
   60    63           1.9124859367          52.0413880708      B1        B1 (2)
   61    22           1.9641475436          53.4471718625      A1        A1 (1)
   62   123           2.0810629978          56.6286031124      A2        A2 (4)
   63    23           2.4174303919          65.7816252376      A1        A1 (1)
   64    24           2.5044136742          68.1485606816      A1        A1 (1)
   65    25           2.6617259064          72.4292441446      A1        A1 (1)
   66    64           2.6792113580          72.9050474716      B1        B1 (2)
   67    97           2.7378415088          74.5004549847      B2        B2 (3)
   68    98           2.8218439812          76.7862784686      B2        B2 (3)
   69    65           2.8539198248          77.6591065456      B1        B1 (2)
   70    26           2.8748220350          78.2278846014      A1        A1 (1)
   71   124           2.9541309303          80.3859893575      A2        A2 (4)
   72    27           2.9886175599          81.3244182595      A1        A1 (1)
   73    99           3.0283164430          82.4046797869      B2        B2 (3)
   74   125           3.1767155644          86.4428251752      A2        A2 (4)
   75    28           3.2130198289          87.4307144355      A1        A1 (1)
   76   100           3.2209097827          87.6454109934      B2        B2 (3)
   77    29           3.2247184513          87.7490501356      A1        A1 (1)
   78   101           3.2333577077          87.9841362536      B2        B2 (3)
   79   126           3.2655982077          88.8614448599      A2        A2 (4)
   80    30           3.2929427278          89.6055270808      A1        A1 (1)
   81    66           3.3436562461          90.9855120697      B1        B1 (2)
   82    67           3.3774541302          91.9051992537      B1        B1 (2)
   83   102           3.4497372374          93.8721225972      B2        B2 (3)
   84    68           3.5154105020          95.6591829778      B1        B1 (2)
   85    69           3.5393487540          96.3105759318      B1        B1 (2)
   86   127           3.5395903914          96.3171512185      A2        A2 (4)
   87   128           3.5587598748          96.8387793809      A2        A2 (4)
   88    70           3.5667160462          97.0552778125      B1        B1 (2)
   89    31           3.6643649001          99.7124382140      A1        A1 (1)
   90    32           3.6907119297         100.4293773391      A1        A1 (1)
   91   103           3.7533247806         102.1331596294      B2        B2 (3)
   92   104           3.8336615812         104.3192351127      B2        B2 (3)
   93   129           3.9276327593         106.8763208668      A2        A2 (4)
   94    71           3.9891760309         108.5509984270      B1        B1 (2)
   95   130           4.0234759847         109.4843476195      A2        A2 (4)
   96    72           4.0801706090         111.0270867800      B1        B1 (2)
   97   131           4.0888805836         111.2640972361      A2        A2 (4)
   98    33           4.1191543691         112.0878888220      A1        A1 (1)
   99   105           4.1232096163         112.1982377080      B2        B2 (3)
  100    34           4.1694576883         113.4567117277      A1        A1 (1)
  101    35           4.2195695511         114.8203248370      A1        A1 (1)
  102   132           4.2196514928         114.8225545846      A2        A2 (4)
  103   106           4.2201291444         114.8355521468      B2        B2 (3)
  104    73           4.2229192116         114.9114737352      B1        B1 (2)
  105    36           4.2266934667         115.0141764371      A1        A1 (1)
  106    74           4.2959521603         116.8988013010      B1        B1 (2)
  107   133           4.3028929088         117.0876686703      A2        A2 (4)
  108    37           4.3083045073         117.2349257515      A1        A1 (1)
  109   107           4.3136881942         117.3814233203      B2        B2 (3)
  110    38           4.4378896488         120.7611167217      A1        A1 (1)
  111    75           4.4481902418         121.0414101056      B1        B1 (2)
  112   108           4.4487228336         121.0559026641      B2        B2 (3)
  113    76           4.4660431674         121.5272129089      B1        B1 (2)
  114    39           4.4767786041         121.8193389932      A1        A1 (1)
  115   109           4.5808257943         124.6506069770      B2        B2 (3)
  116    77           4.6167257517         125.6274944823      B1        B1 (2)
  117   134           4.7185499394         128.3982714944      A2        A2 (4)
  118    40           4.7546944781         129.3818143921      A1        A1 (1)
  119    78           4.8710395488         132.5477247188      B1        B1 (2)
  120    79           4.9274666163         134.0831832859      B1        B1 (2)
  121    41           5.0407612501         137.1660870046      A1        A1 (1)
  122    42           5.0878367837         138.4470773970      A1        A1 (1)
  123   135           5.1392224261         139.8453518133      A2        A2 (4)
  124   110           5.2388316347         142.5558561799      B2        B2 (3)
  125   111           5.3290659938         145.0112579204      B2        B2 (3)
  126    43           5.4124552480         147.2803948887      A1        A1 (1)
  127    80           5.4159384362         147.3751772590      B1        B1 (2)
  128   136           5.5391037038         150.7266745767      A2        A2 (4)
  129   137           5.5538478933         151.1278843709      A2        A2 (4)
  130    81           5.6500717946         153.7462698396      B1        B1 (2)
  131    44           5.6773072103         154.4873831783      A1        A1 (1)
  132   112           5.7303359846         155.9303694883      B2        B2 (3)
  133    82           6.0695635861         165.1612218125      B1        B1 (2)
  134   138           6.2043489219         168.8289172610      A2        A2 (4)
  135   113           6.3824786038         173.6760723297      B2        B2 (3)
  136    83           6.6221827517         180.1987538020      B1        B1 (2)
  137   139           6.9853308316         190.0805154343      A2        A2 (4)
  138    45          12.0617369396         328.2165483329      A1        A1 (1)
  139    84          14.8675959798         404.5678544415      B1        B1 (2)


  VSCF finished.

 @CHECKOUT-I, Total execution time (CPU/WALL):       21.02/       1.77 seconds.
--executable xvscf finished with status     0 in        1.79 seconds (walltime).
 --invoking executable--
/home/tsommerfeld/zscale/bin/xvtran
 @GETMEM-I,  Allocated   85830 MB of main memory.
  Full RHF integral transformation
  Transformation of IIII integrals :
  1 pass through the AO integral file was required.
      695583 AO integrals were read.
      997326 MO integrals were written to HF2.
  Transformation of IIJJ integrals :
  1 pass through the AO integral file was required.
     1619800 AO integrals were read.
     2386575 MO integrals were written to HF2.
  Transformation of IJIJ integrals :
  1 pass through the AO integral file was required.
     3004901 AO integrals were read.
     4517476 MO integrals were written to HF2.
  Transformation of IJKL integrals :
  1 pass through the AO integral file was required.
     2589535 AO integrals were read.
     3969810 MO integrals were written to HF2.
  Summary of active molecular orbitals: 
------------------------------------------------------------------------
 
  Index      Eigenvalue    Symmetry    Index      Eigenvalue    Symmetry
------------------------------------------------------------------------
     1       -11.1139477        1        71         3.5393488        2
     2        -0.9248409        1        72         3.5667160        2
     3        -0.4544810        1        73         3.9891760        2
     4        -0.2621147        1        74         4.0801706        2
     5        -0.0433002        1        75         4.2229192        2
     6       -11.1121833        2        76         4.2959522        2
     7        -0.6682184        2        77         4.4481902        2
     8        -0.5472301        3        78         4.4660432        2
     9        -0.4035468        4        79         4.6167258        2
    10         0.2405188        1        80         4.8710395        2
    11         0.2758060        1        81         4.9274666        2
    12         0.4359134        1        82         5.4159384        2
    13         0.4723389        1        83         5.6500718        2
    14         0.5670521        1        84         6.0695636        2
    15         0.6481655        1        85         6.6221828        2
    16         0.7325373        1        86        14.8675960        2
    17         0.7946153        1        87         0.2886489        3
    18         1.0115119        1        88         0.4506289        3
    19         1.0966794        1        89         0.5845517        3
    20         1.1047178        1        90         0.7054140        3
    21         1.1125882        1        91         0.7812408        3
    22         1.2945288        1        92         1.1005896        3
    23         1.3386957        1        93         1.1537897        3
    24         1.3873676        1        94         1.3422665        3
    25         1.6247885        1        95         1.3671306        3
    26         1.9641475        1        96         1.4562085        3
    27         2.4174304        1        97         1.5732480        3
    28         2.5044137        1        98         2.7378415        3
    29         2.6617259        1        99         2.8218440        3
    30         2.8748220        1       100         3.0283164        3
    31         2.9886176        1       101         3.2209098        3
    32         3.2130198        1       102         3.2333577        3
    33         3.2247185        1       103         3.4497372        3
    34         3.2929427        1       104         3.7533248        3
    35         3.6643649        1       105         3.8336616        3
    36         3.6907119        1       106         4.1232096        3
    37         4.1191544        1       107         4.2201291        3
    38         4.1694577        1       108         4.3136882        3
    39         4.2195696        1       109         4.4487228        3
    40         4.2266935        1       110         4.5808258        3
    41         4.3083045        1       111         5.2388316        3
    42         4.4378896        1       112         5.3290660        3
    43         4.4767786        1       113         5.7303360        3
    44         4.7546945        1       114         6.3824786        3
    45         5.0407613        1       115         0.3409989        4
    46         5.0878368        1       116         0.8024864        4
    47         5.4124552        1       117         0.9401852        4
    48         5.6773072        1       118         1.0163800        4
    49        12.0617369        1       119         1.1043888        4
    50         0.2681479        2       120         1.1306456        4
    51         0.2959247        2       121         1.7061302        4
    52         0.4502420        2       122         1.7490505        4
    53         0.4615195        2       123         2.0810630        4
    54         0.6755488        2       124         2.9541309        4
    55         0.7140395        2       125         3.1767156        4
    56         0.7499645        2       126         3.2655982        4
    57         0.8954102        2       127         3.5395904        4
    58         1.1059177        2       128         3.5587599        4
    59         1.2944280        2       129         3.9276328        4
    60         1.3473735        2       130         4.0234760        4
    61         1.4331246        2       131         4.0888806        4
    62         1.4802437        2       132         4.2196515        4
    63         1.5882822        2       133         4.3028929        4
    64         1.6520983        2       134         4.7185499        4
    65         1.9124859        2       135         5.1392224        4
    66         2.6792114        2       136         5.5391037        4
    67         2.8539198        2       137         5.5538479        4
    68         3.3436562        2       138         6.2043489        4
    69         3.3774541        2       139         6.9853308        4
    70         3.5154105        2
------------------------------------------------------------------------
  -11.1139476536658      -0.924840867405628      -0.454481044264619     
 -0.262114687993190      -4.330017148595847E-002  -11.1121833412393     
 -0.668218362511700      -0.547230085330010      -0.403546758553973     
  0.240518774246946       0.275805989273243       0.435913410072837     
  0.472338877204810       0.567052073620988       0.648165452250520     
  0.732537348437041       0.794615335977256        1.01151191435315     
   1.09667941758550        1.10471783052304        1.11258816112380     
   1.29452883139489        1.33869573363535        1.38736761193167     
   1.62478849322533        1.96414754357985        2.41743039192831     
   2.50441367422850        2.66172590639281        2.87482203500844     
   2.98861755994059        3.21301982888040        3.22471845130899     
   3.29294272781425        3.66436490009534        3.69071192974042     
   4.11915436912226        4.16945768834582        4.21956955106443     
   4.22669346671652        4.30830450727721        4.43788964884849     
   4.47677860410258        4.75469447805087        5.04076125011076     
   5.08783678366662        5.41245524800008        5.67730721027049     
   12.0617369395808       0.268147929061785       0.295924714599518     
  0.450241984515468       0.461519522004160       0.675548775990333     
  0.714039527626347       0.749964451134433       0.895410162559463     
   1.10591773269925        1.29442797263979        1.34737349412097     
   1.43312461058798        1.48024373167019        1.58828224982514     
   1.65209827484914        1.91248593670509        2.67921135797713     
   2.85391982480389        3.34365624607142        3.37745413023525     
   3.51541050198233        3.53934875401498        3.56671604621592     
   3.98917603090492        4.08017060904119        4.22291921164060     
   4.29595216026422        4.44819024179305        4.46604316739194     
   4.61672575170402        4.87103954879415        4.92746661626646     
   5.41593843622864        5.65007179457220        6.06956358611535     
   6.62218275172306        14.8675959797593       0.288648936256572     
  0.450628895269558       0.584551666737170       0.705414022035066     
  0.781240836022544        1.10058962056092        1.15378973397124     
   1.34226652635247        1.36713055004435        1.45620848663558     
   1.57324800734056        2.73784150881300        2.82184398124535     
   3.02831644299686        3.22090978268137        3.23335770770050     
   3.44973723743736        3.75332478059197        3.83366158123041     
   4.12320961631019        4.22012914443847        4.31368819419597     
   4.44872283355147        4.58082579428821        5.23883163470196     
   5.32906599377197        5.73033598461883        6.38247860377772     
  0.340998904934293       0.802486376338026       0.940185177713191     
   1.01638003622121        1.10438881451893        1.13064564936611     
   1.70613023893046        1.74905051053854        2.08106299779109     
   2.95413093027471        3.17671556438240        3.26559820769256     
   3.53959039137027        3.55875987476817        3.92763275926594     
   4.02347598466690        4.08888058356296        4.21965149278533     
   4.30289290879182        4.71854993944894        5.13922242605815     
   5.53910370380788        5.55384789333729        6.20434892189437     
   6.98533083159148     
 @CHECKOUT-I, Total execution time (CPU/WALL):       17.56/       2.38 seconds.
--executable xvtran finished with status     0 in        2.40 seconds (walltime).
 --invoking executable--
/home/tsommerfeld/zscale/bin/xintprc
 @GETMEM-I,  Allocated   85830 MB of main memory.
  @GMOIAA-I, Processing MO integrals for spin case AA.
  @GMOIAA-I, Generation of integral list completed.
                      TYPE                NUMBER
                      ----               --------
                      PPPP               9084376
                      PPPH               2501601
                      PPHH                173538
                      PHPH                 97627
                      PHHH                 13713
                      HHHH                   332

                     TOTAL              11871187

  @FORMT2-I, Second-order MP correlation energies:
            ------------------------------------------------
            E(SCF)                  =    -78.544117940665 a.u.
            E2(AA)                  =     -0.038119416908 a.u.
            E2(AB)                  =     -0.319885961643 a.u.
            E2(TOT)                 =     -0.396124795460 a.u.
            Total MP2 energy        =    -78.940242736125 a.u.
            ------------------------------------------------
   Largest T2 amplitudes for spin case AB:
       _       _                 _       _                 _       _
   i   j   a   b             i   j   a   b             i   j   a   b
-----------------------------------------------------------------------------
[  4   4  50  50]-0.08145 [  5   5  10  10]-0.06331 [  5   5  17  17]-0.04302
[  5   5  88  88]-0.04071 [  5   5  52  52]-0.03937 [  5   5  17  10] 0.03545
[  5   5  10  17] 0.03545 [  4   4  54  50]-0.03363 [  4   4  50  54]-0.03363
[  5   5  12  12]-0.03323 [  5   5  11  10] 0.03255 [  5   5  10  11] 0.03255
[  4   4  14  14]-0.02924 [  4   3  50  57] 0.02629 [  3   4  57  50] 0.02629
-----------------------------------------------------------------------------
   Norm of T2AB vector (   345906 symmetry allowed elements):  0.3324894434.
-----------------------------------------------------------------------------
 @CHECKOUT-I, Total execution time (CPU/WALL):        5.64/       2.77 seconds.
--executable xintprc finished with status     0 in        2.80 seconds (walltime).
  calling xvcc 
 --invoking executable--
/home/tsommerfeld/zscale/bin/xvcc
 @GETMEM-I,  Allocated   85830 MB of main memory.
   CCSD(T) energy will be calculated.
   The total correlation energy is -0.396124795460 a.u.
   The total correlation energy is -0.415837333463 a.u.
  Convergence information after     1 iterations: 
  Largest element of residual vector : -0.21167446E-01.
  Largest element of DIIS residual   : -0.21167446E-01.
   The total correlation energy is -0.426991620304 a.u.
  Convergence information after     2 iterations: 
  Largest element of residual vector : -0.10765289E-01.
  Largest element of DIIS residual   : -0.10530697E-01.
   The total correlation energy is -0.429860043825 a.u.
  Convergence information after     3 iterations: 
  Largest element of residual vector :  0.54954590E-02.
  Largest element of DIIS residual   :  0.55458452E-02.
   The total correlation energy is -0.431473807372 a.u.
  Convergence information after     4 iterations: 
  Largest element of residual vector :  0.31693979E-02.
  Largest element of DIIS residual   : -0.19444080E-02.
   The total correlation energy is -0.431643063896 a.u.
  Convergence information after     5 iterations: 
  Largest element of residual vector :  0.11563084E-02.
  Largest element of DIIS residual   :  0.56091319E-03.
   The total correlation energy is -0.431648894417 a.u.
  Convergence information after     6 iterations: 
  Largest element of residual vector : -0.33756583E-03.
  Largest element of DIIS residual   :  0.26128000E-03.
   The total correlation energy is -0.431643370098 a.u.
  Convergence information after     7 iterations: 
  Largest element of residual vector :  0.14779483E-03.
  Largest element of DIIS residual   :  0.83201538E-04.
   The total correlation energy is -0.431635294630 a.u.
  Convergence information after     8 iterations: 
  Largest element of residual vector :  0.51255205E-04.
  Largest element of DIIS residual   :  0.31038002E-04.
   The total correlation energy is -0.431635207043 a.u.
  Convergence information after     9 iterations: 
  Largest element of residual vector : -0.19467818E-04.
  Largest element of DIIS residual   : -0.15410847E-04.
   The total correlation energy is -0.431635836641 a.u.
  Convergence information after    10 iterations: 
  Largest element of residual vector :  0.74459937E-05.
  Largest element of DIIS residual   : -0.80734299E-05.
   The total correlation energy is -0.431636710393 a.u.
  Convergence information after    11 iterations: 
  Largest element of residual vector :  0.54900115E-05.
  Largest element of DIIS residual   :  0.54525687E-05.
   The total correlation energy is -0.431637251936 a.u.
  Convergence information after    12 iterations: 
  Largest element of residual vector :  0.29896097E-05.
  Largest element of DIIS residual   : -0.24500749E-05.
   The total correlation energy is -0.431637598093 a.u.
  Convergence information after    13 iterations: 
  Largest element of residual vector :  0.18931929E-05.
  Largest element of DIIS residual   :  0.10703839E-05.
   The total correlation energy is -0.431637714060 a.u.
  Convergence information after    14 iterations: 
  Largest element of residual vector :  0.58227814E-06.
  Largest element of DIIS residual   : -0.45647669E-06.
   The total correlation energy is -0.431637704624 a.u.
  Convergence information after    15 iterations: 
  Largest element of residual vector :  0.30736937E-06.
  Largest element of DIIS residual   :  0.17556203E-06.
   The total correlation energy is -0.431637691502 a.u.
  Convergence information after    16 iterations: 
  Largest element of residual vector :  0.99064774E-07.
  Largest element of DIIS residual   :  0.53017787E-07.
  Amplitude equations converged in    16iterations.
   The total correlation energy is -0.431637682125 a.u.
   The CC iterations have converged.

   Largest T1 amplitudes for spin case AA:
   i       a                 i       a                 i       a    
-----------------------------------------------------------------------------
[  5      10    ] 0.02860 [  4      14    ] 0.01846 [  5      17    ] 0.01484
[  4      18    ]-0.01447 [  4      15    ]-0.01080 [  4      22    ]-0.00932
[  4      28    ]-0.00887 [  4      12    ] 0.00866 [  8      89    ]-0.00799
[  5      11    ]-0.00655 [  8      90    ] 0.00620 [  4      21    ]-0.00548
[  3      13    ] 0.00519 [  5      31    ] 0.00484 [  4      13    ]-0.00466
-----------------------------------------------------------------------------
   Norm of T1AA vector (      327 symmetry allowed elements):  0.0500523074.
-----------------------------------------------------------------------------
   Largest T2 amplitudes for spin case AB:
       _       _                 _       _                 _       _
   i   j   a   b             i   j   a   b             i   j   a   b
-----------------------------------------------------------------------------
[  5   5  10  10]-0.11524 [  4   4  50  50]-0.11437 [  5   5  17  10] 0.07080
[  5   5  10  17] 0.07080 [  5   5  11  10] 0.05912 [  5   5  10  11] 0.05912
[  5   5  17  17]-0.05776 [  5   5  88  88]-0.05387 [  5   5  52  52]-0.05201
[  4   4  54  50]-0.04675 [  4   4  50  54]-0.04675 [  5   5  12  12]-0.04355
[  5   5  17  11]-0.03689 [  5   5  11  17]-0.03689 [  5   5  11  11]-0.03179
-----------------------------------------------------------------------------
   Norm of T2AB vector (   345906 symmetry allowed elements):  0.4168678285.
-----------------------------------------------------------------------------
       Summary of iterative solution of CC equations 
      -----------------------------------------------------------
                       Correlation           Total
       Iteration         Energy              Energy
      -----------------------------------------------------------
            0        -0.396124795460     -78.940242736125  DIIS 
            1        -0.415837333463     -78.959955274128  DIIS 
            2        -0.426991620304     -78.971109560969  DIIS 
            3        -0.429860043825     -78.973977984489  DIIS 
            4        -0.431473807372     -78.975591748036  DIIS 
            5        -0.431643063896     -78.975761004561  DIIS 
            6        -0.431648894417     -78.975766835082  DIIS 
            7        -0.431643370098     -78.975761310763  DIIS 
            8        -0.431635294630     -78.975753235295  DIIS 
            9        -0.431635207043     -78.975753147708  DIIS 
           10        -0.431635836641     -78.975753777306  DIIS 
           11        -0.431636710393     -78.975754651057  DIIS 
           12        -0.431637251936     -78.975755192601  DIIS 
           13        -0.431637598093     -78.975755538758  DIIS 
           14        -0.431637714060     -78.975755654724  DIIS 
           15        -0.431637704624     -78.975755645288  DIIS 
           16        -0.431637682125     -78.975755622790  DIIS 
      -----------------------------------------------------------
      A miracle has come to pass. The CC iterations have converged.
        E(CCSD)           =     -78.975755622790
        E(CCSD + T(CCSD)) =     -78.991790690409
        E(CCSD(T))        =     -78.991360705664
 @CHECKOUT-I, Total execution time (CPU/WALL):      201.73/      16.85 seconds.
--executable xvcc finished with status     0 in       16.88 seconds (walltime).
  The final electronic energy is       -78.991360705664150 a.u. 
  This computation required                           28.91 seconds (walltime).
