CFour on node01
 --invoking executable--
/home/tsommerfeld/zscale/bin/xjoda


   *************************************************************************
         <<<     CCCCCC     CCCCCC   |||     CCCCCC     CCCCCC   >>>
       <<<      CCC        CCC       |||    CCC        CCC         >>>
      <<<      CCC        CCC        |||   CCC        CCC            >>>
    <<<        CCC        CCC        |||   CCC        CCC              >>>
      <<<      CCC        CCC        |||   CCC        CCC            >>>
       <<<      CCC        CCC       |||    CCC        CCC         >>>
         <<<     CCCCCC     CCCCCC   |||     CCCCCC     CCCCCC   >>>
   *************************************************************************

     ****************************************************************
     * CFOUR Coupled-Cluster techniques for Computational Chemistry *
     ****************************************************************
 

   Department of Chemistry                Institut fuer Physikalische Chemie
   University of Florida                  Universitaet Mainz
   Gainesville, FL 32611, USA             D-55099 Mainz, Germany

   Department of Chemistry                Department of Chemistry
   Johns Hopkins University               Southern Methodist University
   Baltimore, MD 21218, USA               Dallas, TX 75275, USA

   Institute of Nanotechnology            Department of Physical Chemistry
   Karlsruhe Inst. of Technology          Eotvos Lorand University
   D-76021 Karlsruhe, Germany             H-1053 Budapest, Hungary

 
                       Version 2.1
 
                     node01                                            
                     Tue May  3 11:30:16 CDT 2022                      
                     integer*8 version is running
 
********************************************************************************
*                          Input from ZMAT file                                *
********************************************************************************
h_ethylene                                                                      
C       0.000000      0.0   -0.664500                                           
C       0.000000      0.0    0.664500                                           
H       0.962348      0.0   -1.159080                                           
H       0.962348      0.0    1.159080                                           
H      -0.962348      0.0   -1.159080                                           
H      -0.962348      0.0    1.159080                                           
H      0.000000      7.8      0.000000                                          
                                                                                
*CFOUR(CALC=CCSD(T)                                                             
#EXCITE=EOMEE                                                                   
#ESTATE_SYM=0/3/0/0                                                             
CC_PROG=VCC                                                                     
CHARGE=-1                                                                       
COORDINATES=CARTESIAN                                                           
BASIS=SPECIAL                                                                   
REFERENCE=RHF                                                                   
MEM_SIZE=90,MEM_UNIT=GB)                                                        
                                                                                
C:cc-pVTZ                                                                       
C:cc-pVTZ                                                                       
H:cc-pVTZ                                                                       
H:cc-pVTZ                                                                       
H:cc-pVTZ                                                                       
H:cc-pVTZ                                                                       
H:aug-cc-pVTZ                                                                   
                                                                                
********************************************************************************
  @GTFLGS-W, Keyword #EXCITE not known and is ignored.
  @GTFLGS-W, Keyword #ESTATE_SYM not known and is ignored.
    -------------------------------------------------------------------
                    CFOUR Control Parameters 
    -------------------------------------------------------------------
        External           Internal           Value            Units
          Name               Name
    -------------------------------------------------------------------
       ABCDTYPE             IABCDT         STANDARD    [  0]    ***   
       ANHARMONIC           IANHAR         OFF         [  0]    ***   
       ANH_ALGORIT          IANALG         STANDARD    [  0]    ***   
       ANH_DERIVAT          IANDER         SECOND      [  1]    ***   
       ANH_MODE             ANHMOD         VIBRATION   [  0]    ***   
       ANH_STEPSIZ          ICUBST             50000          x 10-6  
       ANH_SYMMETR          IANHSM         ABELIAN     [  0]    ***   
       AO_LADDERS           IAOLAD         SINGLEPASS  [  1]    ***   
       AV_SCF               IAVSCF         OFF         [  0]    ***   
       BASIS                IBASIS         SPECIAL     [  0]    ***   
       BOTHVECTORS          BOTHVC         OFF         [  0]    ***   
       BOX_POTENT           IPIAB          OFF         [  0]    ***   
       BREIT                IBREIT         OFF         [  0]    ***   
       BRUCK_CONV           IBRTOL          10D-  4             ***   
       BRUECKNER            IBRKNR         OFF         [  0]    ***   
       BUFFERSIZE           IBUFFS              4096            ***   
       CACHE_RECS           ICHREC             10               ***   
       CALCLEVEL            ICLLVL         CCSD(T)     [ 22]    ***   
       CCORBOPT             ICCORB         OFF         [  0]  x 0.01  
       CC_CONV              ICCCNV          10D-  7             ***   
       CC_EXPORDER          ICCEOR              5               ***   
       CC_EXTRAPOL          ICCEXT         DIIS        [  1]    ***   
       CC_GUESS             ICCGES         MP2         [  0]    ***   
       CC_MAXCYC            ICCCYC            100              cycles 
       CC_PROGRAM           ICCPRO         VCC         [  0]    ***   
       CHARGE               ICHRGE             -1               ***   
       CHOLESKY             ICHOLE         OFF         [  0]    ***   
       CIS_CONV             ICISTL              5               ***   
       COMM_SIZE            IPSIZE            ***               ***   
       CONSTANT             ICONST         OLD         [  1]    ***   
       CONTINUUM            ICONTU         NONE        [  0]    ***   
       CONTRACTION          ICNTYP         GENERAL     [  1]    ***   
       COORDINATES          ICOORD         CARTESIAN   [  1]    ***   
       CPHF_CONVER          ICPHFT          10D- 16             ***   
       CPHF_MAXCYC          ICPHFC             64              cycles 
       CUBIC                ICUBIC         OFF         [  0]    ***   
       CURVILINEAR          ICURVY         OFF         [  0]    ***   
       DBOC                 IDBOC          OFF         [  0]    ***   
       DCT                  IDCT           OFF         [  0]    ***   
       DERIV_LEV            IDRLVL         ZERO        [  0]    ***   
       DEVMEM_SIZE          IDVMEM         *********           MByte  
       DIAG_MRCC            IEOMST          10D-  0             ***   
       DIFF_TYPE            IDIFTY         RELAXED     [  0]    ***   
       DIRECT               IDIRCT         OFF         [  0]    ***   
       DROPMO               IDRPMO      NONE         
       ECP                  IECP           OFF         [  0]    ***   
       EIGENVECTOR          IVEC                1               ***   
       EL_ANHARM            IELANH         OFF         [  0]    ***   
       EOMFOLLOW            IEOMSR         ENERGY      [  0]    ***   
       EOMIP                IEOMIP         OFF         [  0]    ***   
       EOMLEVEL             HBARFM         SAME        [  0]    ***   
       EOM_MRCC             IMRCCE         NEW         [  1]    ***   
       EOM_NONIT            EOMNON         OFF         [  0]    ***   
       EOM_NSING            IEOMSI          10D-  0             ***   
       EOM_NSTATES          IMRCCD         DAVIDSON    [  0]    ***   
       EOM_NTRIP            IEOMTR          10D-  0             ***   
       EOM_ORDER            IEXORD         ENERGY      [  0]    ***   
       EOM_PROPSTA          IEOMST              0               ***   
       ESTATE_CONV          IEXTOL          10D-  5             ***   
       ESTATE_DIAG          IEXDIG         ITERATIVE   [  0]    ***   
       ESTATE_LOCK          IESLOC         ON          [  1]    ***   
       ESTATE_MAXC          IEXMXC             40               ***   
       ESTATE_PROP          IEXPRP         OFF         [  0]    ***   
       EVAL_HESS            IRECAL              0            # of cyc.
       EXCITATION           IEXCIT              0               ***   
       EXCITE               IEXCIT         NONE        [  0]    ***   
       EXTERN_POT           IEXPOT         OFF         [  0]    ***   
       FCGRADNEW            IFCGNW         OFF         [  0]    ***   
       FC_FIELD             IFINFC              0             x 10-6  
       FD_CALTYPE           IFDCAL         GRADONLY    [  0]    ***   
       FD_PROJECT           IFDPRJ         OFF         [  1]    ***   
       FD_STEPSIZE          IDISFD              0            10-4 bohr
       FD_USEGROUP          IFDGRP         FULL        [  0]    ***   
       FILE_RECSIZ          IFLREC              4096           words  
       FINITE_PERT          IFIPER              0             x 10-6  
       FIXGEOM              IFIXGM         OFF         [  0]    ***   
       FOCK                 IFOCK          AO          [  1]    ***   
       FREQ_ALGORI          IVIALG         STANDARD    [  0]    ***   
       FROZEN_CORE          IFROCO         OFF         [  0]    ***   
       GAMMA_ABCD           IGABCD         STORE       [  0]    ***   
       GAMMA_ABCI           IGABCI         STORE       [  0]    ***   
       GENBAS_1             IGNBS1              0               ***   
       GENBAS_2             IGNBS2              0               ***   
       GENBAS_3             IGNBS3              0               ***   
       GENBAS_4             IGNBS4              0               ***   
       GEO_CONV             ICONTL              5              H/bohr 
       GEO_MAXCYC           IOPTCY             50               ***   
       GEO_MAXSTEP          IMXSTP            300            millibohr
       GEO_METHOD           INR            SINGLE_POINT[  5]    ***   
       GIAO                 IGIAO          OFF         [  1]    ***   
       GIMIC                IGIMIC         OFF         [  0]    ***   
       GRID                 IGRID          OFF         [  0]    ***   
       GRID_ALGO            IGALGO         SERIAL      [  0]    ***   
       GUESS                IGUESS         MOREAD      [  0]    ***   
       HBAR                 IHBAR          OFF         [  0]    ***   
       HESS_TYPE            IHESTP         SCF         [  0]    ***   
       HF2_FILE             IHF2Fl         USE         [  1]    ***   
       HFSTABILITY          ISTABL         OFF         [  0]    ***   
       INCORE               INCORE         OFF         [  0]    ***   
       INPUT_MRCC           IMRCC          ON          [  1]    ***   
       INTEGRALS            INTTYP         VMOL        [  1]    ***   
       JODA_PRINT           IJPRNT              0               ***   
       KEYWORD_OUT          IDMPKW         NO          [  0]    ***   
       LINDEP_TOL           ILINDP              8               ***   
       LINEQ_CONV           IZTACN          10D-  7           cycles  
       LINEQ_EXPOR          ILMAXD              5               ***   
       LINEQ_MAXCY          ILMAXC            100               ***   
       LINEQ_TYPE           ILTYPE         DIIS        [  1]    ***   
       LOCK_ORBOCC          ILOCOC         OFF         [  0]    ***   
       MEMORY_SIZE          IMEMSZ         *********           words  
       MEM_UNIT             IMEMU          GB          [  3]    ***   
       MRCC                 IMRCCC         OFF         [  0]    ***   
       MULTIPLICTY          IMULTP              1               ***   
       NACOUPLING           IVCOUP         OFF         [  0]    ***   
       NEGEVAL              IDIE           ABORT       [  0]    ***   
       NEWNORM              INEWNO         OFF         [  0]    ***   
       NON-HF               INONHF         OFF         [  0]    ***   
       NTOP_TAMP            ITOPT2             15               ***   
       NUC_MODEL            INUCMO         POINT       [  0]    ***   
       OCCUPATION           IOCCU   ESTIMATED BY SCF 
       OPEN-SHELL           IOPEN          SPIN-ORBITAL[  0]    ***   
       OPTVIB               IOPTVB         OFF         [  0]    ***   
       ORBITALS             IORBTP         STANDARD    [  0]    ***   
       PARALLEL             IPARAL         ON          [  1]    ***   
       PARA_INT             IPINTS         ON          [  1]    ***   
       PARA_PRINT           IPPRIN              0               ***   
       PERT_ORB             IPTORB         STANDARD    [  0]    ***   
       POINTS               IGRDFD              0               ***   
       PRINT                IPRNT               0               ***   
       PROPS                IPROPS         OFF         [  0]    ***   
       PROP_INTEGR          IINTYP         INTERNAL    [  0]    ***   
       PSI                  IPSI           OFF         [  0]    ***   
       QC_ALG               IQCALG         FLM         [  0]    ***   
       QC_LINALG            IQCLIN         TRIDIAG     [  2]    ***   
       QC_MAXCYC            IQCMAX          10D-100           cycles  
       QC_MAXSCFCY          IQCMSC          10D- 15           cycles  
       QC_RTRUST            IQCRTR          10D-  0           x 10-3  
       QC_SKIPSCF           IQCSKI         OFF         [  0]    ***   
       QC_START             IQCSTA          10D-  1             ***   
       QRHFGUESS            IQGUES         OFF         [  0]    ***   
       QUARTIC              IQUART         OFF         [  0]    ***   
       RAMAN_INT            IRAMIN         OFF         [  0]    ***   
       RAMAN_ORB            IRAMRE         UNRELAXED   [  0]    ***   
       RDO                  IRDOFM         OFF         [  0]    ***   
       REDUCE_REPR          REDREP         Ir          [  0]    ***   
       REFERENCE            IREFNC         RHF         [  0]    ***   
       RELATIVIST           IRELAT         OFF         [  0]    ***   
       RELAX_DENS           IRDENS         OFF         [  0]    ***   
       RESET_FLAGS          IRESET         OFF         [  0]    ***   
       RESTART_CC           ICCRES         OFF         [  0]    ***   
       ROT_EVEC             ROTVEC              0               ***   
       SAVE_INTS            ISVINT         OFF         [  0]    ***   
       SCALE_ON             ISTCRT              0               ***   
       SCF_CONV             ISCFCV          10D-  7             ***   
       SCF_DAMPING          IDAMP               0             x 10-3  
       SCF_EXPORDE          IRPPOR              6               ***   
       SCF_EXPSTAR          IRPPLS              8               ***   
       SCF_EXTRAPO          IRPP           ON          [  1]    ***   
       SCF_MAXCYC           ISCFCY            150              cycles 
       SCF_NOSTOP           ISCFST         OFF         [  0]    ***   
       SCF_PRINT            ISCFPR              0               ***   
       SCF_PROG             ISCFPR         SCF         [  0]    ***   
       SD_FIELD             IFINSD              0             x 10-6  
       SOPERT               IPERSO         OFF         [  0]    ***   
       SPHERICAL            IDFGHI         ON          [  1]    ***   
       SPINORBIT            ISOCAL         OFF         [  0]    ***   
       SPINROTATIO          ISRCON         OFF         [  0]    ***   
       SPIN_FLIP            ISPFLP         OFF         [  0]    ***   
       SPIN_ORBIT           ISPORB         OFF         [  0]    ***   
       SPIN_SCAL            ISCSMP         OFF         [  0]    ***   
       STEEPSCALE           ISTPSC              1000          x 10-3  
       SUBGROUP             ISUBGP         DEFAULT     [  0]    ***   
       SUBGRPAXIS           ISBXYZ         X           [  0]    ***   
       SYMMETRY             ISYM           ON          [  0]    ***   
       SYM_CHECK            ISYMCK         OVERRIDE    [  1]    ***   
       T3_EXTRAPOL          IT3EXT         OFF         [  0]    ***   
       T4_EXTRAPOL          IT4EXP         OFF         [  0]    ***   
       TAMP_SUM             IEVERY              5               ***   
       TESTSUITE            ITESTS         OFF         [  0]    ***   
       THERMOCH             ITHERM         OFF         [  0]    ***   
       TOL_CHOLESK          ITOLCH          10D-  4             ***   
       TRANGRAD             IRESRM         OFF         [  0]    ***   
       TRANS_INV            ITRAIN         USE         [  0]    ***   
       TREAT_PERT           ITREAT         SIMULTANEOUS[  0]    ***   
       TRIP_ALGORI          ITRALG         NORMAL      [  0]    ***   
       UIJ_THRESHO          IUIJTH              1               ***   
       UNITS                IUNITS         ANGSTROM    [  0]    ***   
       UNOS                 IUNOS          OFF         [  0]    ***   
       UPDATE_HESS          IHUPDT         ON          [  1]    ***   
       VIBPHASE             ISETPH         STANDARD    [  0]    ***   
       VIBRATION            IVIB           NO          [  0]    ***   
       VIB_ALGORIT          IGEALG         STANDARD    [  0]    ***   
       VNATORB              IVNORB         OFF         [  0]    ***   
       VTRAN                IVTRAN         FULL/PARTIAL[  0]    ***   
       XFIELD               IXEFLD              0             x 10-6  
       XFORM_TOL            IXFTOL          10D- 11             ***   
       YFIELD               IYEFLD              0             x 10-6  
       ZFIELD               IZEFLD              0             x 10-6  
       ZSCALE_EXP           IZEXPS         OFF         [  0]    ***   
    -------------------------------------------------------------------
  @GETXYZ-I,     7 atoms read from ZMAT.
   Rotational constants (in cm-1): 
          0.2241664091             0.2679152995             0.8536890782
   Rotational constants (in MHz): 
       6720.3408201452          8031.8997433941         25592.9582983936
********************************************************************************
   The full molecular point group is C2v .
   The largest Abelian subgroup of the full molecular point group is C2v .
   The computational point group is C2v .
********************************************************************************


 ----------------------------------------------------------------
         Coordinates used in calculation (QCOMP) 
 ----------------------------------------------------------------
 Z-matrix   Atomic            Coordinates (in bohr)
  Symbol    Number           X              Y              Z
 ----------------------------------------------------------------
     C         6        -1.25572327     0.00000000    -0.51155835
     C         6         1.25572327     0.00000000    -0.51155835
     H         1        -2.19034422     1.81857454    -0.51155835
     H         1         2.19034422     1.81857454    -0.51155835
     H         1        -2.19034422    -1.81857454    -0.51155835
     H         1         2.19034422    -1.81857454    -0.51155835
     H         1         0.00000000     0.00000000    14.22830852
 ----------------------------------------------------------------
 
   Interatomic distance matrix (Angstroms) 
 
                 C             C             H             H             H    
                [ 1]        [ 2]        [ 3]        [ 4]        [ 5]
  C    [ 1]     0.00000
  C    [ 2]     1.32900     0.00000
  H    [ 3]     1.08200     2.06193     0.00000
  H    [ 4]     2.06193     1.08200     2.31816     0.00000
  H    [ 5]     1.08200     2.06193     1.92470     3.01303     0.00000
  H    [ 6]     2.06193     1.08200     3.01303     1.92470     2.31816
  H    [ 7]     7.82826     7.82826     7.94416     7.94416     7.94416
 
                 H             H    
                [ 6]        [ 7]
  H    [ 6]     0.00000
  H    [ 7]     7.94416     0.00000
 rotcon2
   Rotational constants (in cm-1): 
          0.2679152995             0.2241664091             0.8536890782
   Rotational constants (in MHz): 
       8031.8997433941          6720.3408201452         25592.9582983935
  ECPDATA file not present.   Using default ECPDATA. 
  @GTFLGS-W, Keyword #EXCITE not known and is ignored.
  @GTFLGS-W, Keyword #ESTATE_SYM not known and is ignored.
  There are  139 basis functions.
 @GEOPT-W, Archive file not created for single-point calculation.
 @CHECKOUT-I, Total execution time (CPU/WALL):        0.15/       0.17 seconds.
--executable xjoda finished with status     0 in        0.19 seconds (walltime).
 --invoking executable--
/home/tsommerfeld/zscale/bin/xvmol
 SERIAL VERSION OF MOLECULE STARTED
********************************************************************************
                    INPUT FROM MOL FILE
********************************************************************************
INTGRL        1    0    1    0    0    0    0    0    0                         
         *** CFOUR Program System (Release V0.1) ***                            
h_ethylene                                                                      
    3    2 X  Y       0.10E-08              0    0                              
   9999.00      3.00                                                            
          6.00000000    1    4    1    1    1    1                              
C #1  -1.255723272983657   0.000000000000000  -0.511558345706673                
   10    4                                                                      
   8236.00000000000       5.310000000000000E-004  0.000000000000000E+000        
 -1.130000000000000E-004  0.000000000000000E+000                                
   1235.00000000000       4.108000000000000E-003  0.000000000000000E+000        
 -8.780000000000000E-004  0.000000000000000E+000                                
   280.800000000000       2.108700000000000E-002  0.000000000000000E+000        
 -4.540000000000000E-003  0.000000000000000E+000                                
   79.2700000000000       8.185300000000000E-002  0.000000000000000E+000        
 -1.813300000000000E-002  0.000000000000000E+000                                
   25.5900000000000       0.234817000000000       0.000000000000000E+000        
 -5.576000000000000E-002  0.000000000000000E+000                                
   8.99700000000000       0.434401000000000       0.000000000000000E+000        
 -0.126895000000000       0.000000000000000E+000                                
   3.31900000000000       0.346129000000000       0.000000000000000E+000        
 -0.170352000000000       0.000000000000000E+000                                
  0.905900000000000       3.937800000000000E-002   1.00000000000000             
  0.140382000000000       0.000000000000000E+000                                
  0.364300000000000      -8.983000000000000E-003  0.000000000000000E+000        
  0.598684000000000       0.000000000000000E+000                                
  0.128500000000000       2.385000000000000E-003  0.000000000000000E+000        
  0.395389000000000        1.00000000000000                                     
    5    3                                                                      
   18.7100000000000       0.000000000000000E+000  1.403100000000000E-002        
  0.000000000000000E+000                                                        
   4.13300000000000       0.000000000000000E+000  8.686600000000000E-002        
  0.000000000000000E+000                                                        
   1.20000000000000       0.000000000000000E+000  0.290216000000000             
  0.000000000000000E+000                                                        
  0.382700000000000        1.00000000000000       0.501008000000000             
  0.000000000000000E+000                                                        
  0.120900000000000       0.000000000000000E+000  0.343406000000000             
   1.00000000000000                                                             
    2    2                                                                      
   1.09700000000000        1.00000000000000       0.000000000000000E+000        
  0.318000000000000       0.000000000000000E+000   1.00000000000000             
    1    1                                                                      
  0.761000000000000        1.00000000000000                                     
          1.00000000    1    3    1    1    1                                   
H #2  -2.190344215575466   1.818574537711477  -0.511558345706673                
    5    3                                                                      
   33.8700000000000       0.000000000000000E+000  6.068000000000000E-003        
  0.000000000000000E+000                                                        
   5.09500000000000       0.000000000000000E+000  4.530800000000000E-002        
  0.000000000000000E+000                                                        
   1.15900000000000       0.000000000000000E+000  0.202822000000000             
  0.000000000000000E+000                                                        
  0.325800000000000        1.00000000000000       0.503903000000000             
  0.000000000000000E+000                                                        
  0.102700000000000       0.000000000000000E+000  0.383421000000000             
   1.00000000000000                                                             
    2    2                                                                      
   1.40700000000000        1.00000000000000       0.000000000000000E+000        
  0.388000000000000       0.000000000000000E+000   1.00000000000000             
    1    1                                                                      
   1.05700000000000        1.00000000000000                                     
          1.00000000    1    3    1    1    1                                   
H #3   0.000000000000000   0.000000000000000  14.228308515501041                
    6    4                                                                      
   33.8700000000000       0.000000000000000E+000  6.068000000000000E-003        
  0.000000000000000E+000  0.000000000000000E+000                                
   5.09500000000000       0.000000000000000E+000  4.530800000000000E-002        
  0.000000000000000E+000  0.000000000000000E+000                                
   1.15900000000000       0.000000000000000E+000  0.202822000000000             
  0.000000000000000E+000  0.000000000000000E+000                                
  0.325800000000000        1.00000000000000       0.503903000000000             
  0.000000000000000E+000  0.000000000000000E+000                                
  0.102700000000000       0.000000000000000E+000  0.383421000000000             
   1.00000000000000       0.000000000000000E+000                                
  2.526000000000000E-002  0.000000000000000E+000  0.000000000000000E+000        
  0.000000000000000E+000   1.00000000000000                                     
    3    3                                                                      
   1.40700000000000        1.00000000000000       0.000000000000000E+000        
  0.000000000000000E+000                                                        
  0.388000000000000       0.000000000000000E+000   1.00000000000000             
  0.000000000000000E+000                                                        
  0.102000000000000       0.000000000000000E+000  0.000000000000000E+000        
   1.00000000000000                                                             
    2    2                                                                      
   1.05700000000000        1.00000000000000       0.000000000000000E+000        
  0.247000000000000       0.000000000000000E+000   1.00000000000000             
FINISH                                                                          
 
********************************************************************************
 ONE- AND TWO-ELECTRON INTEGRALS OVER SYMMETRY-ADAPTED AOS ARE CALCULATED.

  SPHERICAL HARMONICS ARE USED.
  
  INTEGRALS LESS THAN  0.10E-13 ARE NEGLECTED.

  NUCLEAR REPULSION ENERGY :   34.6668443546 A.U.
  @MOLECU-I, ONE ELECTRON INTEGRALS (CPU/WALL):        0.04/       0.04 SECONDS.
  @TWOEL-I,     486572 INTEGRALS OF SYMMETRY TYPE  I I I I
  @TWOEL-I,    1984816 INTEGRALS OF SYMMETRY TYPE  I J I J
  @TWOEL-I,    1150576 INTEGRALS OF SYMMETRY TYPE  I I J J
  @TWOEL-I,    1719346 INTEGRALS OF SYMMETRY TYPE  I J K L
  @TWOEL-I, TOTAL NUMBER OF 2-E INTEGRALS    5341310.
  @MOLECU-I, TWO ELECTRON INTEGRALS (CPU/WALL):       34.80/       3.86 SECONDS.
 @CHECKOUT-I, Total execution time (CPU/WALL):       34.86/       3.91 seconds.

Running with 12 threads/proc

--executable xvmol finished with status     0 in        3.94 seconds (walltime).
 --invoking executable--
/home/tsommerfeld/zscale/bin/xvmol2ja
 @GETMEM-I,  Allocated   85830 MB of main memory.
 @CHECKOUT-I, Total execution time (CPU/WALL):        0.11/       0.02 seconds.
--executable xvmol2ja finished with status     0 in        0.04 seconds (walltime).
 --invoking executable--
/home/tsommerfeld/zscale/bin/xvscf
  There are  139 functions in the AO basis.

  There are 4 irreducible representations.

       Irrep        # of functions
         1                 45
         2                 39
         3                 29
         4                 26


  Parameters for SCF calculation: 
        SCF reference function:  RHF  
  Maximum number of iterations:  150
     Full symmetry point group: C2v 
     Computational point group: C2v 
        Initial density matrix: MOREAD                 
     SCF convergence tolerance: 10**(- 7)
  DIIS convergence acceleration:  ON
          Latest start for DIIS:   8
                     DIIS order:   6

  Memory information:     823082 words required.
  Fock matrices are constructed from AO integral file.
 @GETMEM-I,  Allocated       6 MB of main memory.
  Initialization and symmetry analysis required      0.001 seconds.

  @INITGES-I, Occupancies from core Hamiltonian:

          Alpha population by irrep:   4    3    1    1
           Beta population by irrep:   4    3    1    1


 total no. of electrons in initial guess :  0.000000000000000E+000
  --------------------------------------------------------------------
  Iteration         Total Energy            Largest Density Difference
  --------------------------------------------------------------------
       0            34.666844354594751              0.0000000000D+00
   current occupation vector 
     4  3  1  1
     4  3  1  1
       1           -51.707602491538147              0.8749682822D+01
   current occupation vector 
     4  3  1  1
     4  3  1  1
       2           -41.608238595826400              0.3155843868D+02
   current occupation vector 
     5  3  1  0
     5  3  1  0
       3           -67.993678616959215              0.3129722070D+02
   current occupation vector 
     4  3  1  1
     4  3  1  1
       4           -43.688042663323607              0.1243617691D+02
   current occupation vector 
     6  2  1  0
     6  2  1  0
       5           -68.654849209091708              0.1243617685D+02
   current occupation vector 
     4  3  1  1
     4  3  1  1
       6           -43.966412636373001              0.1243594028D+02
   current occupation vector 
     6  2  1  0
     6  2  1  0
       7           -68.747220253905681              0.1243594029D+02
   current occupation vector 
     4  3  1  1
     4  3  1  1
       8           -44.003815948935959              0.1243590501D+02
   current occupation vector 
     6  2  1  0
     6  2  1  0
       9           -73.545287994934057              0.1243590545D+02
   current occupation vector 
     4  3  1  1
     4  3  1  1
      10           -75.804919088517352              0.9218544830D+00
   current occupation vector 
     4  3  1  1
     4  3  1  1
      11           -78.508638913955053              0.1659924940D+01
   current occupation vector 
     5  2  1  1
     5  2  1  1
      12           -78.543661280052646              0.3180896198D+00
   current occupation vector 
     5  2  1  1
     5  2  1  1
      13           -78.546496368131500              0.5745968033D-01
   current occupation vector 
     5  2  1  1
     5  2  1  1
      14           -78.546640335782143              0.1657915768D-01
   current occupation vector 
     5  2  1  1
     5  2  1  1
      15           -78.546649934542131              0.5540394692D-02
   current occupation vector 
     5  2  1  1
     5  2  1  1
      16           -78.546650459331062              0.1919446454D-02
   current occupation vector 
     5  2  1  1
     5  2  1  1
      17           -78.546650467861980              0.1916216417D-03
   current occupation vector 
     5  2  1  1
     5  2  1  1
      18           -78.546650468093418              0.4145418603D-04
   current occupation vector 
     5  2  1  1
     5  2  1  1
      19           -78.546650468099273              0.3145519722D-05
   current occupation vector 
     5  2  1  1
     5  2  1  1
      20           -78.546650468100324              0.4975992268D-06
   current occupation vector 
     5  2  1  1
     5  2  1  1
      21           -78.546650468100466              0.1349032366D-06
   current occupation vector 
     5  2  1  1
     5  2  1  1

  SCF has converged.

 Density matrix saved to file den.dat
 total electron number:   18.0000000000000     
     E(SCF)=       -78.546650468099926              0.1386502088D-07


  Final occupancies:

     Alpha population by irrep:   5    2    1    1
      Beta population by irrep:   5    2    1    1


  Eigenvector printing suppressed.

 @PUTMOS-I, Writing converged MOs to NEWMOS. 
 @PUTMOS-I, Symmetry   1 Full Blocks 11 Partial Blocksize   1
 @PUTMOS-I, Symmetry   2 Full Blocks  9 Partial Blocksize   3
 @PUTMOS-I, Symmetry   3 Full Blocks  7 Partial Blocksize   1
 @PUTMOS-I, Symmetry   4 Full Blocks  6 Partial Blocksize   2
 @PUTFOCK-I, Writing converged Fock matrix to NEWFOCK. 
 @PUTFOCK-I, Symmetry   1 Full Blocks 11 Partial Blocksize   1
 @PUTFOCK-I, Symmetry   2 Full Blocks  9 Partial Blocksize   3
 @PUTFOCK-I, Symmetry   3 Full Blocks  7 Partial Blocksize   1
 @PUTFOCK-I, Symmetry   4 Full Blocks  6 Partial Blocksize   2


 
  ORBITAL EIGENVALUES (ALPHA)  (1H = 27.2113834 eV)

       MO #        E(hartree)               E(eV)           FULLSYM    COMPSYM
       ----   --------------------   --------------------   -------   ---------
    1     1         -11.1589972172        -303.6517516376      A1        A1 (1)
    2    46         -11.1572331813        -303.6037497796      B1        B1 (2)
    3     2          -0.9706575055         -26.4129335313      A1        A1 (1)
    4    47          -0.7128304882         -19.3971037130      B1        B1 (2)
    5    85          -0.5921190938         -16.1123796801      B2        B2 (3)
    6     3          -0.4991759110         -13.5832670987      A1        A1 (1)
    7   114          -0.4477582022         -12.1841201102      A2        A2 (4)
    8     4          -0.3091057746          -8.4111957433      A1        A1 (1)
    9     5          -0.0452436131          -1.2311413023      A1        A1 (1)
  +++++++++++++++++++++++++++++++++++++++++++++++++++++++++++++++++++++++++++++
   10    48           0.2222925604           6.0488880877      B1        B1 (2)
   11     6           0.2229089598           6.0656611676      A1        A1 (1)
   12     7           0.2432657982           6.6195989034      A1        A1 (1)
   13    86           0.2507011944           6.8219263207      B2        B2 (3)
   14    49           0.2582149234           7.0263852792      B1        B1 (2)
   15   115           0.3046356776           8.2895582197      A2        A2 (4)
   16    50           0.4211560655          11.4602391701      B1        B1 (2)
   17     8           0.4268049035          11.6139518657      A1        A1 (1)
   18    87           0.4496685879          12.2361043492      E         B2 (3)
   19    51           0.4496754098          12.2362899805      E         B1 (2)
   20     9           0.4498033225          12.2397706638      A1        A1 (1)
   21    10           0.5145891147          14.0026816934      A1        A1 (1)
   22    88           0.5386653771          14.6578301009      B2        B2 (3)
   23    11           0.5483041167          14.9201135390      A1        A1 (1)
   24    52           0.6326075099          17.2141254942      B1        B1 (2)
   25    53           0.6574045406          17.8888870023      B1        B1 (2)
   26    89           0.6633554749          18.0508201568      B2        B2 (3)
   27    12           0.6922740339          18.8377341549      A1        A1 (1)
   28    54           0.7060009517          19.2112625768      B1        B1 (2)
   29    90           0.7347694953          19.9940944469      B2        B2 (3)
   30   116           0.7603785310          20.6909517371      A2        A2 (4)
   31    13           0.7835892931          21.3225486816      A1        A1 (1)
   32    55           0.8519766099          23.1834621797      B1        B1 (2)
   33   117           0.8956262839          24.3712301945      A2        A2 (4)
   34    14           0.9637922398          26.2261201542      A1        A1 (1)
   35   118           0.9712888996          26.4301146382      A2        A2 (4)
   36    15           1.0531050684          28.6564457779      A1        A1 (1)
   37   119           1.0882988020          29.6141159539      A2        A2 (4)
   38   120           1.1023888607          29.9975259455      E         A2 (4)
   39    16           1.1023888623          29.9975259868      E         A1 (1)
   40    91           1.1024332900          29.9987349278      E         B2 (3)
   41    56           1.1024361348          29.9988123394      E         B1 (2)
   42    17           1.1024573851          29.9993905887      A1        A1 (1)
   43    92           1.1044834479          30.0545225589      B2        B2 (3)
   44    18           1.2494538066          33.9993665709      A1        A1 (1)
   45    57           1.2498820509          34.0110196914      B1        B1 (2)
   46    19           1.2963121668          35.2744473770      A1        A1 (1)
   47    93           1.3216443977          35.9637724237      B2        B2 (3)
   48    94           1.3386857681          36.4274916872      E         B2 (3)
   49    58           1.3386884045          36.4275634278      E         B1 (2)
   50    20           1.3387385541          36.4289280677      A1        A1 (1)
   51    59           1.3886849274          37.7880379812      B1        B1 (2)
   52    95           1.4122142132          38.4283023981      B2        B2 (3)
   53    60           1.4315336770          38.9540117341      B1        B1 (2)
   54    96           1.5304838753          41.6465835184      B2        B2 (3)
   55    61           1.5450871362          42.0439584509      B1        B1 (2)
   56    21           1.5743600276          42.8405143213      A1        A1 (1)
   57    62           1.6001405429          43.5420378079      B1        B1 (2)
   58   121           1.6641663479          45.2842685328      A2        A2 (4)
   59   122           1.7034281306          46.3526359565      A2        A2 (4)
   60    63           1.8671003163          50.8063825529      B1        B1 (2)
   61    22           1.9190730146          52.2206315739      A1        A1 (1)
   62   123           2.0374457240          55.4417167530      A2        A2 (4)
   63    23           2.3537471906          64.0487172301      A1        A1 (1)
   64    24           2.4320897701          66.1805271961      A1        A1 (1)
   65    25           2.6153385533          71.1669800945      A1        A1 (1)
   66    64           2.6320493490          71.6217039633      B1        B1 (2)
   67    97           2.6911460605          73.2298072385      B2        B2 (3)
   68    98           2.7761838881          75.5438041677      B2        B2 (3)
   69    65           2.8084245204          76.4211163757      B1        B1 (2)
   70    26           2.8290946396          76.9835789128      A1        A1 (1)
   71   124           2.9089295599          79.1559975376      A2        A2 (4)
   72    27           2.9771756839          81.0130689831      A1        A1 (1)
   73    99           2.9833403851          81.1808190325      B2        B2 (3)
   74   125           3.1319959575          85.2259428075      A2        A2 (4)
   75    28           3.1640550901          86.0983161546      A1        A1 (1)
   76   100           3.1742744222          86.3763983205      B2        B2 (3)
   77    29           3.1763152164          86.4319311540      A1        A1 (1)
   78   101           3.1883411320          86.7591729519      B2        B2 (3)
   79   126           3.2205522917          87.6356831682      A2        A2 (4)
   80    30           3.2460952747          88.3307430740      A1        A1 (1)
   81    66           3.2963518171          89.6982931170      B1        B1 (2)
   82    67           3.3336002868          90.7118755068      B1        B1 (2)
   83   102           3.4052753186          92.6622522759      B2        B2 (3)
   84    68           3.4696177332          94.4130983882      B1        B1 (2)
   85    69           3.4933790715          95.0596772761      B1        B1 (2)
   86   127           3.4940336035          95.0774879975      A2        A2 (4)
   87   128           3.5149453891          95.6465266127      A2        A2 (4)
   88    70           3.5210329915          95.8121786962      B1        B1 (2)
   89    31           3.6180206244          98.4513463586      A1        A1 (1)
   90    32           3.6436533877          99.1488493095      A1        A1 (1)
   91   103           3.7092021876         100.9325228346      B2        B2 (3)
   92   104           3.7900054591         103.1312916344      B2        B2 (3)
   93   129           3.8834496545         105.6740374644      A2        A2 (4)
   94    71           3.9437285669         107.3143100597      B1        B1 (2)
   95   130           3.9794927196         108.2875021319      A2        A2 (4)
   96    72           4.0359539952         109.8238915482      B1        B1 (2)
   97   131           4.0445302169         110.0572624048      A2        A2 (4)
   98    33           4.0744514469         110.8714604652      A1        A1 (1)
   99   105           4.0791891693         111.0003804470      B2        B2 (3)
  100    34           4.1246654463         112.2378528569      A1        A1 (1)
  101    35           4.2164803771         114.7362641399      E         A1 (1)
  102   132           4.2164803793         114.7362641985      E         A2 (4)
  103   106           4.2164911740         114.7365579373                B2 (3)
  104    73           4.2164918245         114.7365756387                B1 (2)
  105    36           4.2164964054         114.7367002908                A1 (1)
  106    74           4.2520616887         115.7044808508      B1        B1 (2)
  107   133           4.2589711667         115.8924973055      A2        A2 (4)
  108    37           4.2602207856         115.9265011656      A1        A1 (1)
  109   107           4.2697473256         116.1857314994      B2        B2 (3)
  110    38           4.3970803992         119.6506405826      A1        A1 (1)
  111    75           4.4178930724         120.2169822138      B1        B1 (2)
  112   108           4.4445619162         120.9426783461      E         B2 (3)
  113    76           4.4445626821         120.9426991890      E         B1 (2)
  114    39           4.4445772163         120.9430946846      A1        A1 (1)
  115   109           4.5372928246         123.4660146481      B2        B2 (3)
  116    77           4.5733962635         124.4484391650      B1        B1 (2)
  117   134           4.6741015479         127.1887692701      A2        A2 (4)
  118    40           4.7090428106         128.1395693665      A1        A1 (1)
  119    78           4.8254718893         131.3077656664      B1        B1 (2)
  120    79           4.8812661826         132.8260055722      B1        B1 (2)
  121    41           4.9957866820         135.9422667884      A1        A1 (1)
  122    42           5.0416457584         137.1901556992      A1        A1 (1)
  123   135           5.0954873930         138.6552610610      A2        A2 (4)
  124   110           5.1948202990         141.3582468509      B2        B2 (3)
  125   111           5.2843690622         143.7949925792      B2        B2 (3)
  126    43           5.3668530370         146.0394956401      A1        A1 (1)
  127    80           5.3720841502         146.1818414687      B1        B1 (2)
  128   136           5.4944423203         149.5113765467      A2        A2 (4)
  129   137           5.5098749585         149.9313199825      A2        A2 (4)
  130    81           5.6051311132         152.5233717288      B1        B1 (2)
  131    44           5.6303976534         153.2109092399      A1        A1 (1)
  132   112           5.6850311152         154.6975613176      B2        B2 (3)
  133    82           6.0245728840         163.9369625666      B1        B1 (2)
  134   138           6.1603864929         167.6326387510      A2        A2 (4)
  135   113           6.3381708528         172.4703971289      B2        B2 (3)
  136    83           6.5774915972         178.9826456627      B1        B1 (2)
  137   139           6.9409611061         188.8731538237      A2        A2 (4)
  138    45          11.9647547082         325.5775276525      A1        A1 (1)
  139    84          14.8169003719         403.1883568194      B1        B1 (2)


  VSCF finished.

 @CHECKOUT-I, Total execution time (CPU/WALL):       15.71/       1.32 seconds.
--executable xvscf finished with status     0 in        1.34 seconds (walltime).
 --invoking executable--
/home/tsommerfeld/zscale/bin/xvtran
 @GETMEM-I,  Allocated   85830 MB of main memory.
  Full RHF integral transformation
  Transformation of IIII integrals :
  1 pass through the AO integral file was required.
      486572 AO integrals were read.
      997317 MO integrals were written to HF2.
  Transformation of IIJJ integrals :
  1 pass through the AO integral file was required.
     1150576 AO integrals were read.
     2386564 MO integrals were written to HF2.
  Transformation of IJIJ integrals :
  1 pass through the AO integral file was required.
     1984816 AO integrals were read.
     4517454 MO integrals were written to HF2.
  Transformation of IJKL integrals :
  1 pass through the AO integral file was required.
     1719346 AO integrals were read.
     3969786 MO integrals were written to HF2.
  Summary of active molecular orbitals: 
------------------------------------------------------------------------
 
  Index      Eigenvalue    Symmetry    Index      Eigenvalue    Symmetry
------------------------------------------------------------------------
     1       -11.1589972        1        71         3.4933791        2
     2        -0.9706575        1        72         3.5210330        2
     3        -0.4991759        1        73         3.9437286        2
     4        -0.3091058        1        74         4.0359540        2
     5        -0.0452436        1        75         4.2164918        2
     6       -11.1572332        2        76         4.2520617        2
     7        -0.7128305        2        77         4.4178931        2
     8        -0.5921191        3        78         4.4445627        2
     9        -0.4477582        4        79         4.5733963        2
    10         0.2229090        1        80         4.8254719        2
    11         0.2432658        1        81         4.8812662        2
    12         0.4268049        1        82         5.3720842        2
    13         0.4498033        1        83         5.6051311        2
    14         0.5145891        1        84         6.0245729        2
    15         0.5483041        1        85         6.5774916        2
    16         0.6922740        1        86        14.8169004        2
    17         0.7835893        1        87         0.2507012        3
    18         0.9637922        1        88         0.4496686        3
    19         1.0531051        1        89         0.5386654        3
    20         1.1023889        1        90         0.6633555        3
    21         1.1024574        1        91         0.7347695        3
    22         1.2494538        1        92         1.1024333        3
    23         1.2963122        1        93         1.1044834        3
    24         1.3387386        1        94         1.3216444        3
    25         1.5743600        1        95         1.3386858        3
    26         1.9190730        1        96         1.4122142        3
    27         2.3537472        1        97         1.5304839        3
    28         2.4320898        1        98         2.6911461        3
    29         2.6153386        1        99         2.7761839        3
    30         2.8290946        1       100         2.9833404        3
    31         2.9771757        1       101         3.1742744        3
    32         3.1640551        1       102         3.1883411        3
    33         3.1763152        1       103         3.4052753        3
    34         3.2460953        1       104         3.7092022        3
    35         3.6180206        1       105         3.7900055        3
    36         3.6436534        1       106         4.0791892        3
    37         4.0744514        1       107         4.2164912        3
    38         4.1246654        1       108         4.2697473        3
    39         4.2164804        1       109         4.4445619        3
    40         4.2164964        1       110         4.5372928        3
    41         4.2602208        1       111         5.1948203        3
    42         4.3970804        1       112         5.2843691        3
    43         4.4445772        1       113         5.6850311        3
    44         4.7090428        1       114         6.3381709        3
    45         4.9957867        1       115         0.3046357        4
    46         5.0416458        1       116         0.7603785        4
    47         5.3668530        1       117         0.8956263        4
    48         5.6303977        1       118         0.9712889        4
    49        11.9647547        1       119         1.0882988        4
    50         0.2222926        2       120         1.1023889        4
    51         0.2582149        2       121         1.6641663        4
    52         0.4211561        2       122         1.7034281        4
    53         0.4496754        2       123         2.0374457        4
    54         0.6326075        2       124         2.9089296        4
    55         0.6574045        2       125         3.1319960        4
    56         0.7060010        2       126         3.2205523        4
    57         0.8519766        2       127         3.4940336        4
    58         1.1024361        2       128         3.5149454        4
    59         1.2498821        2       129         3.8834497        4
    60         1.3386884        2       130         3.9794927        4
    61         1.3886849        2       131         4.0445302        4
    62         1.4315337        2       132         4.2164804        4
    63         1.5450871        2       133         4.2589712        4
    64         1.6001405        2       134         4.6741015        4
    65         1.8671003        2       135         5.0954874        4
    66         2.6320493        2       136         5.4944423        4
    67         2.8084245        2       137         5.5098750        4
    68         3.2963518        2       138         6.1603865        4
    69         3.3336003        2       139         6.9409611        4
    70         3.4696177        2
------------------------------------------------------------------------
  -11.1589972172304      -0.970657505464019      -0.499175911017454     
 -0.309105774583149      -4.524361309322670E-002  -11.1572331813024     
 -0.712830488178897      -0.592119093808892      -0.447758202186539     
  0.222908959771497       0.243265798216220       0.426804903484198     
  0.449803322523770       0.514589114694617       0.548304116687261     
  0.692274033920737       0.783589293060662       0.963792239766813     
   1.05310506844243        1.10238886225907        1.10245738512303     
   1.24945380655935        1.29631216680472        1.33873855408987     
   1.57436002762462        1.91907301463791        2.35374719059976     
   2.43208977005157        2.61533855329375        2.82909463959188     
   2.97717568387700        3.16405509006878        3.17631521644840     
   3.24609527474398        3.61802062436201        3.64365338770340     
   4.07445144686011        4.12466544633390        4.21648037710359     
   4.21649640535515        4.26022078559869        4.39708039917632     
   4.44457721633694        4.70904281060791        4.99578668199674     
   5.04164575841465        5.36685303695757        5.63039765335344     
   11.9647547082262       0.222292560388960       0.258214923363094     
  0.421156065518942       0.449675409758701       0.632607509921523     
  0.657404540569931       0.706000951674035       0.851976609895333     
   1.10243613484763        1.24988205088446        1.33868840449222     
   1.38868492739527        1.43153367697368        1.54508713624932     
   1.60014054294271        1.86710031629341        2.63204934899856     
   2.80842452044044        3.29635181712278        3.33360028681388     
   3.46961773315176        3.49337907149919        3.52103299151762     
   3.94372856690856        4.03595399520090        4.21649182447209     
   4.25206168866784        4.41789307241959        4.44456268214006     
   4.57339626345515        4.82547188932766        4.88126618260015     
   5.37208415022009        5.60513111321047        6.02457288395621     
   6.57749159723668        14.8169003719023       0.250701194437745     
  0.449668587934471       0.538665377113085       0.663355474857527     
  0.734769495288753        1.10243329002486        1.10448344786895     
   1.32164439767712        1.33868576807371        1.41221421319209     
   1.53048387530379        2.69114606053024        2.77618388809057     
   2.98334038513009        3.17427442224551        3.18834113196400     
   3.40527531855987        3.70920218758807        3.79000545905416     
   4.07918916930014        4.21649117395810        4.26974732564874     
   4.44456191617521        4.53729282459491        5.19482029902486     
   5.28436906222058        5.68503111523677        6.33817085275219     
  0.304635677569152       0.760378531034147       0.895626283906203     
  0.971288899562277        1.08829880195986        1.10238886074237     
   1.66416634785123        1.70342813061347        2.03744572402133     
   2.90892955988265        3.13199595752799        3.22055229166233     
   3.49403360350805        3.51494538909275        3.88344965454573     
   3.97949271964841        4.04453021689371        4.21648037925389     
   4.25897116665776        4.67410154788724        5.09548739300951     
   5.49444232029247        5.50987495852485        6.16038649291754     
   6.94096110614189     
 @CHECKOUT-I, Total execution time (CPU/WALL):       16.55/       1.95 seconds.
--executable xvtran finished with status     0 in        1.97 seconds (walltime).
 --invoking executable--
/home/tsommerfeld/zscale/bin/xintprc
 @GETMEM-I,  Allocated   85830 MB of main memory.
  @GMOIAA-I, Processing MO integrals for spin case AA.
  @GMOIAA-I, Generation of integral list completed.
                      TYPE                NUMBER
                      ----               --------
                      PPPP               9084332
                      PPPH               2501580
                      PPHH                173537
                      PHPH                 97627
                      PHHH                 13713
                      HHHH                   332

                     TOTAL              11871121

  @FORMT2-I, Second-order MP correlation energies:
            ------------------------------------------------
            E(SCF)                  =    -78.546650468100 a.u.
            E2(AA)                  =     -0.037954161333 a.u.
            E2(AB)                  =     -0.319267221556 a.u.
            E2(TOT)                 =     -0.395175544223 a.u.
            Total MP2 energy        =    -78.941826012323 a.u.
            ------------------------------------------------
   Largest T2 amplitudes for spin case AB:
       _       _                 _       _                 _       _
   i   j   a   b             i   j   a   b             i   j   a   b
-----------------------------------------------------------------------------
[  4   4  50  50]-0.08266 [  5   5  11  11]-0.07904 [  5   5  17  17]-0.04754
[  5   5  11  17] 0.04238 [  5   5  17  11] 0.04238 [  5   5  88  88]-0.04091
[  5   5  53  53]-0.04090 [  5   5  13  13]-0.04089 [  4   4  54  50]-0.03681
[  4   4  50  54]-0.03681 [  4   4  14  14]-0.03051 [  4   4  15  15]-0.02683
[  4   3  50  57] 0.02650 [  3   4  57  50] 0.02650 [  4   4  54  54]-0.02631
-----------------------------------------------------------------------------
   Norm of T2AB vector (   345906 symmetry allowed elements):  0.3321822872.
-----------------------------------------------------------------------------
 @CHECKOUT-I, Total execution time (CPU/WALL):        5.06/       2.71 seconds.
--executable xintprc finished with status     0 in        2.74 seconds (walltime).
  calling xvcc 
 --invoking executable--
/home/tsommerfeld/zscale/bin/xvcc
 @GETMEM-I,  Allocated   85830 MB of main memory.
   CCSD(T) energy will be calculated.
   The total correlation energy is -0.395175544223 a.u.
   The total correlation energy is -0.415069233545 a.u.
  Convergence information after     1 iterations: 
  Largest element of residual vector : -0.27790452E-01.
  Largest element of DIIS residual   : -0.27790452E-01.
   The total correlation energy is -0.426231994732 a.u.
  Convergence information after     2 iterations: 
  Largest element of residual vector : -0.12924751E-01.
  Largest element of DIIS residual   : -0.10651149E-01.
   The total correlation energy is -0.429134828760 a.u.
  Convergence information after     3 iterations: 
  Largest element of residual vector : -0.68957800E-02.
  Largest element of DIIS residual   :  0.57225479E-02.
   The total correlation energy is -0.430758638391 a.u.
  Convergence information after     4 iterations: 
  Largest element of residual vector :  0.34418160E-02.
  Largest element of DIIS residual   : -0.20169383E-02.
   The total correlation energy is -0.430932195597 a.u.
  Convergence information after     5 iterations: 
  Largest element of residual vector :  0.10113173E-02.
  Largest element of DIIS residual   :  0.36418192E-03.
   The total correlation energy is -0.430937378969 a.u.
  Convergence information after     6 iterations: 
  Largest element of residual vector :  0.24467359E-03.
  Largest element of DIIS residual   :  0.19440352E-03.
   The total correlation energy is -0.430928271464 a.u.
  Convergence information after     7 iterations: 
  Largest element of residual vector :  0.92392568E-04.
  Largest element of DIIS residual   :  0.68860984E-04.
   The total correlation energy is -0.430925017021 a.u.
  Convergence information after     8 iterations: 
  Largest element of residual vector : -0.71148817E-04.
  Largest element of DIIS residual   :  0.26388832E-04.
   The total correlation energy is -0.430924457722 a.u.
  Convergence information after     9 iterations: 
  Largest element of residual vector :  0.27370139E-04.
  Largest element of DIIS residual   :  0.10964386E-04.
   The total correlation energy is -0.430924766626 a.u.
  Convergence information after    10 iterations: 
  Largest element of residual vector : -0.12091630E-04.
  Largest element of DIIS residual   : -0.45597946E-05.
   The total correlation energy is -0.430925370715 a.u.
  Convergence information after    11 iterations: 
  Largest element of residual vector :  0.50802518E-05.
  Largest element of DIIS residual   : -0.29329682E-05.
   The total correlation energy is -0.430925659057 a.u.
  Convergence information after    12 iterations: 
  Largest element of residual vector : -0.17227839E-05.
  Largest element of DIIS residual   :  0.13577600E-05.
   The total correlation energy is -0.430925941063 a.u.
  Convergence information after    13 iterations: 
  Largest element of residual vector : -0.93410388E-06.
  Largest element of DIIS residual   :  0.70445710E-06.
   The total correlation energy is -0.430926058760 a.u.
  Convergence information after    14 iterations: 
  Largest element of residual vector : -0.61264707E-06.
  Largest element of DIIS residual   :  0.35229109E-06.
   The total correlation energy is -0.430926088480 a.u.
  Convergence information after    15 iterations: 
  Largest element of residual vector :  0.36628553E-06.
  Largest element of DIIS residual   :  0.19194425E-06.
   The total correlation energy is -0.430926103317 a.u.
  Convergence information after    16 iterations: 
  Largest element of residual vector : -0.13148760E-06.
  Largest element of DIIS residual   :  0.71616459E-07.
   The total correlation energy is -0.430926107206 a.u.
  Convergence information after    17 iterations: 
  Largest element of residual vector :  0.72054404E-07.
  Largest element of DIIS residual   :  0.31042252E-07.
  Amplitude equations converged in    17iterations.
   The total correlation energy is -0.430926109717 a.u.
   The CC iterations have converged.

   Largest T1 amplitudes for spin case AA:
   i       a                 i       a                 i       a    
-----------------------------------------------------------------------------
[  5      11    ] 0.02697 [  4      14    ] 0.02414 [  5      17    ] 0.01559
[  4      18    ]-0.01484 [  4      22    ]-0.00980 [  4      28    ]-0.00946
[  8      89    ]-0.00791 [  5      10    ]-0.00683 [  8      90    ] 0.00618
[  3      12    ] 0.00554 [  5      31    ] 0.00493 [  9     121    ]-0.00448
[  8      97    ]-0.00433 [  4      30    ]-0.00395 [  7      56    ] 0.00394
-----------------------------------------------------------------------------
   Norm of T1AA vector (      327 symmetry allowed elements):  0.0494493104.
-----------------------------------------------------------------------------
   Largest T2 amplitudes for spin case AB:
       _       _                 _       _                 _       _
   i   j   a   b             i   j   a   b             i   j   a   b
-----------------------------------------------------------------------------
[  5   5  11  11]-0.14424 [  4   4  50  50]-0.11608 [  5   5  17  11] 0.08395
[  5   5  11  17] 0.08395 [  5   5  17  17]-0.06413 [  5   5  88  88]-0.05420
[  5   5  53  53]-0.05420 [  5   5  13  13]-0.05416 [  4   4  54  50]-0.05108
[  4   4  50  54]-0.05108 [  5   5  11  10] 0.02925 [  5   5  10  11] 0.02925
[  4   4  54  54]-0.02906 [  4   4  15  15]-0.02612 [  4   4  14  14]-0.02557
-----------------------------------------------------------------------------
   Norm of T2AB vector (   345906 symmetry allowed elements):  0.4178816421.
-----------------------------------------------------------------------------
       Summary of iterative solution of CC equations 
      -----------------------------------------------------------
                       Correlation           Total
       Iteration         Energy              Energy
      -----------------------------------------------------------
            0        -0.395175544223     -78.941826012323  DIIS 
            1        -0.415069233545     -78.961719701645  DIIS 
            2        -0.426231994732     -78.972882462832  DIIS 
            3        -0.429134828760     -78.975785296860  DIIS 
            4        -0.430758638391     -78.977409106491  DIIS 
            5        -0.430932195597     -78.977582663697  DIIS 
            6        -0.430937378969     -78.977587847069  DIIS 
            7        -0.430928271464     -78.977578739564  DIIS 
            8        -0.430925017021     -78.977575485121  DIIS 
            9        -0.430924457722     -78.977574925821  DIIS 
           10        -0.430924766626     -78.977575234726  DIIS 
           11        -0.430925370715     -78.977575838815  DIIS 
           12        -0.430925659057     -78.977576127157  DIIS 
           13        -0.430925941063     -78.977576409163  DIIS 
           14        -0.430926058760     -78.977576526860  DIIS 
           15        -0.430926088480     -78.977576556580  DIIS 
           16        -0.430926103317     -78.977576571416  DIIS 
           17        -0.430926109717     -78.977576577817  DIIS 
      -----------------------------------------------------------
      A miracle has come to pass. The CC iterations have converged.
        E(CCSD)           =     -78.977576577817
        E(CCSD + T(CCSD)) =     -78.993386168609
        E(CCSD(T))        =     -78.992965567025
 @CHECKOUT-I, Total execution time (CPU/WALL):      210.23/      17.54 seconds.
--executable xvcc finished with status     0 in       17.56 seconds (walltime).
  The final electronic energy is       -78.992965567024811 a.u. 
  This computation required                           27.80 seconds (walltime).
