CFour on node01
 --invoking executable--
/home/tsommerfeld/zscale/bin/xjoda


   *************************************************************************
         <<<     CCCCCC     CCCCCC   |||     CCCCCC     CCCCCC   >>>
       <<<      CCC        CCC       |||    CCC        CCC         >>>
      <<<      CCC        CCC        |||   CCC        CCC            >>>
    <<<        CCC        CCC        |||   CCC        CCC              >>>
      <<<      CCC        CCC        |||   CCC        CCC            >>>
       <<<      CCC        CCC       |||    CCC        CCC         >>>
         <<<     CCCCCC     CCCCCC   |||     CCCCCC     CCCCCC   >>>
   *************************************************************************

     ****************************************************************
     * CFOUR Coupled-Cluster techniques for Computational Chemistry *
     ****************************************************************
 

   Department of Chemistry                Institut fuer Physikalische Chemie
   University of Florida                  Universitaet Mainz
   Gainesville, FL 32611, USA             D-55099 Mainz, Germany

   Department of Chemistry                Department of Chemistry
   Johns Hopkins University               Southern Methodist University
   Baltimore, MD 21218, USA               Dallas, TX 75275, USA

   Institute of Nanotechnology            Department of Physical Chemistry
   Karlsruhe Inst. of Technology          Eotvos Lorand University
   D-76021 Karlsruhe, Germany             H-1053 Budapest, Hungary

 
                       Version 2.1
 
                     node01                                            
                     Tue May  3 11:36:18 CDT 2022                      
                     integer*8 version is running
 
********************************************************************************
*                          Input from ZMAT file                                *
********************************************************************************
h_ethylene                                                                      
C       0.000000      0.0   -0.664500                                           
C       0.000000      0.0    0.664500                                           
H       0.962348      0.0   -1.159080                                           
H       0.962348      0.0    1.159080                                           
H      -0.962348      0.0   -1.159080                                           
H      -0.962348      0.0    1.159080                                           
H      0.000000      8.666666666666668      0.000000                            
                                                                                
*CFOUR(CALC=CCSD(T)                                                             
#EXCITE=EOMEE                                                                   
#ESTATE_SYM=0/3/0/0                                                             
CC_PROG=VCC                                                                     
CHARGE=-1                                                                       
COORDINATES=CARTESIAN                                                           
BASIS=SPECIAL                                                                   
REFERENCE=RHF                                                                   
MEM_SIZE=90,MEM_UNIT=GB)                                                        
                                                                                
C:cc-pVTZ                                                                       
C:cc-pVTZ                                                                       
H:cc-pVTZ                                                                       
H:cc-pVTZ                                                                       
H:cc-pVTZ                                                                       
H:cc-pVTZ                                                                       
H:aug-cc-pVTZ                                                                   
                                                                                
********************************************************************************
  @GTFLGS-W, Keyword #EXCITE not known and is ignored.
  @GTFLGS-W, Keyword #ESTATE_SYM not known and is ignored.
    -------------------------------------------------------------------
                    CFOUR Control Parameters 
    -------------------------------------------------------------------
        External           Internal           Value            Units
          Name               Name
    -------------------------------------------------------------------
       ABCDTYPE             IABCDT         STANDARD    [  0]    ***   
       ANHARMONIC           IANHAR         OFF         [  0]    ***   
       ANH_ALGORIT          IANALG         STANDARD    [  0]    ***   
       ANH_DERIVAT          IANDER         SECOND      [  1]    ***   
       ANH_MODE             ANHMOD         VIBRATION   [  0]    ***   
       ANH_STEPSIZ          ICUBST             50000          x 10-6  
       ANH_SYMMETR          IANHSM         ABELIAN     [  0]    ***   
       AO_LADDERS           IAOLAD         SINGLEPASS  [  1]    ***   
       AV_SCF               IAVSCF         OFF         [  0]    ***   
       BASIS                IBASIS         SPECIAL     [  0]    ***   
       BOTHVECTORS          BOTHVC         OFF         [  0]    ***   
       BOX_POTENT           IPIAB          OFF         [  0]    ***   
       BREIT                IBREIT         OFF         [  0]    ***   
       BRUCK_CONV           IBRTOL          10D-  4             ***   
       BRUECKNER            IBRKNR         OFF         [  0]    ***   
       BUFFERSIZE           IBUFFS              4096            ***   
       CACHE_RECS           ICHREC             10               ***   
       CALCLEVEL            ICLLVL         CCSD(T)     [ 22]    ***   
       CCORBOPT             ICCORB         OFF         [  0]  x 0.01  
       CC_CONV              ICCCNV          10D-  7             ***   
       CC_EXPORDER          ICCEOR              5               ***   
       CC_EXTRAPOL          ICCEXT         DIIS        [  1]    ***   
       CC_GUESS             ICCGES         MP2         [  0]    ***   
       CC_MAXCYC            ICCCYC            100              cycles 
       CC_PROGRAM           ICCPRO         VCC         [  0]    ***   
       CHARGE               ICHRGE             -1               ***   
       CHOLESKY             ICHOLE         OFF         [  0]    ***   
       CIS_CONV             ICISTL              5               ***   
       COMM_SIZE            IPSIZE            ***               ***   
       CONSTANT             ICONST         OLD         [  1]    ***   
       CONTINUUM            ICONTU         NONE        [  0]    ***   
       CONTRACTION          ICNTYP         GENERAL     [  1]    ***   
       COORDINATES          ICOORD         CARTESIAN   [  1]    ***   
       CPHF_CONVER          ICPHFT          10D- 16             ***   
       CPHF_MAXCYC          ICPHFC             64              cycles 
       CUBIC                ICUBIC         OFF         [  0]    ***   
       CURVILINEAR          ICURVY         OFF         [  0]    ***   
       DBOC                 IDBOC          OFF         [  0]    ***   
       DCT                  IDCT           OFF         [  0]    ***   
       DERIV_LEV            IDRLVL         ZERO        [  0]    ***   
       DEVMEM_SIZE          IDVMEM         *********           MByte  
       DIAG_MRCC            IEOMST          10D-  0             ***   
       DIFF_TYPE            IDIFTY         RELAXED     [  0]    ***   
       DIRECT               IDIRCT         OFF         [  0]    ***   
       DROPMO               IDRPMO      NONE         
       ECP                  IECP           OFF         [  0]    ***   
       EIGENVECTOR          IVEC                1               ***   
       EL_ANHARM            IELANH         OFF         [  0]    ***   
       EOMFOLLOW            IEOMSR         ENERGY      [  0]    ***   
       EOMIP                IEOMIP         OFF         [  0]    ***   
       EOMLEVEL             HBARFM         SAME        [  0]    ***   
       EOM_MRCC             IMRCCE         NEW         [  1]    ***   
       EOM_NONIT            EOMNON         OFF         [  0]    ***   
       EOM_NSING            IEOMSI          10D-  0             ***   
       EOM_NSTATES          IMRCCD         DAVIDSON    [  0]    ***   
       EOM_NTRIP            IEOMTR          10D-  0             ***   
       EOM_ORDER            IEXORD         ENERGY      [  0]    ***   
       EOM_PROPSTA          IEOMST              0               ***   
       ESTATE_CONV          IEXTOL          10D-  5             ***   
       ESTATE_DIAG          IEXDIG         ITERATIVE   [  0]    ***   
       ESTATE_LOCK          IESLOC         ON          [  1]    ***   
       ESTATE_MAXC          IEXMXC             40               ***   
       ESTATE_PROP          IEXPRP         OFF         [  0]    ***   
       EVAL_HESS            IRECAL              0            # of cyc.
       EXCITATION           IEXCIT              0               ***   
       EXCITE               IEXCIT         NONE        [  0]    ***   
       EXTERN_POT           IEXPOT         OFF         [  0]    ***   
       FCGRADNEW            IFCGNW         OFF         [  0]    ***   
       FC_FIELD             IFINFC              0             x 10-6  
       FD_CALTYPE           IFDCAL         GRADONLY    [  0]    ***   
       FD_PROJECT           IFDPRJ         OFF         [  1]    ***   
       FD_STEPSIZE          IDISFD              0            10-4 bohr
       FD_USEGROUP          IFDGRP         FULL        [  0]    ***   
       FILE_RECSIZ          IFLREC              4096           words  
       FINITE_PERT          IFIPER              0             x 10-6  
       FIXGEOM              IFIXGM         OFF         [  0]    ***   
       FOCK                 IFOCK          AO          [  1]    ***   
       FREQ_ALGORI          IVIALG         STANDARD    [  0]    ***   
       FROZEN_CORE          IFROCO         OFF         [  0]    ***   
       GAMMA_ABCD           IGABCD         STORE       [  0]    ***   
       GAMMA_ABCI           IGABCI         STORE       [  0]    ***   
       GENBAS_1             IGNBS1              0               ***   
       GENBAS_2             IGNBS2              0               ***   
       GENBAS_3             IGNBS3              0               ***   
       GENBAS_4             IGNBS4              0               ***   
       GEO_CONV             ICONTL              5              H/bohr 
       GEO_MAXCYC           IOPTCY             50               ***   
       GEO_MAXSTEP          IMXSTP            300            millibohr
       GEO_METHOD           INR            SINGLE_POINT[  5]    ***   
       GIAO                 IGIAO          OFF         [  1]    ***   
       GIMIC                IGIMIC         OFF         [  0]    ***   
       GRID                 IGRID          OFF         [  0]    ***   
       GRID_ALGO            IGALGO         SERIAL      [  0]    ***   
       GUESS                IGUESS         MOREAD      [  0]    ***   
       HBAR                 IHBAR          OFF         [  0]    ***   
       HESS_TYPE            IHESTP         SCF         [  0]    ***   
       HF2_FILE             IHF2Fl         USE         [  1]    ***   
       HFSTABILITY          ISTABL         OFF         [  0]    ***   
       INCORE               INCORE         OFF         [  0]    ***   
       INPUT_MRCC           IMRCC          ON          [  1]    ***   
       INTEGRALS            INTTYP         VMOL        [  1]    ***   
       JODA_PRINT           IJPRNT              0               ***   
       KEYWORD_OUT          IDMPKW         NO          [  0]    ***   
       LINDEP_TOL           ILINDP              8               ***   
       LINEQ_CONV           IZTACN          10D-  7           cycles  
       LINEQ_EXPOR          ILMAXD              5               ***   
       LINEQ_MAXCY          ILMAXC            100               ***   
       LINEQ_TYPE           ILTYPE         DIIS        [  1]    ***   
       LOCK_ORBOCC          ILOCOC         OFF         [  0]    ***   
       MEMORY_SIZE          IMEMSZ         *********           words  
       MEM_UNIT             IMEMU          GB          [  3]    ***   
       MRCC                 IMRCCC         OFF         [  0]    ***   
       MULTIPLICTY          IMULTP              1               ***   
       NACOUPLING           IVCOUP         OFF         [  0]    ***   
       NEGEVAL              IDIE           ABORT       [  0]    ***   
       NEWNORM              INEWNO         OFF         [  0]    ***   
       NON-HF               INONHF         OFF         [  0]    ***   
       NTOP_TAMP            ITOPT2             15               ***   
       NUC_MODEL            INUCMO         POINT       [  0]    ***   
       OCCUPATION           IOCCU   ESTIMATED BY SCF 
       OPEN-SHELL           IOPEN          SPIN-ORBITAL[  0]    ***   
       OPTVIB               IOPTVB         OFF         [  0]    ***   
       ORBITALS             IORBTP         STANDARD    [  0]    ***   
       PARALLEL             IPARAL         ON          [  1]    ***   
       PARA_INT             IPINTS         ON          [  1]    ***   
       PARA_PRINT           IPPRIN              0               ***   
       PERT_ORB             IPTORB         STANDARD    [  0]    ***   
       POINTS               IGRDFD              0               ***   
       PRINT                IPRNT               0               ***   
       PROPS                IPROPS         OFF         [  0]    ***   
       PROP_INTEGR          IINTYP         INTERNAL    [  0]    ***   
       PSI                  IPSI           OFF         [  0]    ***   
       QC_ALG               IQCALG         FLM         [  0]    ***   
       QC_LINALG            IQCLIN         TRIDIAG     [  2]    ***   
       QC_MAXCYC            IQCMAX          10D-100           cycles  
       QC_MAXSCFCY          IQCMSC          10D- 15           cycles  
       QC_RTRUST            IQCRTR          10D-  0           x 10-3  
       QC_SKIPSCF           IQCSKI         OFF         [  0]    ***   
       QC_START             IQCSTA          10D-  1             ***   
       QRHFGUESS            IQGUES         OFF         [  0]    ***   
       QUARTIC              IQUART         OFF         [  0]    ***   
       RAMAN_INT            IRAMIN         OFF         [  0]    ***   
       RAMAN_ORB            IRAMRE         UNRELAXED   [  0]    ***   
       RDO                  IRDOFM         OFF         [  0]    ***   
       REDUCE_REPR          REDREP         Ir          [  0]    ***   
       REFERENCE            IREFNC         RHF         [  0]    ***   
       RELATIVIST           IRELAT         OFF         [  0]    ***   
       RELAX_DENS           IRDENS         OFF         [  0]    ***   
       RESET_FLAGS          IRESET         OFF         [  0]    ***   
       RESTART_CC           ICCRES         OFF         [  0]    ***   
       ROT_EVEC             ROTVEC              0               ***   
       SAVE_INTS            ISVINT         OFF         [  0]    ***   
       SCALE_ON             ISTCRT              0               ***   
       SCF_CONV             ISCFCV          10D-  7             ***   
       SCF_DAMPING          IDAMP               0             x 10-3  
       SCF_EXPORDE          IRPPOR              6               ***   
       SCF_EXPSTAR          IRPPLS              8               ***   
       SCF_EXTRAPO          IRPP           ON          [  1]    ***   
       SCF_MAXCYC           ISCFCY            150              cycles 
       SCF_NOSTOP           ISCFST         OFF         [  0]    ***   
       SCF_PRINT            ISCFPR              0               ***   
       SCF_PROG             ISCFPR         SCF         [  0]    ***   
       SD_FIELD             IFINSD              0             x 10-6  
       SOPERT               IPERSO         OFF         [  0]    ***   
       SPHERICAL            IDFGHI         ON          [  1]    ***   
       SPINORBIT            ISOCAL         OFF         [  0]    ***   
       SPINROTATIO          ISRCON         OFF         [  0]    ***   
       SPIN_FLIP            ISPFLP         OFF         [  0]    ***   
       SPIN_ORBIT           ISPORB         OFF         [  0]    ***   
       SPIN_SCAL            ISCSMP         OFF         [  0]    ***   
       STEEPSCALE           ISTPSC              1000          x 10-3  
       SUBGROUP             ISUBGP         DEFAULT     [  0]    ***   
       SUBGRPAXIS           ISBXYZ         X           [  0]    ***   
       SYMMETRY             ISYM           ON          [  0]    ***   
       SYM_CHECK            ISYMCK         OVERRIDE    [  1]    ***   
       T3_EXTRAPOL          IT3EXT         OFF         [  0]    ***   
       T4_EXTRAPOL          IT4EXP         OFF         [  0]    ***   
       TAMP_SUM             IEVERY              5               ***   
       TESTSUITE            ITESTS         OFF         [  0]    ***   
       THERMOCH             ITHERM         OFF         [  0]    ***   
       TOL_CHOLESK          ITOLCH          10D-  4             ***   
       TRANGRAD             IRESRM         OFF         [  0]    ***   
       TRANS_INV            ITRAIN         USE         [  0]    ***   
       TREAT_PERT           ITREAT         SIMULTANEOUS[  0]    ***   
       TRIP_ALGORI          ITRALG         NORMAL      [  0]    ***   
       UIJ_THRESHO          IUIJTH              1               ***   
       UNITS                IUNITS         ANGSTROM    [  0]    ***   
       UNOS                 IUNOS          OFF         [  0]    ***   
       UPDATE_HESS          IHUPDT         ON          [  1]    ***   
       VIBPHASE             ISETPH         STANDARD    [  0]    ***   
       VIBRATION            IVIB           NO          [  0]    ***   
       VIB_ALGORIT          IGEALG         STANDARD    [  0]    ***   
       VNATORB              IVNORB         OFF         [  0]    ***   
       VTRAN                IVTRAN         FULL/PARTIAL[  0]    ***   
       XFIELD               IXEFLD              0             x 10-6  
       XFORM_TOL            IXFTOL          10D- 11             ***   
       YFIELD               IYEFLD              0             x 10-6  
       ZFIELD               IZEFLD              0             x 10-6  
       ZSCALE_EXP           IZEXPS         OFF         [  0]    ***   
    -------------------------------------------------------------------
  @GETXYZ-I,     7 atoms read from ZMAT.
   Rotational constants (in cm-1): 
          0.1892307913             0.2194857955             0.8536890782
   Rotational constants (in MHz): 
       5672.9972000663          6580.0195342288         25592.9582983935
********************************************************************************
   The full molecular point group is C2v .
   The largest Abelian subgroup of the full molecular point group is C2v .
   The computational point group is C2v .
********************************************************************************


 ----------------------------------------------------------------
         Coordinates used in calculation (QCOMP) 
 ----------------------------------------------------------------
 Z-matrix   Atomic            Coordinates (in bohr)
  Symbol    Number           X              Y              Z
 ----------------------------------------------------------------
     C         6        -1.25572327     0.00000000    -0.56839816
     C         6         1.25572327     0.00000000    -0.56839816
     H         1        -2.19034422     1.81857454    -0.56839816
     H         1         2.19034422     1.81857454    -0.56839816
     H         1        -2.19034422    -1.81857454    -0.56839816
     H         1         2.19034422    -1.81857454    -0.56839816
     H         1         0.00000000     0.00000000    15.80923168
 ----------------------------------------------------------------
 
   Interatomic distance matrix (Angstroms) 
 
                 C             C             H             H             H    
                [ 1]        [ 2]        [ 3]        [ 4]        [ 5]
  C    [ 1]     0.00000
  C    [ 2]     1.32900     0.00000
  H    [ 3]     1.08200     2.06193     0.00000
  H    [ 4]     2.06193     1.08200     2.31816     0.00000
  H    [ 5]     1.08200     2.06193     1.92470     3.01303     0.00000
  H    [ 6]     2.06193     1.08200     3.01303     1.92470     2.31816
  H    [ 7]     8.69211     8.69211     8.79663     8.79663     8.79663
 
                 H             H    
                [ 6]        [ 7]
  H    [ 6]     0.00000
  H    [ 7]     8.79663     0.00000
 rotcon2
   Rotational constants (in cm-1): 
          0.2194857955             0.1892307913             0.8536890782
   Rotational constants (in MHz): 
       6580.0195342288          5672.9972000663         25592.9582983935
  ECPDATA file not present.   Using default ECPDATA. 
  @GTFLGS-W, Keyword #EXCITE not known and is ignored.
  @GTFLGS-W, Keyword #ESTATE_SYM not known and is ignored.
  There are  139 basis functions.
 @GEOPT-W, Archive file not created for single-point calculation.
 @CHECKOUT-I, Total execution time (CPU/WALL):        0.15/       0.18 seconds.
--executable xjoda finished with status     0 in        0.20 seconds (walltime).
 --invoking executable--
/home/tsommerfeld/zscale/bin/xvmol
 SERIAL VERSION OF MOLECULE STARTED
********************************************************************************
                    INPUT FROM MOL FILE
********************************************************************************
INTGRL        1    0    1    0    0    0    0    0    0                         
         *** CFOUR Program System (Release V0.1) ***                            
h_ethylene                                                                      
    3    2 X  Y       0.10E-08              0    0                              
   9999.00      3.00                                                            
          6.00000000    1    4    1    1    1    1                              
C #1  -1.255723272983657   0.000000000000000  -0.568398161896304                
   10    4                                                                      
   8236.00000000000       5.310000000000000E-004  0.000000000000000E+000        
 -1.130000000000000E-004  0.000000000000000E+000                                
   1235.00000000000       4.108000000000000E-003  0.000000000000000E+000        
 -8.780000000000000E-004  0.000000000000000E+000                                
   280.800000000000       2.108700000000000E-002  0.000000000000000E+000        
 -4.540000000000000E-003  0.000000000000000E+000                                
   79.2700000000000       8.185300000000000E-002  0.000000000000000E+000        
 -1.813300000000000E-002  0.000000000000000E+000                                
   25.5900000000000       0.234817000000000       0.000000000000000E+000        
 -5.576000000000000E-002  0.000000000000000E+000                                
   8.99700000000000       0.434401000000000       0.000000000000000E+000        
 -0.126895000000000       0.000000000000000E+000                                
   3.31900000000000       0.346129000000000       0.000000000000000E+000        
 -0.170352000000000       0.000000000000000E+000                                
  0.905900000000000       3.937800000000000E-002   1.00000000000000             
  0.140382000000000       0.000000000000000E+000                                
  0.364300000000000      -8.983000000000000E-003  0.000000000000000E+000        
  0.598684000000000       0.000000000000000E+000                                
  0.128500000000000       2.385000000000000E-003  0.000000000000000E+000        
  0.395389000000000        1.00000000000000                                     
    5    3                                                                      
   18.7100000000000       0.000000000000000E+000  1.403100000000000E-002        
  0.000000000000000E+000                                                        
   4.13300000000000       0.000000000000000E+000  8.686600000000000E-002        
  0.000000000000000E+000                                                        
   1.20000000000000       0.000000000000000E+000  0.290216000000000             
  0.000000000000000E+000                                                        
  0.382700000000000        1.00000000000000       0.501008000000000             
  0.000000000000000E+000                                                        
  0.120900000000000       0.000000000000000E+000  0.343406000000000             
   1.00000000000000                                                             
    2    2                                                                      
   1.09700000000000        1.00000000000000       0.000000000000000E+000        
  0.318000000000000       0.000000000000000E+000   1.00000000000000             
    1    1                                                                      
  0.761000000000000        1.00000000000000                                     
          1.00000000    1    3    1    1    1                                   
H #2  -2.190344215575466   1.818574537711477  -0.568398161896304                
    5    3                                                                      
   33.8700000000000       0.000000000000000E+000  6.068000000000000E-003        
  0.000000000000000E+000                                                        
   5.09500000000000       0.000000000000000E+000  4.530800000000000E-002        
  0.000000000000000E+000                                                        
   1.15900000000000       0.000000000000000E+000  0.202822000000000             
  0.000000000000000E+000                                                        
  0.325800000000000        1.00000000000000       0.503903000000000             
  0.000000000000000E+000                                                        
  0.102700000000000       0.000000000000000E+000  0.383421000000000             
   1.00000000000000                                                             
    2    2                                                                      
   1.40700000000000        1.00000000000000       0.000000000000000E+000        
  0.388000000000000       0.000000000000000E+000   1.00000000000000             
    1    1                                                                      
   1.05700000000000        1.00000000000000                                     
          1.00000000    1    3    1    1    1                                   
H #3   0.000000000000000   0.000000000000000  15.809231683890047                
    6    4                                                                      
   33.8700000000000       0.000000000000000E+000  6.068000000000000E-003        
  0.000000000000000E+000  0.000000000000000E+000                                
   5.09500000000000       0.000000000000000E+000  4.530800000000000E-002        
  0.000000000000000E+000  0.000000000000000E+000                                
   1.15900000000000       0.000000000000000E+000  0.202822000000000             
  0.000000000000000E+000  0.000000000000000E+000                                
  0.325800000000000        1.00000000000000       0.503903000000000             
  0.000000000000000E+000  0.000000000000000E+000                                
  0.102700000000000       0.000000000000000E+000  0.383421000000000             
   1.00000000000000       0.000000000000000E+000                                
  2.526000000000000E-002  0.000000000000000E+000  0.000000000000000E+000        
  0.000000000000000E+000   1.00000000000000                                     
    3    3                                                                      
   1.40700000000000        1.00000000000000       0.000000000000000E+000        
  0.000000000000000E+000                                                        
  0.388000000000000       0.000000000000000E+000   1.00000000000000             
  0.000000000000000E+000                                                        
  0.102000000000000       0.000000000000000E+000  0.000000000000000E+000        
   1.00000000000000                                                             
    2    2                                                                      
   1.05700000000000        1.00000000000000       0.000000000000000E+000        
  0.247000000000000       0.000000000000000E+000   1.00000000000000             
FINISH                                                                          
 
********************************************************************************
 ONE- AND TWO-ELECTRON INTEGRALS OVER SYMMETRY-ADAPTED AOS ARE CALCULATED.

  SPHERICAL HARMONICS ARE USED.
  
  INTEGRALS LESS THAN  0.10E-13 ARE NEGLECTED.

  NUCLEAR REPULSION ENERGY :   34.5604052214 A.U.
  @MOLECU-I, ONE ELECTRON INTEGRALS (CPU/WALL):        0.04/       0.04 SECONDS.
  @TWOEL-I,     450213 INTEGRALS OF SYMMETRY TYPE  I I I I
  @TWOEL-I,    1851667 INTEGRALS OF SYMMETRY TYPE  I J I J
  @TWOEL-I,    1073751 INTEGRALS OF SYMMETRY TYPE  I I J J
  @TWOEL-I,    1616364 INTEGRALS OF SYMMETRY TYPE  I J K L
  @TWOEL-I, TOTAL NUMBER OF 2-E INTEGRALS    4991995.
  @MOLECU-I, TWO ELECTRON INTEGRALS (CPU/WALL):       32.60/       3.71 SECONDS.
 @CHECKOUT-I, Total execution time (CPU/WALL):       32.66/       3.76 seconds.

Running with 12 threads/proc

--executable xvmol finished with status     0 in        3.79 seconds (walltime).
 --invoking executable--
/home/tsommerfeld/zscale/bin/xvmol2ja
 @GETMEM-I,  Allocated   85830 MB of main memory.
 @CHECKOUT-I, Total execution time (CPU/WALL):        0.11/       0.02 seconds.
--executable xvmol2ja finished with status     0 in        0.03 seconds (walltime).
 --invoking executable--
/home/tsommerfeld/zscale/bin/xvscf
  There are  139 functions in the AO basis.

  There are 4 irreducible representations.

       Irrep        # of functions
         1                 45
         2                 39
         3                 29
         4                 26


  Parameters for SCF calculation: 
        SCF reference function:  RHF  
  Maximum number of iterations:  150
     Full symmetry point group: C2v 
     Computational point group: C2v 
        Initial density matrix: MOREAD                 
     SCF convergence tolerance: 10**(- 7)
  DIIS convergence acceleration:  ON
          Latest start for DIIS:   8
                     DIIS order:   6

  Memory information:     823082 words required.
  Fock matrices are constructed from AO integral file.
 @GETMEM-I,  Allocated       6 MB of main memory.
  Initialization and symmetry analysis required      0.001 seconds.

  @INITGES-I, Occupancies from core Hamiltonian:

          Alpha population by irrep:   4    3    1    1
           Beta population by irrep:   4    3    1    1


 total no. of electrons in initial guess :  0.000000000000000E+000
  --------------------------------------------------------------------
  Iteration         Total Energy            Largest Density Difference
  --------------------------------------------------------------------
       0            34.560405221365194              0.0000000000D+00
   current occupation vector 
     4  3  1  1
     4  3  1  1
       1           -51.692967276727849              0.8749622356D+01
   current occupation vector 
     4  3  1  1
     4  3  1  1
       2           -40.873798935905846              0.3169387641D+02
   current occupation vector 
     5  3  1  0
     5  3  1  0
       3           -67.969034584052878              0.3143202089D+02
   current occupation vector 
     4  3  1  1
     4  3  1  1
       4           -42.956183246776128              0.1243471143D+02
   current occupation vector 
     6  2  1  0
     6  2  1  0
       5           -68.628224830352536              0.1243471142D+02
   current occupation vector 
     4  3  1  1
     4  3  1  1
       6           -43.234192205390421              0.1243467398D+02
   current occupation vector 
     6  2  1  0
     6  2  1  0
       7           -68.720246954171103              0.1243467398D+02
   current occupation vector 
     4  3  1  1
     4  3  1  1
       8           -43.271539042422525              0.1243466839D+02
   current occupation vector 
     6  2  1  0
     6  2  1  0
       9           -73.513934142389360              0.1243466846D+02
   current occupation vector 
     4  3  1  1
     4  3  1  1
      10           -75.760018393086938              0.9171241548D+00
   current occupation vector 
     4  3  1  1
     4  3  1  1
      11           -77.541860522969728              0.9017275149D+00
   current occupation vector 
     4  3  1  1
     4  3  1  1
      12           -76.516785245771104              0.2834259557D+01
   current occupation vector 
     5  2  1  1
     5  2  1  1
      13           -78.379281828083606              0.2824195124D+01
   current occupation vector 
     5  2  1  1
     5  2  1  1
      14           -78.421956573774395              0.2668564220D+00
   current occupation vector 
     5  2  1  1
     5  2  1  1
      15           -78.479526323758336              0.2469821909D+00
   current occupation vector 
     5  2  1  1
     5  2  1  1
      16           -78.545090152243887              0.3712379224D+00
   current occupation vector 
     5  2  1  1
     5  2  1  1
      17           -78.546745269071977              0.7581798199D-01
   current occupation vector 
     5  2  1  1
     5  2  1  1
      18           -78.546805957915154              0.2077744415D-01
   current occupation vector 
     5  2  1  1
     5  2  1  1
      19           -78.546805989292039              0.2055052645D-03
   current occupation vector 
     5  2  1  1
     5  2  1  1
      20           -78.546805991330217              0.6323929488D-04
   current occupation vector 
     5  2  1  1
     5  2  1  1
      21           -78.546805991491965              0.1413680161D-04
   current occupation vector 
     5  2  1  1
     5  2  1  1
      22           -78.546805991496655              0.1896638932D-05
   current occupation vector 
     5  2  1  1
     5  2  1  1
      23           -78.546805991496825              0.5566891404D-06
   current occupation vector 
     5  2  1  1
     5  2  1  1
      24           -78.546805991496882              0.1786660898D-06
   current occupation vector 
     5  2  1  1
     5  2  1  1

  SCF has converged.

 Density matrix saved to file den.dat
 total electron number:   18.0000000000000     
     E(SCF)=       -78.546805991496313              0.1302462020D-07


  Final occupancies:

     Alpha population by irrep:   5    2    1    1
      Beta population by irrep:   5    2    1    1


  Eigenvector printing suppressed.

 @PUTMOS-I, Writing converged MOs to NEWMOS. 
 @PUTMOS-I, Symmetry   1 Full Blocks 11 Partial Blocksize   1
 @PUTMOS-I, Symmetry   2 Full Blocks  9 Partial Blocksize   3
 @PUTMOS-I, Symmetry   3 Full Blocks  7 Partial Blocksize   1
 @PUTMOS-I, Symmetry   4 Full Blocks  6 Partial Blocksize   2
 @PUTFOCK-I, Writing converged Fock matrix to NEWFOCK. 
 @PUTFOCK-I, Symmetry   1 Full Blocks 11 Partial Blocksize   1
 @PUTFOCK-I, Symmetry   2 Full Blocks  9 Partial Blocksize   3
 @PUTFOCK-I, Symmetry   3 Full Blocks  7 Partial Blocksize   1
 @PUTFOCK-I, Symmetry   4 Full Blocks  6 Partial Blocksize   2


 
  ORBITAL EIGENVALUES (ALPHA)  (1H = 27.2113834 eV)

       MO #        E(hartree)               E(eV)           FULLSYM    COMPSYM
       ----   --------------------   --------------------   -------   ---------
    1     1         -11.1655326211        -303.8295890168      A1        A1 (1)
    2    46         -11.1637685948        -303.7815874209      B1        B1 (2)
    3     2          -0.9772560802         -26.5924898784      A1        A1 (1)
    4    47          -0.7193429510         -19.5743168364      B1        B1 (2)
    5    85          -0.5986494783         -16.2900804764      B2        B2 (3)
    6     3          -0.5056907743         -13.7605455409      A1        A1 (1)
    7   114          -0.4542380723         -12.3604463398      A2        A2 (4)
    8     4          -0.3158141941          -8.5937411197      A1        A1 (1)
    9     5          -0.0453461611          -1.2339317741      A1        A1 (1)
  +++++++++++++++++++++++++++++++++++++++++++++++++++++++++++++++++++++++++++++
   10    48           0.2156169543           5.8672356107      B1        B1 (2)
   11     6           0.2173035558           5.9131303714      A1        A1 (1)
   12     7           0.2425285154           6.5995364182      A1        A1 (1)
   13    86           0.2446658416           6.6576960198      B2        B2 (3)
   14    49           0.2521956999           6.8625938827      B1        B1 (2)
   15   115           0.2987746252           8.1300708754      A2        A2 (4)
   16    50           0.4149835091          11.2922753716      B1        B1 (2)
   17     8           0.4204726700          11.4416430339      A1        A1 (1)
   18    87           0.4495857754          12.2338509059      E         B2 (3)
   19    51           0.4495899585          12.2339647331      E         B1 (2)
   20     9           0.4496698167          12.2361377862      A1        A1 (1)
   21    10           0.5076684771          13.8143615718      A1        A1 (1)
   22    88           0.5321124228          14.4795151484      B2        B2 (3)
   23    11           0.5409521798          14.7200571648      A1        A1 (1)
   24    52           0.6261867654          17.0394081530      B1        B1 (2)
   25    53           0.6501629709          17.6918338729      B1        B1 (2)
   26    89           0.6570472690          17.8791651489      B2        B2 (3)
   27    12           0.6859383081          18.6653302912      A1        A1 (1)
   28    54           0.6996241423          19.0377407711      B1        B1 (2)
   29    90           0.7281279181          19.8133679427      B2        B2 (3)
   30   116           0.7540647957          20.5191462644      A2        A2 (4)
   31    13           0.7832233763          21.3125915805      A1        A1 (1)
   32    55           0.8455526903          23.0086584415      B1        B1 (2)
   33   117           0.8891026380          24.1937127650      A2        A2 (4)
   34    14           0.9570664967          26.0431033816      A1        A1 (1)
   35   118           0.9646936006          26.2506474285      A2        A2 (4)
   36    15           1.0466456665          28.4806765143      A1        A1 (1)
   37   119           1.0819707360          29.4419205247      A2        A2 (4)
   38    91           1.0979415234          29.8765077449      B2        B2 (3)
   39    16           1.1022981103          29.9950565003      E         A1 (1)
   40   120           1.1022981152          29.9950566341      E         A2 (4)
   41    92           1.1023259133          29.9958130576      E         B2 (3)
   42    56           1.1023276226          29.9958595707      E         B1 (2)
   43    17           1.1023400110          29.9961966775      A1        A1 (1)
   44    18           1.2428183263          33.8188059724      A1        A1 (1)
   45    57           1.2433038223          33.8320169922      B1        B1 (2)
   46    19           1.2896978709          35.0944632343      A1        A1 (1)
   47    93           1.3150797907          35.7851403855      B2        B2 (3)
   48    94           1.3385881032          36.4248340897      E         B2 (3)
   49    58           1.3385897129          36.4248778918      E         B1 (2)
   50    20           1.3386204519          36.4257143443      A1        A1 (1)
   51    59           1.3822848378          37.6138826886      B1        B1 (2)
   52    95           1.4058126148          38.2541060486      B2        B2 (3)
   53    60           1.4249216462          38.7740892289      B1        B1 (2)
   54    96           1.5241430329          41.4740404258      B2        B2 (3)
   55    61           1.5387126878          41.8705008900      B1        B1 (2)
   56    21           1.5679288895          42.6655141568      A1        A1 (1)
   57    62           1.5935112395          43.3616452908      B1        B1 (2)
   58   121           1.6578720816          45.1129928408      A2        A2 (4)
   59   122           1.6968387783          46.1733305644      A2        A2 (4)
   60    63           1.8605964492          50.6294033318      B1        B1 (2)
   61    22           1.9126676109          52.0463316757      A1        A1 (1)
   62   123           2.0310143568          55.2667103533      A2        A2 (4)
   63    23           2.3470280479          63.8658800627      A1        A1 (1)
   64    24           2.4252833690          65.9953156077      A1        A1 (1)
   65    25           2.6087063905          70.9865097687      A1        A1 (1)
   66    64           2.6253918500          71.4405442053      B1        B1 (2)
   67    97           2.6846075424          73.0518851140      B2        B2 (3)
   68    98           2.7695978183          75.3645880965      B2        B2 (3)
   69    65           2.8019221999          76.2441792391      B1        B1 (2)
   70    26           2.8224973907          76.8040586430      A1        A1 (1)
   71   124           2.9023669158          78.9774189133      A2        A2 (4)
   72    99           2.9768038737          81.0029515131      B2        B2 (3)
   73    27           2.9768943173          81.0054126090      A1        A1 (1)
   74   125           3.1254809079          85.0486592944      A2        A2 (4)
   75    28           3.1574142151          85.9176087609      A1        A1 (1)
   76   100           3.1676231455          86.1954078777      B2        B2 (3)
   77    29           3.1697926779          86.2544438575      A1        A1 (1)
   78   101           3.1818069331          86.5813683601      B2        B2 (3)
   79   126           3.2140069285          87.4575747828      A2        A2 (4)
   80    30           3.2394826653          88.1508048232      A1        A1 (1)
   81    66           3.2897698509          89.5191887112      B1        B1 (2)
   82    67           3.3271550609          90.5364919946      B1        B1 (2)
   83   102           3.3987843465          92.4856239454      B2        B2 (3)
   84    68           3.4630437998          94.2342125671      B1        B1 (2)
   85    69           3.4867912345          94.8804131190      B1        B1 (2)
   86   127           3.4874514482          94.8983784459      A2        A2 (4)
   87   128           3.5085003037          95.4711469236      A2        A2 (4)
   88    70           3.5144649118          95.6334521605      B1        B1 (2)
   89    31           3.6114375603          98.2722120795      A1        A1 (1)
   90    32           3.6371386952          98.9715755132      A1        A1 (1)
   91   103           3.7027269155         100.7563217233      B2        B2 (3)
   92   104           3.7835747343         102.9563027165      B2        B2 (3)
   93   129           3.8769714075         105.4977553991      A2        A2 (4)
   94    71           3.9371930467         107.1364695132      B1        B1 (2)
   95   130           3.9730306366         108.1116599136      A2        A2 (4)
   96    72           4.0294769651         109.6476425987      B1        B1 (2)
   97   131           4.0380376342         109.8805902478      A2        A2 (4)
   98    33           4.0679801339         110.6953670873      A1        A1 (1)
   99   105           4.0727232718         110.8244344312      B2        B2 (3)
  100    34           4.1181528951         112.0606373296      A1        A1 (1)
  101    35           4.2163757522         114.7334171525                A1 (1)
  102   132           4.2163757545         114.7334172140                A2 (4)
  103   106           4.2163824767         114.7336001338                B2 (3)
  104    73           4.2163828697         114.7336108290                B1 (2)
  105    36           4.2163855794         114.7336845633                A1 (1)
  106    74           4.2456186252         115.5291561796      B1        B1 (2)
  107   133           4.2525159881         115.7168429678      A2        A2 (4)
  108    37           4.2537581573         115.7506441104      A1        A1 (1)
  109   107           4.2632838530         116.0098514666      B2        B2 (3)
  110    38           4.3905664838         119.4733879327      A1        A1 (1)
  111    75           4.4114116042         120.0406124982      B1        B1 (2)
  112   108           4.4444555878         120.9397850049                B2 (3)
  113    76           4.4444560534         120.9397976746                B1 (2)
  114    39           4.4444649475         120.9400396941                A1 (1)
  115   109           4.5308696366         123.2912308183      B2        B2 (3)
  116    77           4.5669900911         124.2741183540      B1        B1 (2)
  117   134           4.6676042185         127.0119679495      A2        A2 (4)
  118    40           4.7025255301         127.9622251485      A1        A1 (1)
  119    78           4.8189458783         131.1301838793      B1        B1 (2)
  120    79           4.8746715102         132.6465554127      B1        B1 (2)
  121    41           4.9892750593         135.7650765262      A1        A1 (1)
  122    42           5.0352047903         137.0148880464      A1        A1 (1)
  123   135           5.0890489491         138.4800620943      A2        A2 (4)
  124   110           5.1883725135         141.1827936859      B2        B2 (3)
  125   111           5.2778550421         143.6177370811      B2        B2 (3)
  126    43           5.3603670147         145.8630020028      A1        A1 (1)
  127    80           5.3656413908         146.0065250712      B1        B1 (2)
  128   136           5.4879286728         149.3341311861      A2        A2 (4)
  129   137           5.5034182338         149.7556235701      A2        A2 (4)
  130    81           5.5985989692         152.3456230542      B1        B1 (2)
  131    44           5.6239343133         153.0350328159      A1        A1 (1)
  132   112           5.6785410828         154.5209585559      B2        B2 (3)
  133    82           6.0180862275         163.7604516710      B1        B1 (2)
  134   138           6.1539283935         167.4569049316      A2        A2 (4)
  135   113           6.3317001345         172.2943199351      B2        B2 (3)
  136    83           6.5710021836         178.8060597409      B1        B1 (2)
  137   139           6.9344730915         188.6966059705      A2        A2 (4)
  138    45          11.9580222646         325.3943285483      A1        A1 (1)
  139    84          14.8103536343         403.0102110328      B1        B1 (2)


  VSCF finished.

 @CHECKOUT-I, Total execution time (CPU/WALL):       15.42/       1.30 seconds.
--executable xvscf finished with status     0 in        1.32 seconds (walltime).
 --invoking executable--
/home/tsommerfeld/zscale/bin/xvtran
 @GETMEM-I,  Allocated   85830 MB of main memory.
  Full RHF integral transformation
  Transformation of IIII integrals :
  1 pass through the AO integral file was required.
      450213 AO integrals were read.
      996981 MO integrals were written to HF2.
  Transformation of IIJJ integrals :
  1 pass through the AO integral file was required.
     1073751 AO integrals were read.
     2385946 MO integrals were written to HF2.
  Transformation of IJIJ integrals :
  1 pass through the AO integral file was required.
     1851667 AO integrals were read.
     4516032 MO integrals were written to HF2.
  Transformation of IJKL integrals :
  1 pass through the AO integral file was required.
     1616364 AO integrals were read.
     3968144 MO integrals were written to HF2.
  Summary of active molecular orbitals: 
------------------------------------------------------------------------
 
  Index      Eigenvalue    Symmetry    Index      Eigenvalue    Symmetry
------------------------------------------------------------------------
     1       -11.1655326        1        71         3.4867912        2
     2        -0.9772561        1        72         3.5144649        2
     3        -0.5056908        1        73         3.9371930        2
     4        -0.3158142        1        74         4.0294770        2
     5        -0.0453462        1        75         4.2163829        2
     6       -11.1637686        2        76         4.2456186        2
     7        -0.7193430        2        77         4.4114116        2
     8        -0.5986495        3        78         4.4444561        2
     9        -0.4542381        4        79         4.5669901        2
    10         0.2173036        1        80         4.8189459        2
    11         0.2425285        1        81         4.8746715        2
    12         0.4204727        1        82         5.3656414        2
    13         0.4496698        1        83         5.5985990        2
    14         0.5076685        1        84         6.0180862        2
    15         0.5409522        1        85         6.5710022        2
    16         0.6859383        1        86        14.8103536        2
    17         0.7832234        1        87         0.2446658        3
    18         0.9570665        1        88         0.4495858        3
    19         1.0466457        1        89         0.5321124        3
    20         1.1022981        1        90         0.6570473        3
    21         1.1023400        1        91         0.7281279        3
    22         1.2428183        1        92         1.0979415        3
    23         1.2896979        1        93         1.1023259        3
    24         1.3386205        1        94         1.3150798        3
    25         1.5679289        1        95         1.3385881        3
    26         1.9126676        1        96         1.4058126        3
    27         2.3470280        1        97         1.5241430        3
    28         2.4252834        1        98         2.6846075        3
    29         2.6087064        1        99         2.7695978        3
    30         2.8224974        1       100         2.9768039        3
    31         2.9768943        1       101         3.1676231        3
    32         3.1574142        1       102         3.1818069        3
    33         3.1697927        1       103         3.3987843        3
    34         3.2394827        1       104         3.7027269        3
    35         3.6114376        1       105         3.7835747        3
    36         3.6371387        1       106         4.0727233        3
    37         4.0679801        1       107         4.2163825        3
    38         4.1181529        1       108         4.2632839        3
    39         4.2163758        1       109         4.4444556        3
    40         4.2163856        1       110         4.5308696        3
    41         4.2537582        1       111         5.1883725        3
    42         4.3905665        1       112         5.2778550        3
    43         4.4444649        1       113         5.6785411        3
    44         4.7025255        1       114         6.3317001        3
    45         4.9892751        1       115         0.2987746        4
    46         5.0352048        1       116         0.7540648        4
    47         5.3603670        1       117         0.8891026        4
    48         5.6239343        1       118         0.9646936        4
    49        11.9580223        1       119         1.0819707        4
    50         0.2156170        2       120         1.1022981        4
    51         0.2521957        2       121         1.6578721        4
    52         0.4149835        2       122         1.6968388        4
    53         0.4495900        2       123         2.0310144        4
    54         0.6261868        2       124         2.9023669        4
    55         0.6501630        2       125         3.1254809        4
    56         0.6996241        2       126         3.2140069        4
    57         0.8455527        2       127         3.4874514        4
    58         1.1023276        2       128         3.5085003        4
    59         1.2433038        2       129         3.8769714        4
    60         1.3385897        2       130         3.9730306        4
    61         1.3822848        2       131         4.0380376        4
    62         1.4249216        2       132         4.2163758        4
    63         1.5387127        2       133         4.2525160        4
    64         1.5935112        2       134         4.6676042        4
    65         1.8605964        2       135         5.0890489        4
    66         2.6253918        2       136         5.4879287        4
    67         2.8019222        2       137         5.5034182        4
    68         3.2897699        2       138         6.1539284        4
    69         3.3271551        2       139         6.9344731        4
    70         3.4630438        2
------------------------------------------------------------------------
  -11.1655326210568      -0.977256080201890      -0.505690774283032     
 -0.315814194131760      -4.534616105045285E-002  -11.1637685947590     
 -0.719342951022506      -0.598649478307713      -0.454238072282735     
  0.217303555810812       0.242528515409222       0.420472670048448     
  0.449669816721760       0.507668477147365       0.540952179770167     
  0.685938308128330       0.783223376306709       0.957066496723799     
   1.04664566647266        1.10229811029548        1.10234001103835     
   1.24281832625801        1.28969787086428        1.33862045192247     
   1.56792888952402        1.91266761085385        2.34702804792837     
   2.42528336900798        2.60870639045518        2.82249739066823     
   2.97689431728897        3.15741421514303        3.16979267792429     
   3.23948266530414        3.61143756033880        3.63713869516843     
   4.06798013390481        4.11815289514374        4.21637575223546     
   4.21638557939887        4.25375815734458        4.39056648375778     
   4.44446494749355        4.70252553012512        4.98927505928209     
   5.03520479030000        5.36036701473999        5.62393431331147     
   11.9580222646206       0.215616954290744       0.252195699933298     
  0.414983509128798       0.449589958483014       0.626186765390364     
  0.650162970870918       0.699624142265536       0.845552690330229     
   1.10232762259019        1.24330382233406        1.33858971285686     
   1.38228483777016        1.42492164617118        1.53871268779525     
   1.59351123952223        1.86059644919810        2.62539184998981     
   2.80192219992414        3.28976985092188        3.32715506094399     
   3.46304379979167        3.48679123454665        3.51446491178918     
   3.93719304668656        4.02947696509694        4.21638286971308     
   4.24561862516598        4.41141160423952        4.44445605343973     
   4.56699009113852        4.81894587833814        4.87467151018641     
   5.36564139077278        5.59859896921834        6.01808622750872     
   6.57100218362480        14.8103536343098       0.244665841569981     
  0.449585775411321       0.532112422789134       0.657047269008490     
  0.728127918066441        1.09794152343211        1.10232591326563     
   1.31507979066900        1.33858810315744        1.40581261475308     
   1.52414303294254        2.68460754237000        2.76959781825928     
   2.97680387367146        3.16762314545464        3.18180693305453     
   3.39878434645690        3.70272691550578        3.78357473426090     
   4.07272327180482        4.21638247667474        4.26328385298428     
   4.44445558783829        4.53086963664873        5.18837251346365     
   5.27785504213151        5.67854108277148        6.33170013454973     
  0.298774625157940       0.754064795704495       0.889102638015238     
  0.964693600566247        1.08197073599334        1.10229811521000     
   1.65787208160793        1.69683877830381        2.03101435678165     
   2.90236691579864        3.12548090790719        3.21400692854023     
   3.48745144820039        3.50850030372196        3.87697140745617     
   3.97303063664002        4.03803763420017        4.21637575449404     
   4.25251598813749        4.66760421851445        5.08904894906268     
   5.48792867275287        5.50341823378505        6.15392839349713     
   6.93447309152639     
 @CHECKOUT-I, Total execution time (CPU/WALL):       16.58/       1.89 seconds.
--executable xvtran finished with status     0 in        1.91 seconds (walltime).
 --invoking executable--
/home/tsommerfeld/zscale/bin/xintprc
 @GETMEM-I,  Allocated   85830 MB of main memory.
  @GMOIAA-I, Processing MO integrals for spin case AA.
  @GMOIAA-I, Generation of integral list completed.
                      TYPE                NUMBER
                      ----               --------
                      PPPP               9081220
                      PPPH               2500708
                      PPHH                173503
                      PHPH                 97627
                      PHHH                 13713
                      HHHH                   332

                     TOTAL              11867103

  @FORMT2-I, Second-order MP correlation energies:
            ------------------------------------------------
            E(SCF)                  =    -78.546805991496 a.u.
            E2(AA)                  =     -0.037951373019 a.u.
            E2(AB)                  =     -0.319241402415 a.u.
            E2(TOT)                 =     -0.395144148453 a.u.
            Total MP2 energy        =    -78.941950139949 a.u.
            ------------------------------------------------
   Largest T2 amplitudes for spin case AB:
       _       _                 _       _                 _       _
   i   j   a   b             i   j   a   b             i   j   a   b
-----------------------------------------------------------------------------
[  4   4  50  50]-0.08269 [  5   5  11  11]-0.08188 [  5   5  17  17]-0.04762
[  5   5  17  11] 0.04313 [  5   5  11  17] 0.04313 [  5   5  88  88]-0.04090
[  5   5  53  53]-0.04090 [  5   5  13  13]-0.04089 [  4   4  54  50]-0.03704
[  4   4  50  54]-0.03704 [  4   4  14  14]-0.03056 [  4   4  15  15]-0.02689
[  4   4  54  54]-0.02651 [  4   3  50  57] 0.02650 [  3   4  57  50] 0.02650
-----------------------------------------------------------------------------
   Norm of T2AB vector (   345906 symmetry allowed elements):  0.3321518678.
-----------------------------------------------------------------------------
 @CHECKOUT-I, Total execution time (CPU/WALL):        5.63/       2.76 seconds.
--executable xintprc finished with status     0 in        2.79 seconds (walltime).
  calling xvcc 
 --invoking executable--
/home/tsommerfeld/zscale/bin/xvcc
 @GETMEM-I,  Allocated   85830 MB of main memory.
   CCSD(T) energy will be calculated.
   The total correlation energy is -0.395144148453 a.u.
   The total correlation energy is -0.415042544541 a.u.
  Convergence information after     1 iterations: 
  Largest element of residual vector : -0.28730409E-01.
  Largest element of DIIS residual   : -0.28730409E-01.
   The total correlation energy is -0.426202877786 a.u.
  Convergence information after     2 iterations: 
  Largest element of residual vector : -0.13385375E-01.
  Largest element of DIIS residual   : -0.10650924E-01.
   The total correlation energy is -0.429105250193 a.u.
  Convergence information after     3 iterations: 
  Largest element of residual vector : -0.71475300E-02.
  Largest element of DIIS residual   : -0.58484703E-02.
   The total correlation energy is -0.430728212582 a.u.
  Convergence information after     4 iterations: 
  Largest element of residual vector : -0.35124918E-02.
  Largest element of DIIS residual   : -0.21036627E-02.
   The total correlation energy is -0.430901527893 a.u.
  Convergence information after     5 iterations: 
  Largest element of residual vector : -0.10402523E-02.
  Largest element of DIIS residual   : -0.38323138E-03.
   The total correlation energy is -0.430906657652 a.u.
  Convergence information after     6 iterations: 
  Largest element of residual vector :  0.24397470E-03.
  Largest element of DIIS residual   :  0.18615859E-03.
   The total correlation energy is -0.430897195690 a.u.
  Convergence information after     7 iterations: 
  Largest element of residual vector :  0.82383093E-04.
  Largest element of DIIS residual   : -0.42658827E-04.
   The total correlation energy is -0.430894709415 a.u.
  Convergence information after     8 iterations: 
  Largest element of residual vector : -0.38757841E-04.
  Largest element of DIIS residual   : -0.25733115E-04.
   The total correlation energy is -0.430894450425 a.u.
  Convergence information after     9 iterations: 
  Largest element of residual vector :  0.31726670E-04.
  Largest element of DIIS residual   : -0.78615096E-05.
   The total correlation energy is -0.430894558679 a.u.
  Convergence information after    10 iterations: 
  Largest element of residual vector : -0.81030401E-05.
  Largest element of DIIS residual   : -0.40234323E-05.
   The total correlation energy is -0.430894951394 a.u.
  Convergence information after    11 iterations: 
  Largest element of residual vector :  0.44573496E-05.
  Largest element of DIIS residual   : -0.23874341E-05.
   The total correlation energy is -0.430895079756 a.u.
  Convergence information after    12 iterations: 
  Largest element of residual vector : -0.17163919E-05.
  Largest element of DIIS residual   : -0.10878867E-05.
   The total correlation energy is -0.430895312670 a.u.
  Convergence information after    13 iterations: 
  Largest element of residual vector : -0.76423669E-06.
  Largest element of DIIS residual   : -0.44237374E-06.
   The total correlation energy is -0.430895389835 a.u.
  Convergence information after    14 iterations: 
  Largest element of residual vector : -0.30769686E-06.
  Largest element of DIIS residual   : -0.25454897E-06.
   The total correlation energy is -0.430895410822 a.u.
  Convergence information after    15 iterations: 
  Largest element of residual vector :  0.23089121E-06.
  Largest element of DIIS residual   : -0.12347067E-06.
   The total correlation energy is -0.430895418100 a.u.
  Convergence information after    16 iterations: 
  Largest element of residual vector : -0.11483752E-06.
  Largest element of DIIS residual   :  0.44823965E-07.
   The total correlation energy is -0.430895420225 a.u.
  Convergence information after    17 iterations: 
  Largest element of residual vector :  0.49817102E-07.
  Largest element of DIIS residual   : -0.27164858E-07.
  Amplitude equations converged in    17iterations.
   The total correlation energy is -0.430895421706 a.u.
   The CC iterations have converged.

   Largest T1 amplitudes for spin case AA:
   i       a                 i       a                 i       a    
-----------------------------------------------------------------------------
[  5      11    ]-0.02762 [  4      14    ] 0.02428 [  5      17    ]-0.01560
[  4      18    ]-0.01482 [  4      22    ]-0.00980 [  4      28    ]-0.00946
[  8      89    ]-0.00791 [  8      90    ] 0.00618 [  3      12    ] 0.00554
[  5      31    ]-0.00493 [  9     121    ]-0.00447 [  8      97    ]-0.00433
[  7      56    ] 0.00396 [  4      30    ]-0.00395 [  3      16    ]-0.00379
-----------------------------------------------------------------------------
   Norm of T1AA vector (      327 symmetry allowed elements):  0.0494086471.
-----------------------------------------------------------------------------
   Largest T2 amplitudes for spin case AB:
       _       _                 _       _                 _       _
   i   j   a   b             i   j   a   b             i   j   a   b
-----------------------------------------------------------------------------
[  5   5  11  11]-0.14941 [  4   4  50  50]-0.11611 [  5   5  17  11] 0.08551
[  5   5  11  17] 0.08551 [  5   5  17  17]-0.06425 [  5   5  88  88]-0.05420
[  5   5  53  53]-0.05420 [  5   5  13  13]-0.05418 [  4   4  54  50]-0.05141
[  4   4  50  54]-0.05141 [  4   4  54  54]-0.02932 [  4   4  15  15]-0.02623
[  4   4  14  14]-0.02556 [  4   3  50  57] 0.02554 [  3   4  57  50] 0.02554
-----------------------------------------------------------------------------
   Norm of T2AB vector (   345906 symmetry allowed elements):  0.4178401765.
-----------------------------------------------------------------------------
       Summary of iterative solution of CC equations 
      -----------------------------------------------------------
                       Correlation           Total
       Iteration         Energy              Energy
      -----------------------------------------------------------
            0        -0.395144148453     -78.941950139949  DIIS 
            1        -0.415042544541     -78.961848536037  DIIS 
            2        -0.426202877786     -78.973008869282  DIIS 
            3        -0.429105250193     -78.975911241689  DIIS 
            4        -0.430728212582     -78.977534204078  DIIS 
            5        -0.430901527893     -78.977707519390  DIIS 
            6        -0.430906657652     -78.977712649149  DIIS 
            7        -0.430897195690     -78.977703187186  DIIS 
            8        -0.430894709415     -78.977700700911  DIIS 
            9        -0.430894450425     -78.977700441921  DIIS 
           10        -0.430894558679     -78.977700550175  DIIS 
           11        -0.430894951394     -78.977700942890  DIIS 
           12        -0.430895079756     -78.977701071253  DIIS 
           13        -0.430895312670     -78.977701304166  DIIS 
           14        -0.430895389835     -78.977701381331  DIIS 
           15        -0.430895410822     -78.977701402319  DIIS 
           16        -0.430895418100     -78.977701409596  DIIS 
           17        -0.430895421706     -78.977701413202  DIIS 
      -----------------------------------------------------------
      A miracle has come to pass. The CC iterations have converged.
        E(CCSD)           =     -78.977701413202
        E(CCSD + T(CCSD)) =     -78.993504992143
        E(CCSD(T))        =     -78.993084604515
 @CHECKOUT-I, Total execution time (CPU/WALL):      209.68/      17.50 seconds.
--executable xvcc finished with status     0 in       17.53 seconds (walltime).
  The final electronic energy is       -78.993084604515161 a.u. 
  This computation required                           27.59 seconds (walltime).
