CFour on node02
 --invoking executable--
/home/tsommerfeld/zscale/bin/xjoda


   *************************************************************************
         <<<     CCCCCC     CCCCCC   |||     CCCCCC     CCCCCC   >>>
       <<<      CCC        CCC       |||    CCC        CCC         >>>
      <<<      CCC        CCC        |||   CCC        CCC            >>>
    <<<        CCC        CCC        |||   CCC        CCC              >>>
      <<<      CCC        CCC        |||   CCC        CCC            >>>
       <<<      CCC        CCC       |||    CCC        CCC         >>>
         <<<     CCCCCC     CCCCCC   |||     CCCCCC     CCCCCC   >>>
   *************************************************************************

     ****************************************************************
     * CFOUR Coupled-Cluster techniques for Computational Chemistry *
     ****************************************************************
 

   Department of Chemistry                Institut fuer Physikalische Chemie
   University of Florida                  Universitaet Mainz
   Gainesville, FL 32611, USA             D-55099 Mainz, Germany

   Department of Chemistry                Department of Chemistry
   Johns Hopkins University               Southern Methodist University
   Baltimore, MD 21218, USA               Dallas, TX 75275, USA

   Institute of Nanotechnology            Department of Physical Chemistry
   Karlsruhe Inst. of Technology          Eotvos Lorand University
   D-76021 Karlsruhe, Germany             H-1053 Budapest, Hungary

 
                       Version 2.1
 
                     node02                                            
                     Tue Mar 29 15:02:05 CST 2022                      
                     integer*8 version is running
 
********************************************************************************
*                          Input from ZMAT file                                *
********************************************************************************
h_ethylene                                                                      
C       0.000000      0.0   -0.664500                                           
C       0.000000      0.0    0.664500                                           
H       0.962348      0.0   -1.159080                                           
H       0.962348      0.0    1.159080                                           
H      -0.962348      0.0   -1.159080                                           
H      -0.962348      0.0    1.159080                                           
H      0.000000      1.7413793103448276      0.000000                           
                                                                                
*CFOUR(CALC=CCSD                                                                
EXCITE=EOMEE                                                                    
ESTATE_SYM=0/3/0/0                                                              
CC_PROG=VCC                                                                     
CHARGE=-1                                                                       
COORDINATES=CARTESIAN                                                           
SCF_DAMP=500                                                                    
SCF_MAXCYC=300                                                                  
BASIS=SPECIAL                                                                   
REFERENCE=RHF                                                                   
MEM_SIZE=90,MEM_UNIT=GB)                                                        
                                                                                
C:CC-PVDZ                                                                       
C:CC-PVDZ                                                                       
H:CC-PVDZ                                                                       
H:CC-PVDZ                                                                       
H:CC-PVDZ                                                                       
H:CC-PVDZ                                                                       
H:AUG-CC-PVDZ                                                                   
                                                                                
********************************************************************************
    -------------------------------------------------------------------
                    CFOUR Control Parameters 
    -------------------------------------------------------------------
        External           Internal           Value            Units
          Name               Name
    -------------------------------------------------------------------
       ABCDTYPE             IABCDT         STANDARD    [  0]    ***   
       ANHARMONIC           IANHAR         OFF         [  0]    ***   
       ANH_ALGORIT          IANALG         STANDARD    [  0]    ***   
       ANH_DERIVAT          IANDER         SECOND      [  1]    ***   
       ANH_MODE             ANHMOD         VIBRATION   [  0]    ***   
       ANH_STEPSIZ          ICUBST             50000          x 10-6  
       ANH_SYMMETR          IANHSM         ABELIAN     [  0]    ***   
       AO_LADDERS           IAOLAD         SINGLEPASS  [  1]    ***   
       AV_SCF               IAVSCF         OFF         [  0]    ***   
       BASIS                IBASIS         SPECIAL     [  0]    ***   
       BOTHVECTORS          BOTHVC         OFF         [  0]    ***   
       BOX_POTENT           IPIAB          OFF         [  0]    ***   
       BREIT                IBREIT         OFF         [  0]    ***   
       BRUCK_CONV           IBRTOL          10D-  4             ***   
       BRUECKNER            IBRKNR         OFF         [  0]    ***   
       BUFFERSIZE           IBUFFS              4096            ***   
       CACHE_RECS           ICHREC             10               ***   
       CALCLEVEL            ICLLVL         CCSD        [ 10]    ***   
       CCORBOPT             ICCORB         OFF         [  0]  x 0.01  
       CC_CONV              ICCCNV          10D-  7             ***   
       CC_EXPORDER          ICCEOR              5               ***   
       CC_EXTRAPOL          ICCEXT         DIIS        [  1]    ***   
       CC_GUESS             ICCGES         MP2         [  0]    ***   
       CC_MAXCYC            ICCCYC            100              cycles 
       CC_PROGRAM           ICCPRO         VCC         [  0]    ***   
       CHARGE               ICHRGE             -1               ***   
       CHOLESKY             ICHOLE         OFF         [  0]    ***   
       CIS_CONV             ICISTL              5               ***   
       COMM_SIZE            IPSIZE            ***               ***   
       CONSTANT             ICONST         OLD         [  1]    ***   
       CONTINUUM            ICONTU         NONE        [  0]    ***   
       CONTRACTION          ICNTYP         GENERAL     [  1]    ***   
       COORDINATES          ICOORD         CARTESIAN   [  1]    ***   
       CPHF_CONVER          ICPHFT          10D- 16             ***   
       CPHF_MAXCYC          ICPHFC             64              cycles 
       CUBIC                ICUBIC         OFF         [  0]    ***   
       CURVILINEAR          ICURVY         OFF         [  0]    ***   
       DBOC                 IDBOC          OFF         [  0]    ***   
       DCT                  IDCT           OFF         [  0]    ***   
       DERIV_LEV            IDRLVL         ZERO        [  0]    ***   
       DEVMEM_SIZE          IDVMEM         *********           MByte  
       DIAG_MRCC            IEOMST          10D-  0             ***   
       DIFF_TYPE            IDIFTY         RELAXED     [  0]    ***   
       DIRECT               IDIRCT         OFF         [  0]    ***   
       DROPMO               IDRPMO      NONE         
       ECP                  IECP           OFF         [  0]    ***   
       EIGENVECTOR          IVEC                1               ***   
       EL_ANHARM            IELANH         OFF         [  0]    ***   
       EOMFOLLOW            IEOMSR         ENERGY      [  0]    ***   
       EOMIP                IEOMIP         OFF         [  0]    ***   
       EOMLEVEL             HBARFM         SAME        [  0]    ***   
       EOM_MRCC             IMRCCE         NEW         [  1]    ***   
       EOM_NONIT            EOMNON         OFF         [  0]    ***   
       EOM_NSING            IEOMSI          10D-  0             ***   
       EOM_NSTATES          IMRCCD         DAVIDSON    [  0]    ***   
       EOM_NTRIP            IEOMTR          10D-  0             ***   
       EOM_ORDER            IEXORD         ENERGY      [  0]    ***   
       EOM_PROPSTA          IEOMST              0               ***   
       ESTATE_CONV          IEXTOL          10D-  5             ***   
       ESTATE_DIAG          IEXDIG         ITERATIVE   [  0]    ***   
       ESTATE_LOCK          IESLOC         ON          [  1]    ***   
       ESTATE_MAXC          IEXMXC             40               ***   
       ESTATE_PROP          IEXPRP         OFF         [  0]    ***   
       ESTATE_SYM           IEXSYM   0,  3,  0,  0,
       EVAL_HESS            IRECAL              0            # of cyc.
       EXCITATION           IEXCIT              0               ***   
       EXCITE               IEXCIT         EOMEE       [  3]    ***   
       EXTERN_POT           IEXPOT         OFF         [  0]    ***   
       FCGRADNEW            IFCGNW         OFF         [  0]    ***   
       FC_FIELD             IFINFC              0             x 10-6  
       FD_CALTYPE           IFDCAL         GRADONLY    [  0]    ***   
       FD_PROJECT           IFDPRJ         OFF         [  1]    ***   
       FD_STEPSIZE          IDISFD              0            10-4 bohr
       FD_USEGROUP          IFDGRP         FULL        [  0]    ***   
       FILE_RECSIZ          IFLREC              4096           words  
       FINITE_PERT          IFIPER              0             x 10-6  
       FIXGEOM              IFIXGM         OFF         [  0]    ***   
       FOCK                 IFOCK          AO          [  1]    ***   
       FREQ_ALGORI          IVIALG         STANDARD    [  0]    ***   
       FROZEN_CORE          IFROCO         OFF         [  0]    ***   
       GAMMA_ABCD           IGABCD         STORE       [  0]    ***   
       GAMMA_ABCI           IGABCI         STORE       [  0]    ***   
       GENBAS_1             IGNBS1              0               ***   
       GENBAS_2             IGNBS2              0               ***   
       GENBAS_3             IGNBS3              0               ***   
       GENBAS_4             IGNBS4              0               ***   
       GEO_CONV             ICONTL              5              H/bohr 
       GEO_MAXCYC           IOPTCY             50               ***   
       GEO_MAXSTEP          IMXSTP            300            millibohr
       GEO_METHOD           INR            SINGLE_POINT[  5]    ***   
       GIAO                 IGIAO          OFF         [  1]    ***   
       GIMIC                IGIMIC         OFF         [  0]    ***   
       GRID                 IGRID          OFF         [  0]    ***   
       GRID_ALGO            IGALGO         SERIAL      [  0]    ***   
       GUESS                IGUESS         MOREAD      [  0]    ***   
       HBAR                 IHBAR          ON          [  1]    ***   
       HESS_TYPE            IHESTP         SCF         [  0]    ***   
       HF2_FILE             IHF2Fl         USE         [  1]    ***   
       HFSTABILITY          ISTABL         OFF         [  0]    ***   
       INCORE               INCORE         OFF         [  0]    ***   
       INPUT_MRCC           IMRCC          ON          [  1]    ***   
       INTEGRALS            INTTYP         VMOL        [  1]    ***   
       JODA_PRINT           IJPRNT              0               ***   
       KEYWORD_OUT          IDMPKW         NO          [  0]    ***   
       LINDEP_TOL           ILINDP              8               ***   
       LINEQ_CONV           IZTACN          10D-  7           cycles  
       LINEQ_EXPOR          ILMAXD              5               ***   
       LINEQ_MAXCY          ILMAXC            100               ***   
       LINEQ_TYPE           ILTYPE         DIIS        [  1]    ***   
       LOCK_ORBOCC          ILOCOC         OFF         [  0]    ***   
       MEMORY_SIZE          IMEMSZ         *********           words  
       MEM_UNIT             IMEMU          GB          [  3]    ***   
       MRCC                 IMRCCC         OFF         [  0]    ***   
       MULTIPLICTY          IMULTP              1               ***   
       NACOUPLING           IVCOUP         OFF         [  0]    ***   
       NEGEVAL              IDIE           ABORT       [  0]    ***   
       NEWNORM              INEWNO         OFF         [  0]    ***   
       NON-HF               INONHF         OFF         [  0]    ***   
       NTOP_TAMP            ITOPT2             15               ***   
       NUC_MODEL            INUCMO         POINT       [  0]    ***   
       OCCUPATION           IOCCU   ESTIMATED BY SCF 
       OPEN-SHELL           IOPEN          SPIN-ORBITAL[  0]    ***   
       OPTVIB               IOPTVB         OFF         [  0]    ***   
       ORBITALS             IORBTP         STANDARD    [  0]    ***   
       PARALLEL             IPARAL         ON          [  1]    ***   
       PARA_INT             IPINTS         ON          [  1]    ***   
       PARA_PRINT           IPPRIN              0               ***   
       PERT_ORB             IPTORB         STANDARD    [  0]    ***   
       POINTS               IGRDFD              0               ***   
       PRINT                IPRNT               0               ***   
       PROPS                IPROPS         OFF         [  0]    ***   
       PROP_INTEGR          IINTYP         INTERNAL    [  0]    ***   
       PSI                  IPSI           OFF         [  0]    ***   
       QC_ALG               IQCALG         FLM         [  0]    ***   
       QC_LINALG            IQCLIN         TRIDIAG     [  2]    ***   
       QC_MAXCYC            IQCMAX          10D-100           cycles  
       QC_MAXSCFCY          IQCMSC          10D- 15           cycles  
       QC_RTRUST            IQCRTR          10D-  0           x 10-3  
       QC_SKIPSCF           IQCSKI         OFF         [  0]    ***   
       QC_START             IQCSTA          10D-  1             ***   
       QRHFGUESS            IQGUES         OFF         [  0]    ***   
       QUARTIC              IQUART         OFF         [  0]    ***   
       RAMAN_INT            IRAMIN         OFF         [  0]    ***   
       RAMAN_ORB            IRAMRE         UNRELAXED   [  0]    ***   
       RDO                  IRDOFM         OFF         [  0]    ***   
       REDUCE_REPR          REDREP         Ir          [  0]    ***   
       REFERENCE            IREFNC         RHF         [  0]    ***   
       RELATIVIST           IRELAT         OFF         [  0]    ***   
       RELAX_DENS           IRDENS         OFF         [  0]    ***   
       RESET_FLAGS          IRESET         OFF         [  0]    ***   
       RESTART_CC           ICCRES         OFF         [  0]    ***   
       ROT_EVEC             ROTVEC              0               ***   
       SAVE_INTS            ISVINT         OFF         [  0]    ***   
       SCALE_ON             ISTCRT              0               ***   
       SCF_CONV             ISCFCV          10D-  7             ***   
       SCF_DAMPING          IDAMP             500             x 10-3  
       SCF_EXPORDE          IRPPOR              6               ***   
       SCF_EXPSTAR          IRPPLS              8               ***   
       SCF_EXTRAPO          IRPP           ON          [  1]    ***   
       SCF_MAXCYC           ISCFCY            300              cycles 
       SCF_NOSTOP           ISCFST         OFF         [  0]    ***   
       SCF_PRINT            ISCFPR              0               ***   
       SCF_PROG             ISCFPR         SCF         [  0]    ***   
       SD_FIELD             IFINSD              0             x 10-6  
       SOPERT               IPERSO         OFF         [  0]    ***   
       SPHERICAL            IDFGHI         ON          [  1]    ***   
       SPINORBIT            ISOCAL         OFF         [  0]    ***   
       SPINROTATIO          ISRCON         OFF         [  0]    ***   
       SPIN_FLIP            ISPFLP         OFF         [  0]    ***   
       SPIN_ORBIT           ISPORB         OFF         [  0]    ***   
       SPIN_SCAL            ISCSMP         OFF         [  0]    ***   
       STEEPSCALE           ISTPSC              1000          x 10-3  
       SUBGROUP             ISUBGP         DEFAULT     [  0]    ***   
       SUBGRPAXIS           ISBXYZ         X           [  0]    ***   
       SYMMETRY             ISYM           ON          [  0]    ***   
       SYM_CHECK            ISYMCK         OVERRIDE    [  1]    ***   
       T3_EXTRAPOL          IT3EXT         OFF         [  0]    ***   
       T4_EXTRAPOL          IT4EXP         OFF         [  0]    ***   
       TAMP_SUM             IEVERY              5               ***   
       TESTSUITE            ITESTS         OFF         [  0]    ***   
       THERMOCH             ITHERM         OFF         [  0]    ***   
       TOL_CHOLESK          ITOLCH          10D-  4             ***   
       TRANGRAD             IRESRM         OFF         [  0]    ***   
       TRANS_INV            ITRAIN         USE         [  0]    ***   
       TREAT_PERT           ITREAT         SIMULTANEOUS[  0]    ***   
       TRIP_ALGORI          ITRALG         NORMAL      [  0]    ***   
       UIJ_THRESHO          IUIJTH              1               ***   
       UNITS                IUNITS         ANGSTROM    [  0]    ***   
       UNOS                 IUNOS          OFF         [  0]    ***   
       UPDATE_HESS          IHUPDT         ON          [  1]    ***   
       VIBPHASE             ISETPH         STANDARD    [  0]    ***   
       VIBRATION            IVIB           NO          [  0]    ***   
       VIB_ALGORIT          IGEALG         STANDARD    [  0]    ***   
       VNATORB              IVNORB         OFF         [  0]    ***   
       VTRAN                IVTRAN         FULL/PARTIAL[  0]    ***   
       XFIELD               IXEFLD              0             x 10-6  
       XFORM_TOL            IXFTOL          10D- 11             ***   
       YFIELD               IYEFLD              0             x 10-6  
       ZFIELD               IZEFLD              0             x 10-6  
       ZSCALE_EXP           IZEXPS         OFF         [  0]    ***   
    -------------------------------------------------------------------
  @GETXYZ-I,     7 atoms read from ZMAT.
   Rotational constants (in cm-1): 
          0.8536890782             0.8889548739             2.5222731849
   Rotational constants (in MHz): 
      25592.9582983935         26650.2004039835         75615.8583775582
********************************************************************************
   The full molecular point group is C2v .
   The largest Abelian subgroup of the full molecular point group is C2v .
   The computational point group is C2v .
********************************************************************************


 ----------------------------------------------------------------
         Coordinates used in calculation (QCOMP) 
 ----------------------------------------------------------------
 Z-matrix   Atomic            Coordinates (in bohr)
  Symbol    Number           X              Y              Z
 ----------------------------------------------------------------
     C         6        -1.25572327     0.00000000    -0.11420732
     C         6         1.25572327     0.00000000    -0.11420732
     H         1        -2.19034422     1.81857454    -0.11420732
     H         1         2.19034422     1.81857454    -0.11420732
     H         1        -2.19034422    -1.81857454    -0.11420732
     H         1         2.19034422    -1.81857454    -0.11420732
     H         1         0.00000000     0.00000000     3.17652334
 ----------------------------------------------------------------
 
   Interatomic distance matrix (Angstroms) 
 
                 C             C             H             H             H    
                [ 1]        [ 2]        [ 3]        [ 4]        [ 5]
  C    [ 1]     0.00000
  C    [ 2]     1.32900     0.00000
  H    [ 3]     1.08200     2.06193     0.00000
  H    [ 4]     2.06193     1.08200     2.31816     0.00000
  H    [ 5]     1.08200     2.06193     1.92470     3.01303     0.00000
  H    [ 6]     2.06193     1.08200     3.01303     1.92470     2.31816
  H    [ 7]     1.86386     1.86386     2.30260     2.30260     2.30260
 
                 H             H    
                [ 6]        [ 7]
  H    [ 6]     0.00000
  H    [ 7]     2.30260     0.00000
 rotcon2
   Rotational constants (in cm-1): 
          2.5222731849             0.8889548739             0.8536890782
   Rotational constants (in MHz): 
      75615.8583775581         26650.2004039835         25592.9582983935
  ECPDATA file not present.   Using default ECPDATA. 
  There are   57 basis functions.
 @GEOPT-W, Archive file not created for single-point calculation.
 @CHECKOUT-I, Total execution time (CPU/WALL):        0.12/       0.13 seconds.
--executable xjoda finished with status     0 in        0.15 seconds (walltime).
 --invoking executable--
/home/tsommerfeld/zscale/bin/xvmol
 SERIAL VERSION OF MOLECULE STARTED
********************************************************************************
                    INPUT FROM MOL FILE
********************************************************************************
INTGRL        1    0    1    0    0    0    0    0    0                         
         *** CFOUR Program System (Release V0.1) ***                            
h_ethylene                                                                      
    3    2 X  Y       0.10E-08              0    0                              
   9999.00      3.00                                                            
          6.00000000    1    3    1    1    1                                   
C #1  -1.255723272983657   0.000000000000000  -0.114207322980491                
    9    3                                                                      
   6665.00000000000       6.920000000000000E-004 -1.460000000000000E-004        
  0.000000000000000E+000                                                        
   1000.00000000000       5.329000000000000E-003 -1.154000000000000E-003        
  0.000000000000000E+000                                                        
   228.000000000000       2.707700000000000E-002 -5.725000000000000E-003        
  0.000000000000000E+000                                                        
   64.7100000000000       0.101718000000000      -2.331200000000000E-002        
  0.000000000000000E+000                                                        
   21.0600000000000       0.274740000000000      -6.395500000000000E-002        
  0.000000000000000E+000                                                        
   7.49500000000000       0.448564000000000      -0.149981000000000             
  0.000000000000000E+000                                                        
   2.79700000000000       0.285074000000000      -0.127262000000000             
  0.000000000000000E+000                                                        
  0.521500000000000       1.520400000000000E-002  0.544529000000000             
  0.000000000000000E+000                                                        
  0.159600000000000      -3.191000000000000E-003  0.580496000000000             
   1.00000000000000                                                             
    4    2                                                                      
   9.43900000000000       3.810900000000000E-002  0.000000000000000E+000        
   2.00200000000000       0.209480000000000       0.000000000000000E+000        
  0.545600000000000       0.508557000000000       0.000000000000000E+000        
  0.151700000000000       0.468842000000000        1.00000000000000             
    1    1                                                                      
  0.550000000000000        1.00000000000000                                     
          1.00000000    1    2    1    1                                        
H #2  -2.190344215575466   1.818574537711477  -0.114207322980491                
    4    2                                                                      
   13.0100000000000       1.968500000000000E-002  0.000000000000000E+000        
   1.96200000000000       0.137977000000000       0.000000000000000E+000        
  0.444600000000000       0.478148000000000       0.000000000000000E+000        
  0.122000000000000       0.501240000000000        1.00000000000000             
    1    1                                                                      
  0.727000000000000        1.00000000000000                                     
          1.00000000    1    2    1    1                                        
H #3   0.000000000000000   0.000000000000000   3.176523342320082                
    5    3                                                                      
   13.0100000000000       1.968500000000000E-002  0.000000000000000E+000        
  0.000000000000000E+000                                                        
   1.96200000000000       0.137977000000000       0.000000000000000E+000        
  0.000000000000000E+000                                                        
  0.444600000000000       0.478148000000000       0.000000000000000E+000        
  0.000000000000000E+000                                                        
  0.122000000000000       0.501240000000000        1.00000000000000             
  0.000000000000000E+000                                                        
  2.974000000000000E-002  0.000000000000000E+000  0.000000000000000E+000        
   1.00000000000000                                                             
    2    2                                                                      
  0.727000000000000        1.00000000000000       0.000000000000000E+000        
  0.141000000000000       0.000000000000000E+000   1.00000000000000             
FINISH                                                                          
 
********************************************************************************
 ONE- AND TWO-ELECTRON INTEGRALS OVER SYMMETRY-ADAPTED AOS ARE CALCULATED.

  SPHERICAL HARMONICS ARE USED.
  
  INTEGRALS LESS THAN  0.10E-13 ARE NEGLECTED.

  NUCLEAR REPULSION ENERGY :   37.9154642929 A.U.
  @MOLECU-I, ONE ELECTRON INTEGRALS (CPU/WALL):        0.01/       0.01 SECONDS.
  @TWOEL-I,      29572 INTEGRALS OF SYMMETRY TYPE  I I I I
  @TWOEL-I,     102291 INTEGRALS OF SYMMETRY TYPE  I J I J
  @TWOEL-I,      58089 INTEGRALS OF SYMMETRY TYPE  I I J J
  @TWOEL-I,      75480 INTEGRALS OF SYMMETRY TYPE  I J K L
  @TWOEL-I, TOTAL NUMBER OF 2-E INTEGRALS     265432.
  @MOLECU-I, TWO ELECTRON INTEGRALS (CPU/WALL):        0.21/       0.22 SECONDS.
 @CHECKOUT-I, Total execution time (CPU/WALL):        0.23/       0.24 seconds.

Running with 8 threads/proc

--executable xvmol finished with status     0 in        0.26 seconds (walltime).
 --invoking executable--
/home/tsommerfeld/zscale/bin/xvmol2ja
 @GETMEM-I,  Allocated   85830 MB of main memory.
 @CHECKOUT-I, Total execution time (CPU/WALL):        0.02/       0.01 seconds.
--executable xvmol2ja finished with status     0 in        0.03 seconds (walltime).
 --invoking executable--
/home/tsommerfeld/zscale/bin/xvscf
  There are   57 functions in the AO basis.

  There are 4 irreducible representations.

       Irrep        # of functions
         1                 20
         2                 17
         3                 11
         4                  9


  Parameters for SCF calculation: 
        SCF reference function:  RHF  
  Maximum number of iterations:  300
     Full symmetry point group: C2v 
     Computational point group: C2v 
        Initial density matrix: MOREAD                 
     SCF convergence tolerance: 10**(- 7)
  DIIS convergence acceleration:  ON
          Latest start for DIIS:   8
                     DIIS order:   6

  Memory information:     156410 words required.
  Fock matrices are constructed from AO integral file.
 @GETMEM-I,  Allocated       1 MB of main memory.
  Initialization and symmetry analysis required      0.002 seconds.

  @INITGES-I, Occupancies from core Hamiltonian:

          Alpha population by irrep:   3    4    1    1
           Beta population by irrep:   3    4    1    1


 total no. of electrons in initial guess :  0.000000000000000E+000
  --------------------------------------------------------------------
  Iteration         Total Energy            Largest Density Difference
  --------------------------------------------------------------------
       0            37.915464292878646              0.0000000000D+00
   current occupation vector 
     3  4  1  1
     3  4  1  1
  applying damping factor of   0.500000000000000     
       1           -38.480158557212754              0.8938449595D+01
   current occupation vector 
     3  4  1  1
     3  4  1  1
  applying damping factor of   0.500000000000000     
       2           -60.489648881000697              0.3212173070D+01
   current occupation vector 
     4  3  1  1
     4  3  1  1
  applying damping factor of   0.500000000000000     
       3           -69.664613376071316              0.2735522926D+01
   current occupation vector 
     5  2  1  1
     5  2  1  1
  applying damping factor of   0.500000000000000     
       4           -74.058298297866742              0.1482060657D+01
   current occupation vector 
     5  2  1  1
     5  2  1  1
  applying damping factor of   0.500000000000000     
       5           -76.234505214011222              0.7644230405D+00
   current occupation vector 
     5  2  1  1
     5  2  1  1
  applying damping factor of   0.500000000000000     
       6           -77.325082714220997              0.3968244748D+00
   current occupation vector 
     5  2  1  1
     5  2  1  1
  applying damping factor of   0.500000000000000     
       7           -77.873414835747383              0.6162798882D+00
   current occupation vector 
     5  2  1  1
     5  2  1  1
       8           -78.427870187938765              0.3859951571D+00
   current occupation vector 
     5  2  1  1
     5  2  1  1
       9           -78.427951141502859              0.1064222288D-01
   current occupation vector 
     5  2  1  1
     5  2  1  1
      10           -78.427975605107690              0.1941117963D-01
   current occupation vector 
     5  2  1  1
     5  2  1  1
      11           -78.427976485931964              0.1698750089D-02
   current occupation vector 
     5  2  1  1
     5  2  1  1
      12           -78.427976524811385              0.3895832466D-03
   current occupation vector 
     5  2  1  1
     5  2  1  1
      13           -78.427976526266718              0.6591524272D-04
   current occupation vector 
     5  2  1  1
     5  2  1  1
      14           -78.427976526375915              0.4377905368D-04
   current occupation vector 
     5  2  1  1
     5  2  1  1
      15           -78.427976526380434              0.7979294403D-05
   current occupation vector 
     5  2  1  1
     5  2  1  1
      16           -78.427976526380803              0.2116275412D-05
   current occupation vector 
     5  2  1  1
     5  2  1  1

  SCF has converged.

 Density matrix saved to file den.dat
 total electron number:   18.0000000000001     
     E(SCF)=       -78.427976526380661              0.8057781309D-07


  Final occupancies:

     Alpha population by irrep:   5    2    1    1
      Beta population by irrep:   5    2    1    1


  Eigenvector printing suppressed.

 @PUTMOS-I, Writing converged MOs to NEWMOS. 
 @PUTMOS-I, Symmetry   1 Full Blocks  5 Partial Blocksize   0
 @PUTMOS-I, Symmetry   2 Full Blocks  4 Partial Blocksize   1
 @PUTMOS-I, Symmetry   3 Full Blocks  2 Partial Blocksize   3
 @PUTMOS-I, Symmetry   4 Full Blocks  2 Partial Blocksize   1
 @PUTFOCK-I, Writing converged Fock matrix to NEWFOCK. 
 @PUTFOCK-I, Symmetry   1 Full Blocks  5 Partial Blocksize   0
 @PUTFOCK-I, Symmetry   2 Full Blocks  4 Partial Blocksize   1
 @PUTFOCK-I, Symmetry   3 Full Blocks  2 Partial Blocksize   3
 @PUTFOCK-I, Symmetry   4 Full Blocks  2 Partial Blocksize   1


 
  ORBITAL EIGENVALUES (ALPHA)  (1H = 27.2113834 eV)

       MO #        E(hartree)               E(eV)           FULLSYM    COMPSYM
       ----   --------------------   --------------------   -------   ---------
    1     1         -11.0765489576        -301.4082204334      A1        A1 (1)
    2    21         -11.0748404346        -301.3617291594      B1        B1 (2)
    3     2          -0.8866739745         -24.1276254700      A1        A1 (1)
    4    22          -0.6242119431         -16.9856705060      B1        B1 (2)
    5    38          -0.5013998893         -13.6437846249      B2        B2 (3)
    6     3          -0.4095273254         -11.1438050655      A1        A1 (1)
    7    49          -0.3573619779          -9.7243137935      A2        A2 (4)
    8     4          -0.2645939588          -7.1999676571      A1        A1 (1)
    9     5           0.0205587517           0.5594320740      A1        A1 (1)
  +++++++++++++++++++++++++++++++++++++++++++++++++++++++++++++++++++++++++++++
   10     6           0.2791467295           7.5959686815      A1        A1 (1)
   11    23           0.3246142094           8.8332017091      B1        B1 (2)
   12    39           0.3691473655          10.0450104929      B2        B2 (3)
   13     7           0.3760831216          10.2337420125      A1        A1 (1)
   14    24           0.3867431372          10.5238157849      B1        B1 (2)
   15    50           0.4424277715          12.0390717182      A2        A2 (4)
   16    40           0.5451677030          14.8347673846      B2        B2 (3)
   17    25           0.5808012501          15.8044054967      B1        B1 (2)
   18    26           0.6301196609          17.1464276816      B1        B1 (2)
   19     8           0.6394505264          17.4003334397      A1        A1 (1)
   20     9           0.7235462920          19.6886955587      A1        A1 (1)
   21    41           0.8318519255          22.6358416763      B2        B2 (3)
   22    10           0.8722101237          23.7340440808      A1        A1 (1)
   23    27           0.9470132697          25.7695411680      B1        B1 (2)
   24    42           1.0195844435          27.7443032007      B2        B2 (3)
   25    28           1.0452768842          28.4434300558      B1        B1 (2)
   26    11           1.0504811364          28.5850449565      A1        A1 (1)
   27    51           1.0904795107          29.6734560557      A2        A2 (4)
   28    12           1.0968484603          29.8467639853      A1        A1 (1)
   29    29           1.1334588205          30.8429825335      B1        B1 (2)
   30    43           1.3508302759          36.7579605466      B2        B2 (3)
   31    13           1.4106973981          38.3870277614      A1        A1 (1)
   32    52           1.4442189156          39.2991946246      A2        A2 (4)
   33    30           1.4884683019          40.5032816423      B1        B1 (2)
   34    53           1.5006737708          40.8354093344      A2        A2 (4)
   35    14           1.5096409110          41.0794176255      A1        A1 (1)
   36    15           1.7113094642          46.5670979457      A1        A1 (1)
   37    54           1.7697843406          48.1582802270      A2        A2 (4)
   38    44           1.8684244212          50.8424132789      B2        B2 (3)
   39    31           1.9222961720          52.3083381454      B1        B1 (2)
   40    45           2.0100280122          54.6956428841      B2        B2 (3)
   41    32           2.0581159089          56.0041810781      B1        B1 (2)
   42    16           2.0863682444          56.7729662132      A1        A1 (1)
   43    17           2.1345572499          58.0842557167      A1        A1 (1)
   44    46           2.1493796036          58.4875924659      B2        B2 (3)
   45    33           2.2327895780          60.7572932595      B1        B1 (2)
   46    47           2.2987445312          62.5520187770      B2        B2 (3)
   47    34           2.3590381240          64.1926908482      B1        B1 (2)
   48    35           2.4420538532          66.4516636821      B1        B1 (2)
   49    18           2.4491744616          66.6454252892      A1        A1 (1)
   50    55           2.5701405820          69.9370807698      A2        A2 (4)
   51    19           2.5951162627          70.6167035932      A1        A1 (1)
   52    56           2.6431662199          71.9242094001      A2        A2 (4)
   53    36           2.7085240956          73.7026876132      B1        B1 (2)
   54    48           2.9554168142          80.4209800391      B2        B2 (3)
   55    20           2.9606428065          80.5631865191      A1        A1 (1)
   56    37           3.4256467271          93.2165864852      B1        B1 (2)
   57    57           3.4952595656          95.1108481227      A2        A2 (4)


  VSCF finished.

 @CHECKOUT-I, Total execution time (CPU/WALL):        0.27/       0.10 seconds.
--executable xvscf finished with status     0 in        0.12 seconds (walltime).
 --invoking executable--
/home/tsommerfeld/zscale/bin/xvtran
 @GETMEM-I,  Allocated   85830 MB of main memory.
  Full RHF integral transformation
  Transformation of IIII integrals :
  1 pass through the AO integral file was required.
       29572 AO integrals were read.
       37182 MO integrals were written to HF2.
  Transformation of IIJJ integrals :
  1 pass through the AO integral file was required.
       58089 AO integrals were read.
       75393 MO integrals were written to HF2.
  Transformation of IJIJ integrals :
  1 pass through the AO integral file was required.
      102291 AO integrals were read.
      132879 MO integrals were written to HF2.
  Transformation of IJKL integrals :
  1 pass through the AO integral file was required.
       75480 AO integrals were read.
      100980 MO integrals were written to HF2.
  Summary of active molecular orbitals: 
------------------------------------------------------------------------
 
  Index      Eigenvalue    Symmetry    Index      Eigenvalue    Symmetry
------------------------------------------------------------------------
     1       -11.0765490        1        30         1.0452769        2
     2        -0.8866740        1        31         1.1334588        2
     3        -0.4095273        1        32         1.4884683        2
     4        -0.2645940        1        33         1.9222962        2
     5         0.0205588        1        34         2.0581159        2
     6       -11.0748404        2        35         2.2327896        2
     7        -0.6242119        2        36         2.3590381        2
     8        -0.5013999        3        37         2.4420539        2
     9        -0.3573620        4        38         2.7085241        2
    10         0.2791467        1        39         3.4256467        2
    11         0.3760831        1        40         0.3691474        3
    12         0.6394505        1        41         0.5451677        3
    13         0.7235463        1        42         0.8318519        3
    14         0.8722101        1        43         1.0195844        3
    15         1.0504811        1        44         1.3508303        3
    16         1.0968485        1        45         1.8684244        3
    17         1.4106974        1        46         2.0100280        3
    18         1.5096409        1        47         2.1493796        3
    19         1.7113095        1        48         2.2987445        3
    20         2.0863682        1        49         2.9554168        3
    21         2.1345572        1        50         0.4424278        4
    22         2.4491745        1        51         1.0904795        4
    23         2.5951163        1        52         1.4442189        4
    24         2.9606428        1        53         1.5006738        4
    25         0.3246142        2        54         1.7697843        4
    26         0.3867431        2        55         2.5701406        4
    27         0.5808013        2        56         2.6431662        4
    28         0.6301197        2        57         3.4952596        4
    29         0.9470133        2
------------------------------------------------------------------------
  -11.0765489575737      -0.886673974464451      -0.409527325448107     
 -0.264593958759100       2.055875167230279E-002  -11.0748404345888     
 -0.624211943079497      -0.501399889316049      -0.357361977909021     
  0.279146729506386       0.376083121613476       0.639450526418841     
  0.723546291979517       0.872210123680389        1.05048113638156     
   1.09684846031209        1.41069739811113        1.50964091099773     
   1.71130946417491        2.08636824444601        2.13455724991646     
   2.44917446164043        2.59511626274723        2.96064280653542     
  0.324614209401694       0.386743137246824       0.580801250138868     
  0.630119660936491       0.947013269748446        1.04527688422640     
   1.13345882052959        1.48846830192020        1.92229617202674     
   2.05811590887677        2.23278957803817        2.35903812403074     
   2.44205385317172        2.70852409558761        3.42564672714016     
  0.369147365468176       0.545167703036792       0.831851925482216     
   1.01958444349756        1.35083027592874        1.86842442119071     
   2.01002801217754        2.14937960360637        2.29874453119406     
   2.95541681424076       0.442427771540835        1.09047951070876     
   1.44421891555065        1.50067377075637        1.76978434058479     
   2.57014058204141        2.64316621991911        3.49525956562286     
 @CHECKOUT-I, Total execution time (CPU/WALL):        0.55/       0.10 seconds.
--executable xvtran finished with status     0 in        0.11 seconds (walltime).
 --invoking executable--
/home/tsommerfeld/zscale/bin/xintprc
 @GETMEM-I,  Allocated   85830 MB of main memory.
  Processing integrals for CCSD calculation.
  @GMOIAA-I, Processing MO integrals for spin case AA.
  @GMOIAA-I, Generation of integral list completed.
                      TYPE                NUMBER
                      ----               --------
                      PPPP                174781
                      PPPH                128448
                      PPHH                 24003
                      PHPH                 13755
                      PHHH                  5115
                      HHHH                   332

                     TOTAL                346434

  @FORMT2-I, Second-order MP correlation energies:
            ------------------------------------------------
            E(SCF)                  =    -78.427976526381 a.u.
            E2(AA)                  =     -0.034889728659 a.u.
            E2(AB)                  =     -0.253620538911 a.u.
            E2(TOT)                 =     -0.323399996229 a.u.
            Total MP2 energy        =    -78.751376522610 a.u.
            ------------------------------------------------
   Largest T2 amplitudes for spin case AB:
       _       _                 _       _                 _       _
   i   j   a   b             i   j   a   b             i   j   a   b
-----------------------------------------------------------------------------
[  5   5  10  10]-0.10695 [  4   4  25  25]-0.06957 [  5   4  25  25] 0.03342
[  4   5  25  25] 0.03342 [  5   5  41  41]-0.03332 [  5   4  10  10]-0.03153
[  4   5  10  10]-0.03153 [  5   5  25  25]-0.02925 [  4   4  10  10]-0.02803
[  5   5  12  12]-0.02427 [  4   3  25  31]-0.02380 [  3   4  31  25]-0.02380
[  5   5  28  28]-0.02368 [  3   3  31  31]-0.02222 [  5   4  28  25] 0.02164
-----------------------------------------------------------------------------
   Norm of T2AB vector (    47574 symmetry allowed elements):  0.3324789571.
-----------------------------------------------------------------------------
 @CHECKOUT-I, Total execution time (CPU/WALL):        0.41/       0.10 seconds.
--executable xintprc finished with status     0 in        0.11 seconds (walltime).
  calling xvcc 
 --invoking executable--
/home/tsommerfeld/zscale/bin/xvcc
 @GETMEM-I,  Allocated   85830 MB of main memory.
   CCSD energy will be calculated.
   The total correlation energy is -0.323399996229 a.u.
   The total correlation energy is -0.345724845040 a.u.
  Convergence information after     1 iterations: 
  Largest element of residual vector : -0.42752960E-01.
  Largest element of DIIS residual   : -0.42752960E-01.
   The total correlation energy is -0.356482006777 a.u.
  Convergence information after     2 iterations: 
  Largest element of residual vector : -0.24684042E-01.
  Largest element of DIIS residual   : -0.17474971E-01.
   The total correlation energy is -0.360618080797 a.u.
  Convergence information after     3 iterations: 
  Largest element of residual vector : -0.97537767E-02.
  Largest element of DIIS residual   : -0.40431548E-02.
   The total correlation energy is -0.362393508725 a.u.
  Convergence information after     4 iterations: 
  Largest element of residual vector : -0.31673353E-02.
  Largest element of DIIS residual   : -0.12060210E-02.
   The total correlation energy is -0.362565959787 a.u.
  Convergence information after     5 iterations: 
  Largest element of residual vector : -0.72958235E-03.
  Largest element of DIIS residual   : -0.29449471E-03.
   The total correlation energy is -0.362579112482 a.u.
  Convergence information after     6 iterations: 
  Largest element of residual vector : -0.23885935E-03.
  Largest element of DIIS residual   : -0.14173377E-03.
   The total correlation energy is -0.362562208424 a.u.
  Convergence information after     7 iterations: 
  Largest element of residual vector : -0.69823628E-04.
  Largest element of DIIS residual   : -0.34045450E-04.
   The total correlation energy is -0.362559453267 a.u.
  Convergence information after     8 iterations: 
  Largest element of residual vector : -0.23733284E-04.
  Largest element of DIIS residual   : -0.14060460E-04.
   The total correlation energy is -0.362559778031 a.u.
  Convergence information after     9 iterations: 
  Largest element of residual vector : -0.10907516E-04.
  Largest element of DIIS residual   : -0.65416046E-05.
   The total correlation energy is -0.362559884760 a.u.
  Convergence information after    10 iterations: 
  Largest element of residual vector : -0.33834251E-05.
  Largest element of DIIS residual   : -0.26475183E-05.
   The total correlation energy is -0.362560212876 a.u.
  Convergence information after    11 iterations: 
  Largest element of residual vector : -0.18762999E-05.
  Largest element of DIIS residual   : -0.10496853E-05.
   The total correlation energy is -0.362560259452 a.u.
  Convergence information after    12 iterations: 
  Largest element of residual vector :  0.52085880E-06.
  Largest element of DIIS residual   :  0.28993140E-06.
   The total correlation energy is -0.362560256286 a.u.
  Convergence information after    13 iterations: 
  Largest element of residual vector : -0.28140168E-06.
  Largest element of DIIS residual   : -0.17466162E-06.
   The total correlation energy is -0.362560248133 a.u.
  Convergence information after    14 iterations: 
  Largest element of residual vector : -0.10567378E-06.
  Largest element of DIIS residual   : -0.49329638E-07.
   The total correlation energy is -0.362560239571 a.u.
  Convergence information after    15 iterations: 
  Largest element of residual vector : -0.50139426E-07.
  Largest element of DIIS residual   : -0.35900829E-07.
  Amplitude equations converged in    15iterations.
   The total correlation energy is -0.362560235726 a.u.
   The CC iterations have converged.

   Largest T1 amplitudes for spin case AA:
   i       a                 i       a                 i       a    
-----------------------------------------------------------------------------
[  4      10    ]-0.02631 [  5      14    ]-0.02610 [  4      14    ] 0.01470
[  5      16    ]-0.01403 [  5      10    ] 0.01394 [  4      18    ]-0.01182
[  5      11    ]-0.00946 [  4      17    ] 0.00927 [  5      15    ] 0.00794
[  4      12    ]-0.00692 [  8      42    ]-0.00675 [  9      50    ]-0.00667
[  5      18    ] 0.00602 [  3      13    ]-0.00543 [  9      56    ] 0.00452
-----------------------------------------------------------------------------
   Norm of T1AA vector (      123 symmetry allowed elements):  0.0538459403.
-----------------------------------------------------------------------------
   Largest T2 amplitudes for spin case AB:
       _       _                 _       _                 _       _
   i   j   a   b             i   j   a   b             i   j   a   b
-----------------------------------------------------------------------------
[  5   5  10  10]-0.21045 [  4   4  25  25]-0.09614 [  5   4  25  25] 0.05738
[  4   5  25  25] 0.05738 [  5   4  10  10]-0.05695 [  4   5  10  10]-0.05695
[  5   5  25  25]-0.05602 [  5   5  41  41]-0.04579 [  5   5  16  10] 0.03647
[  5   5  10  16] 0.03647 [  5   5  12  12]-0.02842 [  5   5  28  28]-0.02842
[  5   4  28  25] 0.02724 [  4   5  25  28] 0.02724 [  4   4  10  10]-0.02625
-----------------------------------------------------------------------------
   Norm of T2AB vector (    47574 symmetry allowed elements):  0.4425302708.
-----------------------------------------------------------------------------
       Summary of iterative solution of CC equations 
      -----------------------------------------------------------
                       Correlation           Total
       Iteration         Energy              Energy
      -----------------------------------------------------------
            0        -0.323399996229     -78.751376522610  DIIS 
            1        -0.345724845040     -78.773701371421  DIIS 
            2        -0.356482006777     -78.784458533158  DIIS 
            3        -0.360618080797     -78.788594607178  DIIS 
            4        -0.362393508725     -78.790370035106  DIIS 
            5        -0.362565959787     -78.790542486167  DIIS 
            6        -0.362579112482     -78.790555638863  DIIS 
            7        -0.362562208424     -78.790538734804  DIIS 
            8        -0.362559453267     -78.790535979647  DIIS 
            9        -0.362559778031     -78.790536304412  DIIS 
           10        -0.362559884760     -78.790536411140  DIIS 
           11        -0.362560212876     -78.790536739257  DIIS 
           12        -0.362560259452     -78.790536785832  DIIS 
           13        -0.362560256286     -78.790536782667  DIIS 
           14        -0.362560248133     -78.790536774514  DIIS 
           15        -0.362560235726     -78.790536762106  DIIS 
      -----------------------------------------------------------
      A miracle has come to pass. The CC iterations have converged.
      The reference energy is       -78.42797652638066 a.u.
      The correlation energy is      -0.36256023572577 a.u.
      The total energy is           -78.79053676210643 a.u.
 @CHECKOUT-I, Total execution time (CPU/WALL):        5.08/       0.64 seconds.
--executable xvcc finished with status     0 in        0.66 seconds (walltime).
 --invoking executable--
/home/tsommerfeld/zscale/bin/xlambda
 @GETMEM-I,  Allocated   85830 MB of main memory.
 Hbar is calculated for a CCSD wave function.
 Calculation of Hbar completed.
 @CHECKOUT-I, Total execution time (CPU/WALL):        0.83/       0.12 seconds.
--executable xlambda finished with status     0 in        0.13 seconds (walltime).
 --invoking executable--
/home/tsommerfeld/zscale/bin/xvee
 @GETMEM-I,  Allocated   85830 MB of main memory.
  cc2 and ccprog  F                     0
  EOMEE-CCSD excitation energies will be evaluated.
  @SETMET-I, VPROP property integrals are used.
  @SETMET-I, A total of   3 target states will be studied.
  Summary of active alpha molecular orbitals:
------------------------------------------------------------------------------
Orbital      Sym   Eigenvalue  <xx>     <yy>     <zz>     <xy>     <xz>     <yz>
        SCF
  #  position
------------------------------------------------------------------------------
   1      1    1     -11.0765   0.000    0.000    0.000    0.000    0.000    0.000
   2      3    1      -0.8867   0.000    0.000    0.000    0.000    0.000    0.000
   3      6    1      -0.4095   0.000    0.000    0.000    0.000    0.000    0.000
   4      8    1      -0.2646   0.000    0.000    0.000    0.000    0.000    0.000
   5      9    1       0.0206   0.000    0.000    0.000    0.000    0.000    0.000
   6      2    2     -11.0748   0.000    0.000    0.000    0.000    0.000    0.000
   7      4    2      -0.6242   0.000    0.000    0.000    0.000    0.000    0.000
   8      5    3      -0.5014   0.000    0.000    0.000    0.000    0.000    0.000
   9      7    4      -0.3574   0.000    0.000    0.000    0.000    0.000    0.000
  10     10    1       0.2791   0.000    0.000    0.000    0.000    0.000    0.000
  11     13    1       0.3761   0.000    0.000    0.000    0.000    0.000    0.000
  12     19    1       0.6395   0.000    0.000    0.000    0.000    0.000    0.000
  13     20    1       0.7235   0.000    0.000    0.000    0.000    0.000    0.000
  14     22    1       0.8722   0.000    0.000    0.000    0.000    0.000    0.000
  15     26    1       1.0505   0.000    0.000    0.000    0.000    0.000    0.000
  16     28    1       1.0968   0.000    0.000    0.000    0.000    0.000    0.000
  17     31    1       1.4107   0.000    0.000    0.000    0.000    0.000    0.000
  18     35    1       1.5096   0.000    0.000    0.000    0.000    0.000    0.000
  19     36    1       1.7113   0.000    0.000    0.000    0.000    0.000    0.000
  20     42    1       2.0864   0.000    0.000    0.000    0.000    0.000    0.000
  21     43    1       2.1346   0.000    0.000    0.000    0.000    0.000    0.000
  22     49    1       2.4492   0.000    0.000    0.000    0.000    0.000    0.000
  23     51    1       2.5951   0.000    0.000    0.000    0.000    0.000    0.000
  24     55    1       2.9606   0.000    0.000    0.000    0.000    0.000    0.000
  25     11    2       0.3246   0.000    0.000    0.000    0.000    0.000    0.000
  26     14    2       0.3867   0.000    0.000    0.000    0.000    0.000    0.000
  27     17    2       0.5808   0.000    0.000    0.000    0.000    0.000    0.000
  28     18    2       0.6301   0.000    0.000    0.000    0.000    0.000    0.000
  29     23    2       0.9470   0.000    0.000    0.000    0.000    0.000    0.000
  30     25    2       1.0453   0.000    0.000    0.000    0.000    0.000    0.000
  31     29    2       1.1335   0.000    0.000    0.000    0.000    0.000    0.000
  32     33    2       1.4885   0.000    0.000    0.000    0.000    0.000    0.000
  33     39    2       1.9223   0.000    0.000    0.000    0.000    0.000    0.000
  34     41    2       2.0581   0.000    0.000    0.000    0.000    0.000    0.000
  35     45    2       2.2328   0.000    0.000    0.000    0.000    0.000    0.000
  36     47    2       2.3590   0.000    0.000    0.000    0.000    0.000    0.000
  37     48    2       2.4421   0.000    0.000    0.000    0.000    0.000    0.000
  38     53    2       2.7085   0.000    0.000    0.000    0.000    0.000    0.000
  39     56    2       3.4256   0.000    0.000    0.000    0.000    0.000    0.000
  40     12    3       0.3691   0.000    0.000    0.000    0.000    0.000    0.000
  41     16    3       0.5452   0.000    0.000    0.000    0.000    0.000    0.000
  42     21    3       0.8319   0.000    0.000    0.000    0.000    0.000    0.000
  43     24    3       1.0196   0.000    0.000    0.000    0.000    0.000    0.000
  44     30    3       1.3508   0.000    0.000    0.000    0.000    0.000    0.000
  45     38    3       1.8684   0.000    0.000    0.000    0.000    0.000    0.000
  46     40    3       2.0100   0.000    0.000    0.000    0.000    0.000    0.000
  47     44    3       2.1494   0.000    0.000    0.000    0.000    0.000    0.000
  48     46    3       2.2987   0.000    0.000    0.000    0.000    0.000    0.000
  49     54    3       2.9554   0.000    0.000    0.000    0.000    0.000    0.000
  50     15    4       0.4424   0.000    0.000    0.000    0.000    0.000    0.000
  51     27    4       1.0905   0.000    0.000    0.000    0.000    0.000    0.000
  52     32    4       1.4442   0.000    0.000    0.000    0.000    0.000    0.000
  53     34    4       1.5007   0.000    0.000    0.000    0.000    0.000    0.000
  54     37    4       1.7698   0.000    0.000    0.000    0.000    0.000    0.000
  55     50    4       2.5701   0.000    0.000    0.000    0.000    0.000    0.000
  56     52    4       2.6432   0.000    0.000    0.000    0.000    0.000    0.000
  57     57    4       3.4953   0.000    0.000    0.000    0.000    0.000    0.000
------------------------------------------------------------------------------
  @DRVTDA-I, Roots obtained by Davidson method.
  calling tda davidson                       6                     2
  after tda davidson                      6                     6
                     3                     3
  kroot is                      3
__________________________________________________________________________
    Tamm-Dancoff (CIS) Excitation Energies and Transition Moments

                Excitation         Transition Dipole         Oscillator
 Root  Symmetry  Energy         x           y           z     Strength
__________________________________________________________________________
   1       2    0.08661      0.0000      0.0000      0.0000  .00000000D+00
__________________________________________________________________________
 
__________________________________________________________________________
  TDA excitation ergy:             0.086608144637 a.u.    2.3567 eV
  Total TDA electronic energy:   -78.341368381744 a.u.
 
  Dominant contributions: 
  SCF eigenvalue ordering used in list below. 
--------------------------------------------------------------------------------
    I    j    A    b
--------------------------------------------------------------------------------
    9    0   11    0  -0.9898459423 AA  
    9    0   14    0  -0.0878482896 AA  
    9    0   18    0   0.0459480029 AA  
    9    0   23    0  -0.0360389774 AA  
    6    0   29    0  -0.0321194087 AA  
    9    0   17    0  -0.0283430537 AA  
    4    0   13    0   0.0256027629 AA  
    5    0   15    0   0.0246105528 AA  
    6    0   11    0   0.0230452595 AA  
    7    0   12    0   0.0229015992 AA  
    9    0   33    0   0.0226294276 AA  
    3    0   11    0   0.0215374888 AA  
    8    0   18    0   0.0192631045 AA  
    6    0   17    0  -0.0181810104 AA  
    6    0   18    0  -0.0172545502 AA  
--------------------------------------------------------------------------------
   2       2    0.19296      0.0000      0.0000      0.0000  .00000000D+00
__________________________________________________________________________
 
__________________________________________________________________________
  TDA excitation ergy:             0.192955924449 a.u.    5.2506 eV
  Total TDA electronic energy:   -78.235020601931 a.u.
 
  Dominant contributions: 
  SCF eigenvalue ordering used in list below. 
--------------------------------------------------------------------------------
    I    j    A    b
--------------------------------------------------------------------------------
    9    0   14    0  -0.9838057965 AA  
    8    0   11    0   0.1075954516 AA  
    9    0   11    0   0.0891048976 AA  
    8    0   14    0   0.0818733016 AA  
    9    0   23    0   0.0337914073 AA  
    9    0   25    0   0.0266624286 AA  
    6    0   11    0   0.0248535975 AA  
    7    0   12    0   0.0244711636 AA  
    8    0   25    0  -0.0226140791 AA  
    6    0   14    0   0.0217917422 AA  
    9    0   18    0  -0.0173031840 AA  
    8    0   18    0   0.0142040214 AA  
    9    0   33    0   0.0111377866 AA  
    7    0   21    0  -0.0105881557 AA  
    6    0   18    0   0.0105421927 AA  
--------------------------------------------------------------------------------
   3       2    0.34479      0.0000      0.0000      0.0000  .00000000D+00
__________________________________________________________________________
 
__________________________________________________________________________
  TDA excitation ergy:             0.344785868234 a.u.    9.3821 eV
  Total TDA electronic energy:   -78.083190658147 a.u.
 
  Dominant contributions: 
  SCF eigenvalue ordering used in list below. 
--------------------------------------------------------------------------------
    I    j    A    b
--------------------------------------------------------------------------------
    8    0   11    0   0.8558755218 AA  
    9    0   17    0  -0.3970049252 AA  
    9    0   18    0   0.1816134875 AA  
    6    0   11    0   0.1432582087 AA  
    9    0   14    0   0.0979008266 AA  
    7    0   12    0   0.0745332092 AA  
    5    0   15    0   0.0691484543 AA  
    4    0   13    0   0.0681532332 AA  
    6    0   17    0  -0.0642470581 AA  
    6    0   29    0  -0.0636029865 AA  
    7    0   21    0   0.0506482869 AA  
    8    0   23    0   0.0475974397 AA  
    6    0   14    0   0.0440831916 AA  
    8    0   18    0   0.0424171581 AA  
    6    0   18    0  -0.0394226664 AA  
--------------------------------------------------------------------------------
__________________________________________________________________________
  @DOEOMEE-I, Excitation energies computed by the EOMEE-CCSD/CCSD-LR method.
  @DOEOMEE-I, right-hand eigenvectors will be computed.
  Beginning symmetry block   2.   3 roots requested.
  @DOEOMEE-I, Matrix dimension for diagonalization:    47661
  Creating initial guess for root
________________________________________________________________________
            Subspace          Eigenvalue           
 Iteration  Dimension   (a.u.)         (eV)       Overlap      Residual
________________________________________________________________________
  @NEWGES-I, Using TDA initial guess.
  1   1  0.1742474381D+00  0.4741513846D+01  0.0000000000D+00  0.3801614179D+00
  2   2  0.9270228393D-01  0.2522557390D+01  0.9615431122D+00  0.1649168057D+00
  3   3  0.8323467604D-01  0.2264930682D+01  0.9919117172D+00  0.4516255438D-01
  4   4  0.8229709246D-01  0.2239417736D+01  0.9989035829D+00  0.1844408643D-01
  5   5  0.8201320745D-01  0.2231692832D+01  0.9997878054D+00  0.5930234744D-02
  6   6  0.8196291764D-01  0.2230324377D+01  0.9999776320D+00  0.2416571221D-02
  L-O-C-K-I-N-G O-N R-O-O-T 
  7   7  0.8195557698D-01  0.2230124627D+01  0.9999962708D+00  0.1024011339D-02
  8   8  0.8195225629D-01  0.2230034266D+01  0.9999994825D+00  0.2860333900D-03
  9   9  0.8195120106D-01  0.2230005552D+01  0.9999999579D+00  0.9819134648D-04
 10  10  0.8195165703D-01  0.2230017960D+01  0.9999999953D+00  0.4015418536D-04
 11  11  0.8195143019D-01  0.2230011787D+01  0.9999999990D+00  0.1241084130D-04
 12  12  0.8195154801D-01  0.2230014993D+01  0.9999999999D+00  0.4914818371D-05
  Converged eigenvalue:   8.195154800951299E-002  a.u.
   Total EOMEE-CCSD electronic energy      -78.708585214096914 a.u.
  Converged eigenvector 
  SCF eigenvalue ordering used in list below. 
--------------------------------------------------------------------------------
    I    j    A    b
--------------------------------------------------------------------------------
    9    0   11    0   0.6695772449 AA  
    9    8   11   10   0.0930180935 ABAB
    8    9   10   11   0.0930180935 ABAB
    9    0   14    0   0.0685536694 AA  
    9    8   10   11   0.0564914058 ABAB
    8    9   11   10   0.0564914058 ABAB
    9    9   11   19   0.0496190448 ABAB
    9    9   19   11   0.0496190448 ABAB
    9    0   23    0   0.0439615791 AA  
    8    8   11   10   0.0425141092 ABAB
    8    8   10   11   0.0425141092 ABAB
    8    0   11    0   0.0412237100 AA  
    9    9   11   22   0.0360244619 ABAB
    9    9   22   11   0.0360244619 ABAB
    9    8   11   22  -0.0242068358 ABAB
--------------------------------------------------------------------------------
  Converged eigenvector, normalized to one 
  SCF eigenvalue ordering used in list below. 
--------------------------------------------------------------------------------
    I    j    A    b
--------------------------------------------------------------------------------
    9    0   11    0   0.6695772449 AA  
    9    8   11   10   0.0930180935 ABAB
    8    9   10   11   0.0930180935 ABAB
    9    0   14    0   0.0685536694 AA  
    9    8   10   11   0.0564914058 ABAB
    8    9   11   10   0.0564914058 ABAB
    9    9   11   19   0.0496190448 ABAB
    9    9   19   11   0.0496190448 ABAB
    9    0   23    0   0.0439615791 AA  
    8    8   11   10   0.0425141092 ABAB
    8    8   10   11   0.0425141092 ABAB
    8    0   11    0   0.0412237100 AA  
    9    9   11   22   0.0360244619 ABAB
    9    9   22   11   0.0360244619 ABAB
    9    8   11   22  -0.0242068358 ABAB
--------------------------------------------------------------------------------

  Eigenvector is saved on CCRE_2_1  

  Adding new vector to expansion space.
  Guess for next eigenvalue   0.192955924449230     
 13  13  0.2054335912D+00  0.5590132213D+01  0.8715697167D+00  0.2571417513D+00
 14  14  0.1830919745D+00  0.4982185917D+01  0.9835829319D+00  0.1120999771D+00
 15  15  0.1793421769D+00  0.4880148736D+01  0.9877243041D+00  0.3054637944D-01
 16  16  0.1788180480D+00  0.4865886463D+01  0.9990294514D+00  0.8896346534D-02
 17  17  0.1787454990D+00  0.4863912305D+01  0.9999207600D+00  0.3305072460D-02
  L-O-C-K-I-N-G O-N R-O-O-T 
 18  18  0.1787494594D+00  0.4864020073D+01  0.9999947740D+00  0.8388197870D-03
 19  19  0.1787465319D+00  0.4863940411D+01  0.9999996476D+00  0.3492145540D-03
 20  20  0.1787459362D+00  0.4863924201D+01  0.9999999288D+00  0.1044945680D-03
 21  21  0.1787460616D+00  0.4863927614D+01  0.9999999926D+00  0.5652514010D-04
 22  22  0.1787459548D+00  0.4863924708D+01  0.9999999981D+00  0.1424542793D-04
 23  23  0.1787459634D+00  0.4863924941D+01  0.9999999999D+00  0.5679646993D-05
  Converged eigenvalue:   0.178745963402217       a.u.
   Total EOMEE-CCSD electronic energy      -78.611790798704206 a.u.
  Converged eigenvector 
  SCF eigenvalue ordering used in list below. 
--------------------------------------------------------------------------------
    I    j    A    b
--------------------------------------------------------------------------------
    9    0   14    0   0.6574934908 AA  
    9    9   14   10   0.1633247902 ABAB
    9    9   10   14   0.1633247902 ABAB
    9    0   11    0  -0.0637005636 AA  
    9    9   11   10  -0.0557962001 ABAB
    9    9   10   11  -0.0557962001 ABAB
    9    8   14   10   0.0531231795 ABAB
    8    9   10   14   0.0531231795 ABAB
    8    0   11    0  -0.0509355477 AA  
    9    9   11   13  -0.0466896353 ABAB
    9    9   13   11  -0.0466896353 ABAB
    9    8   13   11   0.0394960633 ABAB
    8    9   11   13   0.0394960633 ABAB
    9    8   10   14   0.0341266186 ABAB
    8    9   14   10   0.0341266186 ABAB
--------------------------------------------------------------------------------
  Converged eigenvector, normalized to one 
  SCF eigenvalue ordering used in list below. 
--------------------------------------------------------------------------------
    I    j    A    b
--------------------------------------------------------------------------------
    9    0   14    0   0.6574934908 AA  
    9    9   14   10   0.1633247902 ABAB
    9    9   10   14   0.1633247902 ABAB
    9    0   11    0  -0.0637005636 AA  
    9    9   11   10  -0.0557962001 ABAB
    9    9   10   11  -0.0557962001 ABAB
    9    8   14   10   0.0531231795 ABAB
    8    9   10   14   0.0531231795 ABAB
    8    0   11    0  -0.0509355477 AA  
    9    9   11   13  -0.0466896353 ABAB
    9    9   13   11  -0.0466896353 ABAB
    9    8   13   11   0.0394960633 ABAB
    8    9   11   13   0.0394960633 ABAB
    9    8   10   14   0.0341266186 ABAB
    8    9   14   10   0.0341266186 ABAB
--------------------------------------------------------------------------------

  Eigenvector is saved on CCRE_2_2  

  Adding new vector to expansion space.
  Guess for next eigenvalue   0.344785868234160     
 24  24  0.2236856929D+00  0.6086797151D+01  0.2959624401D-01  0.3807880059D+00
 25  25  0.2144923833D+00  0.5836634478D+01  0.9924746560D+00  0.4653775293D-01
 26  26  0.2134179645D+00  0.5807398057D+01  0.9987548551D+00  0.1198535389D-01
 27  27  0.2133038503D+00  0.5804292852D+01  0.9999114955D+00  0.3812235080D-02
  L-O-C-K-I-N-G O-N R-O-O-T 
 28  28  0.2132971551D+00  0.5804110666D+01  0.9999920652D+00  0.1266687019D-02
 29  29  0.2132960538D+00  0.5804080699D+01  0.9999992329D+00  0.3967053666D-03
 30  30  0.2132965322D+00  0.5804093714D+01  0.9999999310D+00  0.1303319949D-03
 31  31  0.2132965817D+00  0.5804095062D+01  0.9999999909D+00  0.3964744715D-04
 32  32  0.2132965992D+00  0.5804095540D+01  0.9999999990D+00  0.1499108636D-04
 33  33  0.2132965909D+00  0.5804095312D+01  0.9999999999D+00  0.4664240434D-05
  Converged eigenvalue:   0.213296590876133       a.u.
   Total EOMEE-CCSD electronic energy      -78.577240171230301 a.u.
  Converged eigenvector 
  SCF eigenvalue ordering used in list below. 
--------------------------------------------------------------------------------
    I    j    A    b
--------------------------------------------------------------------------------
    9    9   11   10   0.6389032451 ABAB
    9    9   10   11   0.6389032451 ABAB
    9    8   11   10  -0.1771498879 ABAB
    8    9   10   11  -0.1771498879 ABAB
    8    8   11   10  -0.0846198556 ABAB
    8    8   10   11  -0.0846198556 ABAB
    9    9   11   13  -0.0625731137 ABAB
    9    9   13   11  -0.0625731137 ABAB
    9    0   14    0   0.0546988723 AA  
    9    9   11   28  -0.0469525764 ABAB
    9    9   28   11  -0.0469525764 ABAB
    9    9   14   10   0.0452789793 ABAB
    9    9   10   14   0.0452789793 ABAB
    9    0   11    0   0.0437700506 AA  
    9    9   23   10   0.0422191123 ABAB
--------------------------------------------------------------------------------
  Converged eigenvector, normalized to one 
  SCF eigenvalue ordering used in list below. 
--------------------------------------------------------------------------------
    I    j    A    b
--------------------------------------------------------------------------------
    9    9   11   10   0.6389032451 ABAB
    9    9   10   11   0.6389032451 ABAB
    9    8   11   10  -0.1771498879 ABAB
    8    9   10   11  -0.1771498879 ABAB
    8    8   11   10  -0.0846198556 ABAB
    8    8   10   11  -0.0846198556 ABAB
    9    9   11   13  -0.0625731137 ABAB
    9    9   13   11  -0.0625731137 ABAB
    9    0   14    0   0.0546988723 AA  
    9    9   11   28  -0.0469525764 ABAB
    9    9   28   11  -0.0469525764 ABAB
    9    9   14   10   0.0452789793 ABAB
    9    9   10   14   0.0452789793 ABAB
    9    0   11    0   0.0437700506 AA  
    9    9   23   10   0.0422191123 ABAB
--------------------------------------------------------------------------------

  Eigenvector is saved on CCRE_2_3  

  Solution of   3 roots required   33 iterations.
 @CHECKOUT-I, Total execution time (CPU/WALL):       19.49/       2.45 seconds.
--executable xvee finished with status     0 in        2.47 seconds (walltime).
  The final electronic energy is       -78.577240171230301 a.u. 
  This computation required                            4.07 seconds (walltime).
