CFour on node02
 --invoking executable--
/home/tsommerfeld/zscale/bin/xjoda


   *************************************************************************
         <<<     CCCCCC     CCCCCC   |||     CCCCCC     CCCCCC   >>>
       <<<      CCC        CCC       |||    CCC        CCC         >>>
      <<<      CCC        CCC        |||   CCC        CCC            >>>
    <<<        CCC        CCC        |||   CCC        CCC              >>>
      <<<      CCC        CCC        |||   CCC        CCC            >>>
       <<<      CCC        CCC       |||    CCC        CCC         >>>
         <<<     CCCCCC     CCCCCC   |||     CCCCCC     CCCCCC   >>>
   *************************************************************************

     ****************************************************************
     * CFOUR Coupled-Cluster techniques for Computational Chemistry *
     ****************************************************************
 

   Department of Chemistry                Institut fuer Physikalische Chemie
   University of Florida                  Universitaet Mainz
   Gainesville, FL 32611, USA             D-55099 Mainz, Germany

   Department of Chemistry                Department of Chemistry
   Johns Hopkins University               Southern Methodist University
   Baltimore, MD 21218, USA               Dallas, TX 75275, USA

   Institute of Nanotechnology            Department of Physical Chemistry
   Karlsruhe Inst. of Technology          Eotvos Lorand University
   D-76021 Karlsruhe, Germany             H-1053 Budapest, Hungary

 
                       Version 2.1
 
                     node02                                            
                     Tue Mar 29 15:01:56 CST 2022                      
                     integer*8 version is running
 
********************************************************************************
*                          Input from ZMAT file                                *
********************************************************************************
h_ethylene                                                                      
C       0.000000      0.0   -0.664500                                           
C       0.000000      0.0    0.664500                                           
H       0.962348      0.0   -1.159080                                           
H       0.962348      0.0    1.159080                                           
H      -0.962348      0.0   -1.159080                                           
H      -0.962348      0.0    1.159080                                           
H      0.000000      1.4310344827586208      0.000000                           
                                                                                
*CFOUR(CALC=CCSD                                                                
EXCITE=EOMEE                                                                    
ESTATE_SYM=0/3/0/0                                                              
CC_PROG=VCC                                                                     
CHARGE=-1                                                                       
COORDINATES=CARTESIAN                                                           
SCF_DAMP=500                                                                    
SCF_MAXCYC=300                                                                  
BASIS=SPECIAL                                                                   
REFERENCE=RHF                                                                   
MEM_SIZE=90,MEM_UNIT=GB)                                                        
                                                                                
C:CC-PVDZ                                                                       
C:CC-PVDZ                                                                       
H:CC-PVDZ                                                                       
H:CC-PVDZ                                                                       
H:CC-PVDZ                                                                       
H:CC-PVDZ                                                                       
H:AUG-CC-PVDZ                                                                   
                                                                                
********************************************************************************
    -------------------------------------------------------------------
                    CFOUR Control Parameters 
    -------------------------------------------------------------------
        External           Internal           Value            Units
          Name               Name
    -------------------------------------------------------------------
       ABCDTYPE             IABCDT         STANDARD    [  0]    ***   
       ANHARMONIC           IANHAR         OFF         [  0]    ***   
       ANH_ALGORIT          IANALG         STANDARD    [  0]    ***   
       ANH_DERIVAT          IANDER         SECOND      [  1]    ***   
       ANH_MODE             ANHMOD         VIBRATION   [  0]    ***   
       ANH_STEPSIZ          ICUBST             50000          x 10-6  
       ANH_SYMMETR          IANHSM         ABELIAN     [  0]    ***   
       AO_LADDERS           IAOLAD         SINGLEPASS  [  1]    ***   
       AV_SCF               IAVSCF         OFF         [  0]    ***   
       BASIS                IBASIS         SPECIAL     [  0]    ***   
       BOTHVECTORS          BOTHVC         OFF         [  0]    ***   
       BOX_POTENT           IPIAB          OFF         [  0]    ***   
       BREIT                IBREIT         OFF         [  0]    ***   
       BRUCK_CONV           IBRTOL          10D-  4             ***   
       BRUECKNER            IBRKNR         OFF         [  0]    ***   
       BUFFERSIZE           IBUFFS              4096            ***   
       CACHE_RECS           ICHREC             10               ***   
       CALCLEVEL            ICLLVL         CCSD        [ 10]    ***   
       CCORBOPT             ICCORB         OFF         [  0]  x 0.01  
       CC_CONV              ICCCNV          10D-  7             ***   
       CC_EXPORDER          ICCEOR              5               ***   
       CC_EXTRAPOL          ICCEXT         DIIS        [  1]    ***   
       CC_GUESS             ICCGES         MP2         [  0]    ***   
       CC_MAXCYC            ICCCYC            100              cycles 
       CC_PROGRAM           ICCPRO         VCC         [  0]    ***   
       CHARGE               ICHRGE             -1               ***   
       CHOLESKY             ICHOLE         OFF         [  0]    ***   
       CIS_CONV             ICISTL              5               ***   
       COMM_SIZE            IPSIZE            ***               ***   
       CONSTANT             ICONST         OLD         [  1]    ***   
       CONTINUUM            ICONTU         NONE        [  0]    ***   
       CONTRACTION          ICNTYP         GENERAL     [  1]    ***   
       COORDINATES          ICOORD         CARTESIAN   [  1]    ***   
       CPHF_CONVER          ICPHFT          10D- 16             ***   
       CPHF_MAXCYC          ICPHFC             64              cycles 
       CUBIC                ICUBIC         OFF         [  0]    ***   
       CURVILINEAR          ICURVY         OFF         [  0]    ***   
       DBOC                 IDBOC          OFF         [  0]    ***   
       DCT                  IDCT           OFF         [  0]    ***   
       DERIV_LEV            IDRLVL         ZERO        [  0]    ***   
       DEVMEM_SIZE          IDVMEM         *********           MByte  
       DIAG_MRCC            IEOMST          10D-  0             ***   
       DIFF_TYPE            IDIFTY         RELAXED     [  0]    ***   
       DIRECT               IDIRCT         OFF         [  0]    ***   
       DROPMO               IDRPMO      NONE         
       ECP                  IECP           OFF         [  0]    ***   
       EIGENVECTOR          IVEC                1               ***   
       EL_ANHARM            IELANH         OFF         [  0]    ***   
       EOMFOLLOW            IEOMSR         ENERGY      [  0]    ***   
       EOMIP                IEOMIP         OFF         [  0]    ***   
       EOMLEVEL             HBARFM         SAME        [  0]    ***   
       EOM_MRCC             IMRCCE         NEW         [  1]    ***   
       EOM_NONIT            EOMNON         OFF         [  0]    ***   
       EOM_NSING            IEOMSI          10D-  0             ***   
       EOM_NSTATES          IMRCCD         DAVIDSON    [  0]    ***   
       EOM_NTRIP            IEOMTR          10D-  0             ***   
       EOM_ORDER            IEXORD         ENERGY      [  0]    ***   
       EOM_PROPSTA          IEOMST              0               ***   
       ESTATE_CONV          IEXTOL          10D-  5             ***   
       ESTATE_DIAG          IEXDIG         ITERATIVE   [  0]    ***   
       ESTATE_LOCK          IESLOC         ON          [  1]    ***   
       ESTATE_MAXC          IEXMXC             40               ***   
       ESTATE_PROP          IEXPRP         OFF         [  0]    ***   
       ESTATE_SYM           IEXSYM   0,  3,  0,  0,
       EVAL_HESS            IRECAL              0            # of cyc.
       EXCITATION           IEXCIT              0               ***   
       EXCITE               IEXCIT         EOMEE       [  3]    ***   
       EXTERN_POT           IEXPOT         OFF         [  0]    ***   
       FCGRADNEW            IFCGNW         OFF         [  0]    ***   
       FC_FIELD             IFINFC              0             x 10-6  
       FD_CALTYPE           IFDCAL         GRADONLY    [  0]    ***   
       FD_PROJECT           IFDPRJ         OFF         [  1]    ***   
       FD_STEPSIZE          IDISFD              0            10-4 bohr
       FD_USEGROUP          IFDGRP         FULL        [  0]    ***   
       FILE_RECSIZ          IFLREC              4096           words  
       FINITE_PERT          IFIPER              0             x 10-6  
       FIXGEOM              IFIXGM         OFF         [  0]    ***   
       FOCK                 IFOCK          AO          [  1]    ***   
       FREQ_ALGORI          IVIALG         STANDARD    [  0]    ***   
       FROZEN_CORE          IFROCO         OFF         [  0]    ***   
       GAMMA_ABCD           IGABCD         STORE       [  0]    ***   
       GAMMA_ABCI           IGABCI         STORE       [  0]    ***   
       GENBAS_1             IGNBS1              0               ***   
       GENBAS_2             IGNBS2              0               ***   
       GENBAS_3             IGNBS3              0               ***   
       GENBAS_4             IGNBS4              0               ***   
       GEO_CONV             ICONTL              5              H/bohr 
       GEO_MAXCYC           IOPTCY             50               ***   
       GEO_MAXSTEP          IMXSTP            300            millibohr
       GEO_METHOD           INR            SINGLE_POINT[  5]    ***   
       GIAO                 IGIAO          OFF         [  1]    ***   
       GIMIC                IGIMIC         OFF         [  0]    ***   
       GRID                 IGRID          OFF         [  0]    ***   
       GRID_ALGO            IGALGO         SERIAL      [  0]    ***   
       GUESS                IGUESS         MOREAD      [  0]    ***   
       HBAR                 IHBAR          ON          [  1]    ***   
       HESS_TYPE            IHESTP         SCF         [  0]    ***   
       HF2_FILE             IHF2Fl         USE         [  1]    ***   
       HFSTABILITY          ISTABL         OFF         [  0]    ***   
       INCORE               INCORE         OFF         [  0]    ***   
       INPUT_MRCC           IMRCC          ON          [  1]    ***   
       INTEGRALS            INTTYP         VMOL        [  1]    ***   
       JODA_PRINT           IJPRNT              0               ***   
       KEYWORD_OUT          IDMPKW         NO          [  0]    ***   
       LINDEP_TOL           ILINDP              8               ***   
       LINEQ_CONV           IZTACN          10D-  7           cycles  
       LINEQ_EXPOR          ILMAXD              5               ***   
       LINEQ_MAXCY          ILMAXC            100               ***   
       LINEQ_TYPE           ILTYPE         DIIS        [  1]    ***   
       LOCK_ORBOCC          ILOCOC         OFF         [  0]    ***   
       MEMORY_SIZE          IMEMSZ         *********           words  
       MEM_UNIT             IMEMU          GB          [  3]    ***   
       MRCC                 IMRCCC         OFF         [  0]    ***   
       MULTIPLICTY          IMULTP              1               ***   
       NACOUPLING           IVCOUP         OFF         [  0]    ***   
       NEGEVAL              IDIE           ABORT       [  0]    ***   
       NEWNORM              INEWNO         OFF         [  0]    ***   
       NON-HF               INONHF         OFF         [  0]    ***   
       NTOP_TAMP            ITOPT2             15               ***   
       NUC_MODEL            INUCMO         POINT       [  0]    ***   
       OCCUPATION           IOCCU   ESTIMATED BY SCF 
       OPEN-SHELL           IOPEN          SPIN-ORBITAL[  0]    ***   
       OPTVIB               IOPTVB         OFF         [  0]    ***   
       ORBITALS             IORBTP         STANDARD    [  0]    ***   
       PARALLEL             IPARAL         ON          [  1]    ***   
       PARA_INT             IPINTS         ON          [  1]    ***   
       PARA_PRINT           IPPRIN              0               ***   
       PERT_ORB             IPTORB         STANDARD    [  0]    ***   
       POINTS               IGRDFD              0               ***   
       PRINT                IPRNT               0               ***   
       PROPS                IPROPS         OFF         [  0]    ***   
       PROP_INTEGR          IINTYP         INTERNAL    [  0]    ***   
       PSI                  IPSI           OFF         [  0]    ***   
       QC_ALG               IQCALG         FLM         [  0]    ***   
       QC_LINALG            IQCLIN         TRIDIAG     [  2]    ***   
       QC_MAXCYC            IQCMAX          10D-100           cycles  
       QC_MAXSCFCY          IQCMSC          10D- 15           cycles  
       QC_RTRUST            IQCRTR          10D-  0           x 10-3  
       QC_SKIPSCF           IQCSKI         OFF         [  0]    ***   
       QC_START             IQCSTA          10D-  1             ***   
       QRHFGUESS            IQGUES         OFF         [  0]    ***   
       QUARTIC              IQUART         OFF         [  0]    ***   
       RAMAN_INT            IRAMIN         OFF         [  0]    ***   
       RAMAN_ORB            IRAMRE         UNRELAXED   [  0]    ***   
       RDO                  IRDOFM         OFF         [  0]    ***   
       REDUCE_REPR          REDREP         Ir          [  0]    ***   
       REFERENCE            IREFNC         RHF         [  0]    ***   
       RELATIVIST           IRELAT         OFF         [  0]    ***   
       RELAX_DENS           IRDENS         OFF         [  0]    ***   
       RESET_FLAGS          IRESET         OFF         [  0]    ***   
       RESTART_CC           ICCRES         OFF         [  0]    ***   
       ROT_EVEC             ROTVEC              0               ***   
       SAVE_INTS            ISVINT         OFF         [  0]    ***   
       SCALE_ON             ISTCRT              0               ***   
       SCF_CONV             ISCFCV          10D-  7             ***   
       SCF_DAMPING          IDAMP             500             x 10-3  
       SCF_EXPORDE          IRPPOR              6               ***   
       SCF_EXPSTAR          IRPPLS              8               ***   
       SCF_EXTRAPO          IRPP           ON          [  1]    ***   
       SCF_MAXCYC           ISCFCY            300              cycles 
       SCF_NOSTOP           ISCFST         OFF         [  0]    ***   
       SCF_PRINT            ISCFPR              0               ***   
       SCF_PROG             ISCFPR         SCF         [  0]    ***   
       SD_FIELD             IFINSD              0             x 10-6  
       SOPERT               IPERSO         OFF         [  0]    ***   
       SPHERICAL            IDFGHI         ON          [  1]    ***   
       SPINORBIT            ISOCAL         OFF         [  0]    ***   
       SPINROTATIO          ISRCON         OFF         [  0]    ***   
       SPIN_FLIP            ISPFLP         OFF         [  0]    ***   
       SPIN_ORBIT           ISPORB         OFF         [  0]    ***   
       SPIN_SCAL            ISCSMP         OFF         [  0]    ***   
       STEEPSCALE           ISTPSC              1000          x 10-3  
       SUBGROUP             ISUBGP         DEFAULT     [  0]    ***   
       SUBGRPAXIS           ISBXYZ         X           [  0]    ***   
       SYMMETRY             ISYM           ON          [  0]    ***   
       SYM_CHECK            ISYMCK         OVERRIDE    [  1]    ***   
       T3_EXTRAPOL          IT3EXT         OFF         [  0]    ***   
       T4_EXTRAPOL          IT4EXP         OFF         [  0]    ***   
       TAMP_SUM             IEVERY              5               ***   
       TESTSUITE            ITESTS         OFF         [  0]    ***   
       THERMOCH             ITHERM         OFF         [  0]    ***   
       TOL_CHOLESK          ITOLCH          10D-  4             ***   
       TRANGRAD             IRESRM         OFF         [  0]    ***   
       TRANS_INV            ITRAIN         USE         [  0]    ***   
       TREAT_PERT           ITREAT         SIMULTANEOUS[  0]    ***   
       TRIP_ALGORI          ITRALG         NORMAL      [  0]    ***   
       UIJ_THRESHO          IUIJTH              1               ***   
       UNITS                IUNITS         ANGSTROM    [  0]    ***   
       UNOS                 IUNOS          OFF         [  0]    ***   
       UPDATE_HESS          IHUPDT         ON          [  1]    ***   
       VIBPHASE             ISETPH         STANDARD    [  0]    ***   
       VIBRATION            IVIB           NO          [  0]    ***   
       VIB_ALGORIT          IGEALG         STANDARD    [  0]    ***   
       VNATORB              IVNORB         OFF         [  0]    ***   
       VTRAN                IVTRAN         FULL/PARTIAL[  0]    ***   
       XFIELD               IXEFLD              0             x 10-6  
       XFORM_TOL            IXFTOL          10D- 11             ***   
       YFIELD               IYEFLD              0             x 10-6  
       ZFIELD               IZEFLD              0             x 10-6  
       ZSCALE_EXP           IZEXPS         OFF         [  0]    ***   
    -------------------------------------------------------------------
  @GETXYZ-I,     7 atoms read from ZMAT.
   Rotational constants (in cm-1): 
          0.8536890782             0.9362428665             2.9442056075
   Rotational constants (in MHz): 
      25592.9582983935         28067.8589548889         88265.0759572520
********************************************************************************
   The full molecular point group is C2v .
   The largest Abelian subgroup of the full molecular point group is C2v .
   The computational point group is C2v .
********************************************************************************


 ----------------------------------------------------------------
         Coordinates used in calculation (QCOMP) 
 ----------------------------------------------------------------
 Z-matrix   Atomic            Coordinates (in bohr)
  Symbol    Number           X              Y              Z
 ----------------------------------------------------------------
     C         6        -1.25572327     0.00000000    -0.09385354
     C         6         1.25572327     0.00000000    -0.09385354
     H         1        -2.19034422     1.81857454    -0.09385354
     H         1         2.19034422     1.81857454    -0.09385354
     H         1        -2.19034422    -1.81857454    -0.09385354
     H         1         2.19034422    -1.81857454    -0.09385354
     H         1         0.00000000     0.00000000     2.61041027
 ----------------------------------------------------------------
 
   Interatomic distance matrix (Angstroms) 
 
                 C             C             H             H             H    
                [ 1]        [ 2]        [ 3]        [ 4]        [ 5]
  C    [ 1]     0.00000
  C    [ 2]     1.32900     0.00000
  H    [ 3]     1.08200     2.06193     0.00000
  H    [ 4]     2.06193     1.08200     2.31816     0.00000
  H    [ 5]     1.08200     2.06193     1.92470     3.01303     0.00000
  H    [ 6]     2.06193     1.08200     3.01303     1.92470     2.31816
  H    [ 7]     1.57779     1.57779     2.07785     2.07785     2.07785
 
                 H             H    
                [ 6]        [ 7]
  H    [ 6]     0.00000
  H    [ 7]     2.07785     0.00000
 rotcon2
   Rotational constants (in cm-1): 
          2.9442056075             0.9362428665             0.8536890782
   Rotational constants (in MHz): 
      88265.0759572520         28067.8589548889         25592.9582983935
  ECPDATA file not present.   Using default ECPDATA. 
  There are   57 basis functions.
 @GEOPT-W, Archive file not created for single-point calculation.
 @CHECKOUT-I, Total execution time (CPU/WALL):        0.12/       0.14 seconds.
--executable xjoda finished with status     0 in        0.15 seconds (walltime).
 --invoking executable--
/home/tsommerfeld/zscale/bin/xvmol
 SERIAL VERSION OF MOLECULE STARTED
********************************************************************************
                    INPUT FROM MOL FILE
********************************************************************************
INTGRL        1    0    1    0    0    0    0    0    0                         
         *** CFOUR Program System (Release V0.1) ***                            
h_ethylene                                                                      
    3    2 X  Y       0.10E-08              0    0                              
   9999.00      3.00                                                            
          6.00000000    1    3    1    1    1                                   
C #1  -1.255723272983657   0.000000000000000  -0.093853542647334                
    9    3                                                                      
   6665.00000000000       6.920000000000000E-004 -1.460000000000000E-004        
  0.000000000000000E+000                                                        
   1000.00000000000       5.329000000000000E-003 -1.154000000000000E-003        
  0.000000000000000E+000                                                        
   228.000000000000       2.707700000000000E-002 -5.725000000000000E-003        
  0.000000000000000E+000                                                        
   64.7100000000000       0.101718000000000      -2.331200000000000E-002        
  0.000000000000000E+000                                                        
   21.0600000000000       0.274740000000000      -6.395500000000000E-002        
  0.000000000000000E+000                                                        
   7.49500000000000       0.448564000000000      -0.149981000000000             
  0.000000000000000E+000                                                        
   2.79700000000000       0.285074000000000      -0.127262000000000             
  0.000000000000000E+000                                                        
  0.521500000000000       1.520400000000000E-002  0.544529000000000             
  0.000000000000000E+000                                                        
  0.159600000000000      -3.191000000000000E-003  0.580496000000000             
   1.00000000000000                                                             
    4    2                                                                      
   9.43900000000000       3.810900000000000E-002  0.000000000000000E+000        
   2.00200000000000       0.209480000000000       0.000000000000000E+000        
  0.545600000000000       0.508557000000000       0.000000000000000E+000        
  0.151700000000000       0.468842000000000        1.00000000000000             
    1    1                                                                      
  0.550000000000000        1.00000000000000                                     
          1.00000000    1    2    1    1                                        
H #2  -2.190344215575466   1.818574537711477  -0.093853542647334                
    4    2                                                                      
   13.0100000000000       1.968500000000000E-002  0.000000000000000E+000        
   1.96200000000000       0.137977000000000       0.000000000000000E+000        
  0.444600000000000       0.478148000000000       0.000000000000000E+000        
  0.122000000000000       0.501240000000000        1.00000000000000             
    1    1                                                                      
  0.727000000000000        1.00000000000000                                     
          1.00000000    1    2    1    1                                        
H #3   0.000000000000000   0.000000000000000   2.610410271411553                
    5    3                                                                      
   13.0100000000000       1.968500000000000E-002  0.000000000000000E+000        
  0.000000000000000E+000                                                        
   1.96200000000000       0.137977000000000       0.000000000000000E+000        
  0.000000000000000E+000                                                        
  0.444600000000000       0.478148000000000       0.000000000000000E+000        
  0.000000000000000E+000                                                        
  0.122000000000000       0.501240000000000        1.00000000000000             
  0.000000000000000E+000                                                        
  2.974000000000000E-002  0.000000000000000E+000  0.000000000000000E+000        
   1.00000000000000                                                             
    2    2                                                                      
  0.727000000000000        1.00000000000000       0.000000000000000E+000        
  0.141000000000000       0.000000000000000E+000   1.00000000000000             
FINISH                                                                          
 
********************************************************************************
 ONE- AND TWO-ELECTRON INTEGRALS OVER SYMMETRY-ADAPTED AOS ARE CALCULATED.

  SPHERICAL HARMONICS ARE USED.
  
  INTEGRALS LESS THAN  0.10E-13 ARE NEGLECTED.

  NUCLEAR REPULSION ENERGY :   38.6326163715 A.U.
  @MOLECU-I, ONE ELECTRON INTEGRALS (CPU/WALL):        0.01/       0.01 SECONDS.
  @TWOEL-I,      29572 INTEGRALS OF SYMMETRY TYPE  I I I I
  @TWOEL-I,     102291 INTEGRALS OF SYMMETRY TYPE  I J I J
  @TWOEL-I,      58089 INTEGRALS OF SYMMETRY TYPE  I I J J
  @TWOEL-I,      75480 INTEGRALS OF SYMMETRY TYPE  I J K L
  @TWOEL-I, TOTAL NUMBER OF 2-E INTEGRALS     265432.
  @MOLECU-I, TWO ELECTRON INTEGRALS (CPU/WALL):        0.22/       0.23 SECONDS.
 @CHECKOUT-I, Total execution time (CPU/WALL):        0.24/       0.26 seconds.

Running with 8 threads/proc

--executable xvmol finished with status     0 in        0.27 seconds (walltime).
 --invoking executable--
/home/tsommerfeld/zscale/bin/xvmol2ja
 @GETMEM-I,  Allocated   85830 MB of main memory.
 @CHECKOUT-I, Total execution time (CPU/WALL):        0.02/       0.01 seconds.
--executable xvmol2ja finished with status     0 in        0.03 seconds (walltime).
 --invoking executable--
/home/tsommerfeld/zscale/bin/xvscf
  There are   57 functions in the AO basis.

  There are 4 irreducible representations.

       Irrep        # of functions
         1                 20
         2                 17
         3                 11
         4                  9


  Parameters for SCF calculation: 
        SCF reference function:  RHF  
  Maximum number of iterations:  300
     Full symmetry point group: C2v 
     Computational point group: C2v 
        Initial density matrix: MOREAD                 
     SCF convergence tolerance: 10**(- 7)
  DIIS convergence acceleration:  ON
          Latest start for DIIS:   8
                     DIIS order:   6

  Memory information:     156410 words required.
  Fock matrices are constructed from AO integral file.
 @GETMEM-I,  Allocated       1 MB of main memory.
  Initialization and symmetry analysis required      0.001 seconds.

  @INITGES-I, Occupancies from core Hamiltonian:

          Alpha population by irrep:   3    4    1    1
           Beta population by irrep:   3    4    1    1


 total no. of electrons in initial guess :  0.000000000000000E+000
  --------------------------------------------------------------------
  Iteration         Total Energy            Largest Density Difference
  --------------------------------------------------------------------
       0            38.632616371506337              0.0000000000D+00
   current occupation vector 
     3  4  1  1
     3  4  1  1
  applying damping factor of   0.500000000000000     
       1           -38.230152837584377              0.9004331722D+01
   current occupation vector 
     3  4  1  1
     3  4  1  1
  applying damping factor of   0.500000000000000     
       2           -60.454113743564527              0.3213805113D+01
   current occupation vector 
     4  3  1  1
     4  3  1  1
  applying damping factor of   0.500000000000000     
       3           -69.626702767128052              0.2748878555D+01
   current occupation vector 
     4  3  1  1
     4  3  1  1
  applying damping factor of   0.500000000000000     
       4           -73.996069655330444              0.1590037832D+01
   current occupation vector 
     4  3  1  1
     4  3  1  1
  applying damping factor of   0.500000000000000     
       5           -76.143258423890501              0.8136897912D+00
   current occupation vector 
     4  3  1  1
     4  3  1  1
  applying damping factor of   0.500000000000000     
       6           -77.211043784543591              0.4086274439D+00
   current occupation vector 
     4  3  1  1
     4  3  1  1
  applying damping factor of   0.500000000000000     
       7           -77.744446902681574              0.2056094164D+00
   current occupation vector 
     4  3  1  1
     4  3  1  1
       8           -78.279624953046891              0.9912318859D-01
   current occupation vector 
     4  3  1  1
     4  3  1  1
       9           -78.279634513567657              0.1605897555D-02
   current occupation vector 
     4  3  1  1
     4  3  1  1
      10           -78.279635039733137              0.8794433759D-03
   current occupation vector 
     4  3  1  1
     4  3  1  1
      11           -78.279635165233117              0.3768740771D-03
   current occupation vector 
     4  3  1  1
     4  3  1  1
      12           -78.279635198130734              0.3475788128D-03
   current occupation vector 
     4  3  1  1
     4  3  1  1
      13           -78.279635206099812              0.2154399222D-03
   current occupation vector 
     4  3  1  1
     4  3  1  1
      14           -78.279635206696412              0.6904159766D-04
   current occupation vector 
     4  3  1  1
     4  3  1  1
      15           -78.279635206704256              0.6885038406D-05
   current occupation vector 
     4  3  1  1
     4  3  1  1
      16           -78.279635206704683              0.1449169506D-05
   current occupation vector 
     4  3  1  1
     4  3  1  1
      17           -78.279635206704114              0.1774551282D-06
   current occupation vector 
     4  3  1  1
     4  3  1  1
      18           -78.279635206704427              0.1941846840D-06
   current occupation vector 
     4  3  1  1
     4  3  1  1

  SCF has converged.

 Density matrix saved to file den.dat
 total electron number:   18.0000000000000     
     E(SCF)=       -78.279635206704484              0.1748785823D-07


  Final occupancies:

     Alpha population by irrep:   4    3    1    1
      Beta population by irrep:   4    3    1    1


  Eigenvector printing suppressed.

 @PUTMOS-I, Writing converged MOs to NEWMOS. 
 @PUTMOS-I, Symmetry   1 Full Blocks  5 Partial Blocksize   0
 @PUTMOS-I, Symmetry   2 Full Blocks  4 Partial Blocksize   1
 @PUTMOS-I, Symmetry   3 Full Blocks  2 Partial Blocksize   3
 @PUTMOS-I, Symmetry   4 Full Blocks  2 Partial Blocksize   1
 @PUTFOCK-I, Writing converged Fock matrix to NEWFOCK. 
 @PUTFOCK-I, Symmetry   1 Full Blocks  5 Partial Blocksize   0
 @PUTFOCK-I, Symmetry   2 Full Blocks  4 Partial Blocksize   1
 @PUTFOCK-I, Symmetry   3 Full Blocks  2 Partial Blocksize   3
 @PUTFOCK-I, Symmetry   4 Full Blocks  2 Partial Blocksize   1


 
  ORBITAL EIGENVALUES (ALPHA)  (1H = 27.2113834 eV)

       MO #        E(hartree)               E(eV)           FULLSYM    COMPSYM
       ----   --------------------   --------------------   -------   ---------
    1     1         -10.9259869656        -297.3112203442      A1        A1 (1)
    2    21         -10.9246517393        -297.2748869900      B1        B1 (2)
    3     2          -0.7739639556         -21.0606299329      A1        A1 (1)
    4    22          -0.5009685021         -13.6320459809      B1        B1 (2)
    5    38          -0.3791323493         -10.3167157156      B2        B2 (3)
    6     3          -0.2838248327          -7.7232663407      A1        A1 (1)
    7    49          -0.2343662707          -6.3774304481      A2        A2 (4)
    8     4          -0.2269526633          -6.1756959335      A1        A1 (1)
    9    23           0.1277892453           3.4773221469      B1        B1 (2)
  +++++++++++++++++++++++++++++++++++++++++++++++++++++++++++++++++++++++++++++
   10     5           0.2131167497           5.7992015853      A1        A1 (1)
   11     6           0.3858513273          10.4995484015      A1        A1 (1)
   12    39           0.4359536023          11.8629006160      B2        B2 (3)
   13     7           0.4541520159          12.3581046263      A1        A1 (1)
   14    24           0.4573991801          12.4464644557      B1        B1 (2)
   15    50           0.5071745397          13.8009208504      A2        A2 (4)
   16    40           0.5535782360          15.0636296217      B2        B2 (3)
   17    25           0.6297792962          17.1371658875      B1        B1 (2)
   18     8           0.6602155165          17.9653775468      A1        A1 (1)
   19    26           0.6985546778          19.0086391632      B1        B1 (2)
   20     9           0.8137072848          22.1421009034      A1        A1 (1)
   21    41           0.9374674623          25.5097865408      B2        B2 (3)
   22    10           0.9904177152          26.9506361738      A1        A1 (1)
   23    27           1.0280113350          27.9736105761      B1        B1 (2)
   24    11           1.0352159435          28.1696579412      A1        A1 (1)
   25    42           1.1194941953          30.4629857632      B2        B2 (3)
   26    28           1.1470716834          31.2134073655      B1        B1 (2)
   27    12           1.1657725811          31.7222846609      A1        A1 (1)
   28    51           1.2029186904          32.7330816846      A2        A2 (4)
   29    29           1.2583732016          34.2420756478      B1        B1 (2)
   30    43           1.4944993870          40.6673958115      B2        B2 (3)
   31    13           1.5073647924          41.0174812908      A1        A1 (1)
   32    52           1.5508740443          42.2014282234      A2        A2 (4)
   33    53           1.5981850979          43.4888274443      A2        A2 (4)
   34    30           1.6256367070          44.2358237038      B1        B1 (2)
   35    14           1.7070783079          46.4519623307      A1        A1 (1)
   36    15           1.8558908815          50.5013583257      A1        A1 (1)
   37    54           1.8794050982          51.1412126903      A2        A2 (4)
   38    44           1.9055313314          51.8521436405      B2        B2 (3)
   39    31           1.9790248208          53.8520031572      B1        B1 (2)
   40    45           2.0469265766          55.6997038666      B2        B2 (3)
   41    32           2.1770524786          59.2406096760      B1        B1 (2)
   42    16           2.2189165417          60.3797887481      A1        A1 (1)
   43    46           2.2618817015          61.5489301839      B2        B2 (3)
   44    17           2.2787525020          62.0080080068      A1        A1 (1)
   45    33           2.3513036861          63.9822260931      B1        B1 (2)
   46    34           2.4930854009          67.8403026932      B1        B1 (2)
   47    47           2.4931198466          67.8412400093      B2        B2 (3)
   48    18           2.6026944063          70.8229153625      A1        A1 (1)
   49    35           2.6081029879          70.9700903516      B1        B1 (2)
   50    55           2.6865646062          73.1051395271      A2        A2 (4)
   51    19           2.7360504327          74.4517173252      A1        A1 (1)
   52    56           2.7611523473          75.1347751471      A2        A2 (4)
   53    36           2.8563571591          77.7254297846      B1        B1 (2)
   54    48           3.0785175603          83.7707216371      B2        B2 (3)
   55    20           3.0872341653          84.0079125163      A1        A1 (1)
   56    37           3.5566901987          96.7824606322      B1        B1 (2)
   57    57           3.6188501781          98.4739196633      A2        A2 (4)


  VSCF finished.

 @CHECKOUT-I, Total execution time (CPU/WALL):        0.25/       0.10 seconds.
--executable xvscf finished with status     0 in        0.12 seconds (walltime).
 --invoking executable--
/home/tsommerfeld/zscale/bin/xvtran
 @GETMEM-I,  Allocated   85830 MB of main memory.
  Full RHF integral transformation
  Transformation of IIII integrals :
  1 pass through the AO integral file was required.
       29572 AO integrals were read.
       37182 MO integrals were written to HF2.
  Transformation of IIJJ integrals :
  1 pass through the AO integral file was required.
       58089 AO integrals were read.
       75393 MO integrals were written to HF2.
  Transformation of IJIJ integrals :
  1 pass through the AO integral file was required.
      102291 AO integrals were read.
      132879 MO integrals were written to HF2.
  Transformation of IJKL integrals :
  1 pass through the AO integral file was required.
       75480 AO integrals were read.
      100980 MO integrals were written to HF2.
  Summary of active molecular orbitals: 
------------------------------------------------------------------------
 
  Index      Eigenvalue    Symmetry    Index      Eigenvalue    Symmetry
------------------------------------------------------------------------
     1       -10.9259870        1        30         1.1470717        2
     2        -0.7739640        1        31         1.2583732        2
     3        -0.2838248        1        32         1.6256367        2
     4        -0.2269527        1        33         1.9790248        2
     5       -10.9246517        2        34         2.1770525        2
     6        -0.5009685        2        35         2.3513037        2
     7         0.1277892        2        36         2.4930854        2
     8        -0.3791323        3        37         2.6081030        2
     9        -0.2343663        4        38         2.8563572        2
    10         0.2131167        1        39         3.5566902        2
    11         0.3858513        1        40         0.4359536        3
    12         0.4541520        1        41         0.5535782        3
    13         0.6602155        1        42         0.9374675        3
    14         0.8137073        1        43         1.1194942        3
    15         0.9904177        1        44         1.4944994        3
    16         1.0352159        1        45         1.9055313        3
    17         1.1657726        1        46         2.0469266        3
    18         1.5073648        1        47         2.2618817        3
    19         1.7070783        1        48         2.4931198        3
    20         1.8558909        1        49         3.0785176        3
    21         2.2189165        1        50         0.5071745        4
    22         2.2787525        1        51         1.2029187        4
    23         2.6026944        1        52         1.5508740        4
    24         2.7360504        1        53         1.5981851        4
    25         3.0872342        1        54         1.8794051        4
    26         0.4573992        2        55         2.6865646        4
    27         0.6297793        2        56         2.7611523        4
    28         0.6985547        2        57         3.6188502        4
    29         1.0280113        2
------------------------------------------------------------------------
  -10.9259869655931      -0.773963955575285      -0.283824832688292     
 -0.226952663256270       -10.9246517393158      -0.500968502062541     
  0.127789245251945      -0.379132349279038      -0.234366270703489     
  0.213116749708492       0.385851327259315       0.454152015890351     
  0.660215516524111       0.813707284847943       0.990417715175670     
   1.03521594352904        1.16577258107838        1.50736479244188     
   1.70707830792227        1.85589088152494        2.21891654167519     
   2.27875250204404        2.60269440628669        2.73605043267236     
   3.08723416525293       0.457399180069403       0.629779296244130     
  0.698554677788738        1.02801133499478        1.14707168344439     
   1.25837320155636        1.62563670701726        1.97902482081248     
   2.17705247855992        2.35130368612873        2.49308540091194     
   2.60810298794449        2.85635715913512        3.55669019871343     
  0.435953602271531       0.553578236001770       0.937467462266764     
   1.11949419533178        1.49449938702836        1.90553133143793     
   2.04692657656552        2.26188170146264        2.49311984664818     
   3.07851756030360       0.507174539695084        1.20291869044052     
   1.55087404425883        1.59818509794200        1.87940509817181     
   2.68656460616097        2.76115234725994        3.61885017809511     
 @CHECKOUT-I, Total execution time (CPU/WALL):        0.54/       0.09 seconds.
--executable xvtran finished with status     0 in        0.11 seconds (walltime).
 --invoking executable--
/home/tsommerfeld/zscale/bin/xintprc
 @GETMEM-I,  Allocated   85830 MB of main memory.
  Processing integrals for CCSD calculation.
  @GMOIAA-I, Processing MO integrals for spin case AA.
  @GMOIAA-I, Generation of integral list completed.
                      TYPE                NUMBER
                      ----               --------
                      PPPP                174812
                      PPPH                128480
                      PPHH                 23996
                      PHPH                 13708
                      PHHH                  5120
                      HHHH                   318

                     TOTAL                346434

  @FORMT2-I, Second-order MP correlation energies:
            ------------------------------------------------
            E(SCF)                  =    -78.279635206704 a.u.
            E2(AA)                  =     -0.040308554679 a.u.
            E2(AB)                  =     -0.262341379148 a.u.
            E2(TOT)                 =     -0.342958488505 a.u.
            Total MP2 energy        =    -78.622593695210 a.u.
            ------------------------------------------------
   Largest T2 amplitudes for spin case AB:
       _       _                 _       _                 _       _
   i   j   a   b             i   j   a   b             i   j   a   b
-----------------------------------------------------------------------------
[  4   4  11  11]-0.05891 [  7   7  11  11]-0.05634 [  7   7  27  27]-0.03607
[  7   4  27  11]-0.03497 [  4   7  11  27]-0.03497 [  7   7  29  29]-0.03054
[  7   7  11  10]-0.02306 [  7   7  10  11]-0.02306 [  7   7  10  10]-0.02152
[  4   4  15  11] 0.02017 [  4   4  11  15] 0.02017 [  4   4  15  15]-0.02001
[  9   9  42  42]-0.01987 [  3   3  31  31]-0.01893 [  7   7  15  15]-0.01839
-----------------------------------------------------------------------------
   Norm of T2AB vector (    47560 symmetry allowed elements):  0.3255969100.
-----------------------------------------------------------------------------
 @CHECKOUT-I, Total execution time (CPU/WALL):        0.41/       0.10 seconds.
--executable xintprc finished with status     0 in        0.11 seconds (walltime).
  calling xvcc 
 --invoking executable--
/home/tsommerfeld/zscale/bin/xvcc
 @GETMEM-I,  Allocated   85830 MB of main memory.
   CCSD energy will be calculated.
   The total correlation energy is -0.342958488505 a.u.
   The total correlation energy is -0.358683126790 a.u.
  Convergence information after     1 iterations: 
  Largest element of residual vector : -0.18858399E-01.
  Largest element of DIIS residual   : -0.18858399E-01.
   The total correlation energy is -0.368248906195 a.u.
  Convergence information after     2 iterations: 
  Largest element of residual vector : -0.19946677E-01.
  Largest element of DIIS residual   : -0.20072071E-01.
   The total correlation energy is -0.370968646034 a.u.
  Convergence information after     3 iterations: 
  Largest element of residual vector : -0.16681137E-01.
  Largest element of DIIS residual   : -0.16064813E-01.
   The total correlation energy is -0.373641280022 a.u.
  Convergence information after     4 iterations: 
  Largest element of residual vector : -0.16326673E-01.
  Largest element of DIIS residual   : -0.13940230E-01.
   The total correlation energy is -0.374883024151 a.u.
  Convergence information after     5 iterations: 
  Largest element of residual vector : -0.13811136E-01.
  Largest element of DIIS residual   : -0.10224485E-01.
   The total correlation energy is -0.377293392127 a.u.
  Convergence information after     6 iterations: 
  Largest element of residual vector : -0.12904263E-01.
  Largest element of DIIS residual   : -0.74574468E-02.
   The total correlation energy is -0.378259450936 a.u.
  Convergence information after     7 iterations: 
  Largest element of residual vector : -0.78284247E-02.
  Largest element of DIIS residual   :  0.40188314E-02.
   The total correlation energy is -0.379426620715 a.u.
  Convergence information after     8 iterations: 
  Largest element of residual vector : -0.44030036E-02.
  Largest element of DIIS residual   :  0.18430331E-02.
   The total correlation energy is -0.379470739411 a.u.
  Convergence information after     9 iterations: 
  Largest element of residual vector :  0.13664148E-02.
  Largest element of DIIS residual   :  0.65898050E-03.
   The total correlation energy is -0.379719867573 a.u.
  Convergence information after    10 iterations: 
  Largest element of residual vector :  0.52722990E-03.
  Largest element of DIIS residual   : -0.36505736E-03.
   The total correlation energy is -0.379762069314 a.u.
  Convergence information after    11 iterations: 
  Largest element of residual vector :  0.23085445E-03.
  Largest element of DIIS residual   : -0.20911485E-03.
   The total correlation energy is -0.379788921662 a.u.
  Convergence information after    12 iterations: 
  Largest element of residual vector : -0.18694266E-03.
  Largest element of DIIS residual   : -0.97291691E-04.
   The total correlation energy is -0.379802853208 a.u.
  Convergence information after    13 iterations: 
  Largest element of residual vector : -0.75011372E-04.
  Largest element of DIIS residual   : -0.62279017E-04.
   The total correlation energy is -0.379807346758 a.u.
  Convergence information after    14 iterations: 
  Largest element of residual vector : -0.47040283E-04.
  Largest element of DIIS residual   : -0.25695694E-04.
   The total correlation energy is -0.379810472619 a.u.
  Convergence information after    15 iterations: 
  Largest element of residual vector : -0.40036307E-04.
  Largest element of DIIS residual   : -0.24089856E-04.
   The total correlation energy is -0.379811329706 a.u.
  Convergence information after    16 iterations: 
  Largest element of residual vector : -0.27330793E-04.
  Largest element of DIIS residual   : -0.17241895E-04.
   The total correlation energy is -0.379812482106 a.u.
  Convergence information after    17 iterations: 
  Largest element of residual vector : -0.16195704E-04.
  Largest element of DIIS residual   : -0.14296182E-04.
   The total correlation energy is -0.379813459114 a.u.
  Convergence information after    18 iterations: 
  Largest element of residual vector : -0.12119796E-04.
  Largest element of DIIS residual   : -0.11163892E-04.
   The total correlation energy is -0.379815448427 a.u.
  Convergence information after    19 iterations: 
  Largest element of residual vector : -0.93641578E-05.
  Largest element of DIIS residual   :  0.41700402E-05.
   The total correlation energy is -0.379816695922 a.u.
  Convergence information after    20 iterations: 
  Largest element of residual vector : -0.47941393E-05.
  Largest element of DIIS residual   : -0.15514113E-05.
   The total correlation energy is -0.379817690450 a.u.
  Convergence information after    21 iterations: 
  Largest element of residual vector :  0.11926566E-05.
  Largest element of DIIS residual   :  0.64229160E-06.
   The total correlation energy is -0.379817606350 a.u.
  Convergence information after    22 iterations: 
  Largest element of residual vector : -0.71312930E-06.
  Largest element of DIIS residual   :  0.28284349E-06.
   The total correlation energy is -0.379817660191 a.u.
  Convergence information after    23 iterations: 
  Largest element of residual vector : -0.39663915E-06.
  Largest element of DIIS residual   :  0.16318660E-06.
   The total correlation energy is -0.379817686854 a.u.
  Convergence information after    24 iterations: 
  Largest element of residual vector : -0.13892010E-06.
  Largest element of DIIS residual   :  0.14109940E-06.
   The total correlation energy is -0.379817702156 a.u.
  Convergence information after    25 iterations: 
  Largest element of residual vector :  0.10211036E-06.
  Largest element of DIIS residual   :  0.70963470E-07.
   The total correlation energy is -0.379817710756 a.u.
  Convergence information after    26 iterations: 
  Largest element of residual vector :  0.51612573E-07.
  Largest element of DIIS residual   : -0.16935571E-07.
  Amplitude equations converged in    26iterations.
   The total correlation energy is -0.379817710810 a.u.
   The CC iterations have converged.

   Largest T1 amplitudes for spin case AA:
   i       a                 i       a                 i       a    
-----------------------------------------------------------------------------
[  4      10    ] 0.06608 [  4      11    ] 0.04237 [  7      29    ]-0.02435
[  7      30    ]-0.02005 [  4      12    ]-0.01313 [  7      32    ] 0.01306
[  7      27    ]-0.01063 [  7      31    ]-0.01060 [  7      26    ]-0.00950
[  3      11    ] 0.00915 [  4      16    ] 0.00802 [  8      42    ]-0.00636
[  4      20    ] 0.00601 [  4      19    ]-0.00566 [  7      28    ] 0.00547
-----------------------------------------------------------------------------
   Norm of T1AA vector (      124 symmetry allowed elements):  0.0926020079.
-----------------------------------------------------------------------------
   Largest T2 amplitudes for spin case AB:
       _       _                 _       _                 _       _
   i   j   a   b             i   j   a   b             i   j   a   b
-----------------------------------------------------------------------------
[  7   7  11  10]-0.33613 [  7   7  10  11]-0.33613 [  7   7  10  10]-0.31951
[  7   7  11  11]-0.21493 [  7   7  12  10] 0.10174 [  7   7  10  12] 0.10174
[  7   7  15  10] 0.06838 [  7   7  10  15] 0.06838 [  4   4  11  11]-0.06783
[  7   7  12  11] 0.06103 [  7   7  11  12] 0.06103 [  7   7  13  10] 0.05605
[  7   7  10  13] 0.05605 [  7   4  27  11]-0.05420 [  4   7  11  27]-0.05420
-----------------------------------------------------------------------------
   Norm of T2AB vector (    47560 symmetry allowed elements):  0.7573253451.
-----------------------------------------------------------------------------
       Summary of iterative solution of CC equations 
      -----------------------------------------------------------
                       Correlation           Total
       Iteration         Energy              Energy
      -----------------------------------------------------------
            0        -0.342958488505     -78.622593695210  DIIS 
            1        -0.358683126790     -78.638318333495  DIIS 
            2        -0.368248906195     -78.647884112900  DIIS 
            3        -0.370968646034     -78.650603852738  DIIS 
            4        -0.373641280022     -78.653276486727  DIIS 
            5        -0.374883024151     -78.654518230856  DIIS 
            6        -0.377293392127     -78.656928598832  DIIS 
            7        -0.378259450936     -78.657894657641  DIIS 
            8        -0.379426620715     -78.659061827419  DIIS 
            9        -0.379470739411     -78.659105946116  DIIS 
           10        -0.379719867573     -78.659355074277  DIIS 
           11        -0.379762069314     -78.659397276019  DIIS 
           12        -0.379788921662     -78.659424128366  DIIS 
           13        -0.379802853208     -78.659438059912  DIIS 
           14        -0.379807346758     -78.659442553462  DIIS 
           15        -0.379810472619     -78.659445679323  DIIS 
           16        -0.379811329706     -78.659446536411  DIIS 
           17        -0.379812482106     -78.659447688811  DIIS 
           18        -0.379813459114     -78.659448665819  DIIS 
           19        -0.379815448427     -78.659450655132  DIIS 
           20        -0.379816695922     -78.659451902627  DIIS 
           21        -0.379817690450     -78.659452897155  DIIS 
           22        -0.379817606350     -78.659452813055  DIIS 
           23        -0.379817660191     -78.659452866896  DIIS 
           24        -0.379817686854     -78.659452893559  DIIS 
           25        -0.379817702156     -78.659452908861  DIIS 
           26        -0.379817710810     -78.659452917515  DIIS 
      -----------------------------------------------------------
      A miracle has come to pass. The CC iterations have converged.
      The reference energy is       -78.27963520670448 a.u.
      The correlation energy is      -0.37981771081005 a.u.
      The total energy is           -78.65945291751453 a.u.
 @CHECKOUT-I, Total execution time (CPU/WALL):        8.74/       1.10 seconds.
--executable xvcc finished with status     0 in        1.12 seconds (walltime).
 --invoking executable--
/home/tsommerfeld/zscale/bin/xlambda
 @GETMEM-I,  Allocated   85830 MB of main memory.
 Hbar is calculated for a CCSD wave function.
 Calculation of Hbar completed.
 @CHECKOUT-I, Total execution time (CPU/WALL):        0.82/       0.11 seconds.
--executable xlambda finished with status     0 in        0.13 seconds (walltime).
 --invoking executable--
/home/tsommerfeld/zscale/bin/xvee
 @GETMEM-I,  Allocated   85830 MB of main memory.
  cc2 and ccprog  F                     0
  EOMEE-CCSD excitation energies will be evaluated.
  @SETMET-I, VPROP property integrals are used.
  @SETMET-I, A total of   3 target states will be studied.
  Summary of active alpha molecular orbitals:
------------------------------------------------------------------------------
Orbital      Sym   Eigenvalue  <xx>     <yy>     <zz>     <xy>     <xz>     <yz>
        SCF
  #  position
------------------------------------------------------------------------------
   1      1    1     -10.9260   0.000    0.000    0.000    0.000    0.000    0.000
   2      3    1      -0.7740   0.000    0.000    0.000    0.000    0.000    0.000
   3      6    1      -0.2838   0.000    0.000    0.000    0.000    0.000    0.000
   4      8    1      -0.2270   0.000    0.000    0.000    0.000    0.000    0.000
   5      2    2     -10.9247   0.000    0.000    0.000    0.000    0.000    0.000
   6      4    2      -0.5010   0.000    0.000    0.000    0.000    0.000    0.000
   7      9    2       0.1278   0.000    0.000    0.000    0.000    0.000    0.000
   8      5    3      -0.3791   0.000    0.000    0.000    0.000    0.000    0.000
   9      7    4      -0.2344   0.000    0.000    0.000    0.000    0.000    0.000
  10     10    1       0.2131   0.000    0.000    0.000    0.000    0.000    0.000
  11     11    1       0.3859   0.000    0.000    0.000    0.000    0.000    0.000
  12     13    1       0.4542   0.000    0.000    0.000    0.000    0.000    0.000
  13     18    1       0.6602   0.000    0.000    0.000    0.000    0.000    0.000
  14     20    1       0.8137   0.000    0.000    0.000    0.000    0.000    0.000
  15     22    1       0.9904   0.000    0.000    0.000    0.000    0.000    0.000
  16     24    1       1.0352   0.000    0.000    0.000    0.000    0.000    0.000
  17     27    1       1.1658   0.000    0.000    0.000    0.000    0.000    0.000
  18     31    1       1.5074   0.000    0.000    0.000    0.000    0.000    0.000
  19     35    1       1.7071   0.000    0.000    0.000    0.000    0.000    0.000
  20     36    1       1.8559   0.000    0.000    0.000    0.000    0.000    0.000
  21     42    1       2.2189   0.000    0.000    0.000    0.000    0.000    0.000
  22     44    1       2.2788   0.000    0.000    0.000    0.000    0.000    0.000
  23     48    1       2.6027   0.000    0.000    0.000    0.000    0.000    0.000
  24     51    1       2.7361   0.000    0.000    0.000    0.000    0.000    0.000
  25     55    1       3.0872   0.000    0.000    0.000    0.000    0.000    0.000
  26     14    2       0.4574   0.000    0.000    0.000    0.000    0.000    0.000
  27     17    2       0.6298   0.000    0.000    0.000    0.000    0.000    0.000
  28     19    2       0.6986   0.000    0.000    0.000    0.000    0.000    0.000
  29     23    2       1.0280   0.000    0.000    0.000    0.000    0.000    0.000
  30     26    2       1.1471   0.000    0.000    0.000    0.000    0.000    0.000
  31     29    2       1.2584   0.000    0.000    0.000    0.000    0.000    0.000
  32     34    2       1.6256   0.000    0.000    0.000    0.000    0.000    0.000
  33     39    2       1.9790   0.000    0.000    0.000    0.000    0.000    0.000
  34     41    2       2.1771   0.000    0.000    0.000    0.000    0.000    0.000
  35     45    2       2.3513   0.000    0.000    0.000    0.000    0.000    0.000
  36     46    2       2.4931   0.000    0.000    0.000    0.000    0.000    0.000
  37     49    2       2.6081   0.000    0.000    0.000    0.000    0.000    0.000
  38     53    2       2.8564   0.000    0.000    0.000    0.000    0.000    0.000
  39     56    2       3.5567   0.000    0.000    0.000    0.000    0.000    0.000
  40     12    3       0.4360   0.000    0.000    0.000    0.000    0.000    0.000
  41     16    3       0.5536   0.000    0.000    0.000    0.000    0.000    0.000
  42     21    3       0.9375   0.000    0.000    0.000    0.000    0.000    0.000
  43     25    3       1.1195   0.000    0.000    0.000    0.000    0.000    0.000
  44     30    3       1.4945   0.000    0.000    0.000    0.000    0.000    0.000
  45     38    3       1.9055   0.000    0.000    0.000    0.000    0.000    0.000
  46     40    3       2.0469   0.000    0.000    0.000    0.000    0.000    0.000
  47     43    3       2.2619   0.000    0.000    0.000    0.000    0.000    0.000
  48     47    3       2.4931   0.000    0.000    0.000    0.000    0.000    0.000
  49     54    3       3.0785   0.000    0.000    0.000    0.000    0.000    0.000
  50     15    4       0.5072   0.000    0.000    0.000    0.000    0.000    0.000
  51     28    4       1.2029   0.000    0.000    0.000    0.000    0.000    0.000
  52     32    4       1.5509   0.000    0.000    0.000    0.000    0.000    0.000
  53     33    4       1.5982   0.000    0.000    0.000    0.000    0.000    0.000
  54     37    4       1.8794   0.000    0.000    0.000    0.000    0.000    0.000
  55     50    4       2.6866   0.000    0.000    0.000    0.000    0.000    0.000
  56     52    4       2.7612   0.000    0.000    0.000    0.000    0.000    0.000
  57     57    4       3.6189   0.000    0.000    0.000    0.000    0.000    0.000
------------------------------------------------------------------------------
  @DRVTDA-I, Roots obtained by Davidson method.
  calling tda davidson                       6                     2
  after tda davidson                      6                     6
                     3                     3
  kroot is                      3
__________________________________________________________________________
    Tamm-Dancoff (CIS) Excitation Energies and Transition Moments

                Excitation         Transition Dipole         Oscillator
 Root  Symmetry  Energy         x           y           z     Strength
__________________________________________________________________________
   1       2   -0.07927      0.0000      0.0000      0.0000  .00000000D+00
__________________________________________________________________________
 
__________________________________________________________________________
  TDA excitation ergy:            -0.079270659219 a.u.   -2.1571 eV
  Total TDA electronic energy:   -78.358905865924 a.u.
 
  Dominant contributions: 
  SCF eigenvalue ordering used in list below. 
--------------------------------------------------------------------------------
    I    j    A    b
--------------------------------------------------------------------------------
    9    0   10    0  -0.9601404432 AA  
    9    0   11    0  -0.2381051476 AA  
    9    0   13    0   0.1320433809 AA  
    8    0   14    0  -0.0239815567 AA  
    6    0   29    0  -0.0204972899 AA  
    9    0   24    0   0.0171706477 AA  
    9    0   31    0  -0.0170586719 AA  
    4    0   13    0   0.0163585308 AA  
    9    0   22    0   0.0160291613 AA  
    5    0   15    0   0.0153830202 AA  
    6    0   19    0   0.0138399242 AA  
    7    0   12    0   0.0130973019 AA  
    6    0   14    0  -0.0108637177 AA  
    5    0   28    0   0.0107023245 AA  
    7    0   21    0   0.0098866820 AA  
--------------------------------------------------------------------------------
   2       2    0.01244      0.0000      0.0000      0.0000  .00000000D+00
__________________________________________________________________________
 
__________________________________________________________________________
  TDA excitation ergy:             0.012437106517 a.u.    0.3384 eV
  Total TDA electronic energy:   -78.267198100188 a.u.
 
  Dominant contributions: 
  SCF eigenvalue ordering used in list below. 
--------------------------------------------------------------------------------
    I    j    A    b
--------------------------------------------------------------------------------
    9    0   11    0  -0.9595626285 AA  
    9    0   10    0   0.2381632552 AA  
    9    0   18    0   0.0811887559 AA  
    9    0   22    0   0.0490764813 AA  
    9    0   20    0  -0.0415408702 AA  
    4    0   11    0   0.0332145430 AA  
    6    0   29    0  -0.0327170797 AA  
    9    0   13    0  -0.0296241234 AA  
    6    0   19    0   0.0286005121 AA  
    9    0   31    0  -0.0270772568 AA  
    5    0   15    0   0.0270411767 AA  
    8    0   29    0   0.0254046051 AA  
    9    0   24    0  -0.0243569186 AA  
    4    0   13    0   0.0235847927 AA  
    7    0   21    0   0.0228351967 AA  
--------------------------------------------------------------------------------
   3       2    0.09299      0.0000      0.0000      0.0000  .00000000D+00
__________________________________________________________________________
 
__________________________________________________________________________
  TDA excitation ergy:             0.092994051622 a.u.    2.5305 eV
  Total TDA electronic energy:   -78.186641155083 a.u.
 
  Dominant contributions: 
  SCF eigenvalue ordering used in list below. 
--------------------------------------------------------------------------------
    I    j    A    b
--------------------------------------------------------------------------------
    9    0   13    0  -0.9839628040 AA  
    9    0   10    0  -0.1363599707 AA  
    8    0   14    0   0.0637659274 AA  
    9    0   27    0   0.0591565977 AA  
    9    0   20    0   0.0409863945 AA  
    8    0   19    0  -0.0260913115 AA  
    9    0   31    0   0.0252806041 AA  
    9    0   18    0  -0.0230440032 AA  
    8    0   29    0   0.0199416209 AA  
    9    0   35    0   0.0154806441 AA  
    6    0   14    0   0.0140804481 AA  
    8    0   26    0  -0.0128840116 AA  
    6    0   19    0  -0.0123380205 AA  
    4    0   10    0   0.0118907572 AA  
    8    0   17    0  -0.0106472843 AA  
--------------------------------------------------------------------------------
__________________________________________________________________________
  @DOEOMEE-I, Excitation energies computed by the EOMEE-CCSD/CCSD-LR method.
  @DOEOMEE-I, right-hand eigenvectors will be computed.
  Beginning symmetry block   2.   3 roots requested.
  @DOEOMEE-I, Matrix dimension for diagonalization:    47674
  Creating initial guess for root
________________________________________________________________________
            Subspace          Eigenvalue           
 Iteration  Dimension   (a.u.)         (eV)       Overlap      Residual
________________________________________________________________________
  @NEWGES-I, Using TDA initial guess.
  1   1  0.1101448958D-01  0.2997194990D+00  0.0000000000D+00  0.1247600287D+01
  2   2 -0.5089456772D-01 -0.1384911595D+01  0.9589446108D+00  0.2768852178D+00
  3   3 -0.6208893205D-01 -0.1689525735D+01  0.9880510585D+00  0.5361595767D-01
  4   4 -0.6422722799D-01 -0.1747711725D+01  0.9991713941D+00  0.2460847819D-01
  5   5 -0.6453633196D-01 -0.1756122872D+01  0.9996577652D+00  0.8264100493D-02
  6   6 -0.6463473465D-01 -0.1758800546D+01  0.9999389852D+00  0.4731694580D-02
  7   7 -0.6470004173D-01 -0.1760577642D+01  0.9999761628D+00  0.1482402186D-02
  8   8 -0.6473221349D-01 -0.1761453080D+01  0.9999965452D+00  0.6224469416D-03
  L-O-C-K-I-N-G O-N R-O-O-T 
  9   9 -0.6473455108D-01 -0.1761516689D+01  0.9999995517D+00  0.1932147053D-03
 10  10 -0.6473486328D-01 -0.1761525184D+01  0.9999999540D+00  0.5697952658D-04
 11  11 -0.6473513839D-01 -0.1761532670D+01  0.9999999971D+00  0.1621707537D-04
 12  12 -0.6473511073D-01 -0.1761531918D+01  0.9999999998D+00  0.5259960222D-05
  Converged eigenvalue:  -6.473511072984868E-002  a.u.
   Total EOMEE-CCSD electronic energy      -78.724188028244370 a.u.
  Converged eigenvector 
  SCF eigenvalue ordering used in list below. 
--------------------------------------------------------------------------------
    I    j    A    b
--------------------------------------------------------------------------------
    9    0   10    0   0.6569813759 AA  
    9    0   11    0   0.1488266685 AA  
    9    0   13    0  -0.0868479979 AA  
    9    8   10   10  -0.0858601173 ABAB
    8    9   10   10  -0.0858601173 ABAB
    9    8   10   11  -0.0692410401 ABAB
    8    9   11   10  -0.0692410401 ABAB
    9    8   11   10  -0.0639014334 ABAB
    8    9   10   11  -0.0639014334 ABAB
    9    9   17   10  -0.0466649210 ABAB
    9    9   10   17  -0.0466649210 ABAB
    9    8   11   11  -0.0394488299 ABAB
    8    9   11   11  -0.0394488299 ABAB
    7    9   15   10   0.0270153407 ABAB
    9    7   10   15   0.0270153407 ABAB
--------------------------------------------------------------------------------
  Converged eigenvector, normalized to one 
  SCF eigenvalue ordering used in list below. 
--------------------------------------------------------------------------------
    I    j    A    b
--------------------------------------------------------------------------------
    9    0   10    0   0.6569813759 AA  
    9    0   11    0   0.1488266685 AA  
    9    0   13    0  -0.0868479979 AA  
    9    8   10   10  -0.0858601173 ABAB
    8    9   10   10  -0.0858601173 ABAB
    9    8   10   11  -0.0692410401 ABAB
    8    9   11   10  -0.0692410401 ABAB
    9    8   11   10  -0.0639014334 ABAB
    8    9   10   11  -0.0639014334 ABAB
    9    9   17   10  -0.0466649210 ABAB
    9    9   10   17  -0.0466649210 ABAB
    9    8   11   11  -0.0394488299 ABAB
    8    9   11   11  -0.0394488299 ABAB
    7    9   15   10   0.0270153407 ABAB
    9    7   10   15   0.0270153407 ABAB
--------------------------------------------------------------------------------

  Eigenvector is saved on CCRE_2_1  

  Adding new vector to expansion space.
  Guess for next eigenvalue   1.243710651673978E-002
 13  13  0.2277825077D-01  0.6198277150D+00  0.6995084761D+00  0.9207549813D-01
 14  14  0.2050241671D-01  0.5578991217D+00  0.9981350836D+00  0.2254731845D-01
 15  15  0.1995811710D-01  0.5430879763D+00  0.9998135327D+00  0.4996666223D-02
  L-O-C-K-I-N-G O-N R-O-O-T 
 16  16  0.1995719532D-01  0.5430628934D+00  0.9999885651D+00  0.1565865863D-02
 17  17  0.1996864820D-01  0.5433745421D+00  0.9999985587D+00  0.4944013621D-03
 18  18  0.1996779951D-01  0.5433514481D+00  0.9999998313D+00  0.1586435233D-03
 19  19  0.1996804334D-01  0.5433580830D+00  0.9999999801D+00  0.5203971420D-04
 20  20  0.1996802390D-01  0.5433575540D+00  0.9999999975D+00  0.1673841444D-04
 21  21  0.1996804183D-01  0.5433580419D+00  0.9999999998D+00  0.4189044805D-05
  Converged eigenvalue:   1.996804182852020E-002  a.u.
   Total EOMEE-CCSD electronic energy      -78.639484875686009 a.u.
  Converged eigenvector 
  SCF eigenvalue ordering used in list below. 
--------------------------------------------------------------------------------
    I    j    A    b
--------------------------------------------------------------------------------
    9    0   11    0   0.6550216770 AA  
    9    8   11   11  -0.1486481560 ABAB
    8    9   11   11  -0.1486481560 ABAB
    9    0   10    0  -0.1136294716 AA  
    9    8   11   10  -0.0527899835 ABAB
    8    9   10   11  -0.0527899835 ABAB
    9    0   18    0  -0.0417933698 AA  
    9    6   11   11  -0.0405504583 ABAB
    6    9   11   11  -0.0405504583 ABAB
    9    0   22    0  -0.0404069767 AA  
    9    9   17   11  -0.0374301620 ABAB
    9    9   11   17  -0.0374301620 ABAB
    9    8   22   11   0.0320008448 ABAB
    8    9   11   22   0.0320008448 ABAB
    9    0   24    0   0.0300057675 AA  
--------------------------------------------------------------------------------
  Converged eigenvector, normalized to one 
  SCF eigenvalue ordering used in list below. 
--------------------------------------------------------------------------------
    I    j    A    b
--------------------------------------------------------------------------------
    9    0   11    0   0.6550216770 AA  
    9    8   11   11  -0.1486481560 ABAB
    8    9   11   11  -0.1486481560 ABAB
    9    0   10    0  -0.1136294716 AA  
    9    8   11   10  -0.0527899835 ABAB
    8    9   10   11  -0.0527899835 ABAB
    9    0   18    0  -0.0417933698 AA  
    9    6   11   11  -0.0405504583 ABAB
    6    9   11   11  -0.0405504583 ABAB
    9    0   22    0  -0.0404069767 AA  
    9    9   17   11  -0.0374301620 ABAB
    9    9   11   17  -0.0374301620 ABAB
    9    8   22   11   0.0320008448 ABAB
    8    9   11   22   0.0320008448 ABAB
    9    0   24    0   0.0300057675 AA  
--------------------------------------------------------------------------------

  Eigenvector is saved on CCRE_2_2  

  Adding new vector to expansion space.
  Guess for next eigenvalue   9.299405162155661E-002
 22  22  0.1057531210D+00  0.2877688722D+01  0.7529710953D+00  0.1063260676D+00
 23  23  0.1000713816D+00  0.2723080732D+01  0.9958355542D+00  0.2191554257D-01
 24  24  0.9952312326D-01  0.2708161864D+01  0.9997390999D+00  0.8763668019D-02
 25  25  0.9949517468D-01  0.2707401345D+01  0.9999719452D+00  0.2914669933D-02
  L-O-C-K-I-N-G O-N R-O-O-T 
 26  26  0.9949761275D-01  0.2707467688D+01  0.9999970296D+00  0.8492078237D-03
 27  27  0.9949141679D-01  0.2707299087D+01  0.9999997183D+00  0.2054703664D-03
 28  28  0.9949101628D-01  0.2707288189D+01  0.9999999779D+00  0.6421469861D-04
 29  29  0.9949110304D-01  0.2707290550D+01  0.9999999979D+00  0.1776362096D-04
 30  30  0.9949106250D-01  0.2707289447D+01  0.9999999998D+00  0.5397991374D-05
  Converged eigenvalue:   9.949106250283068E-002  a.u.
   Total EOMEE-CCSD electronic energy      -78.559961855011693 a.u.
  Converged eigenvector 
  SCF eigenvalue ordering used in list below. 
--------------------------------------------------------------------------------
    I    j    A    b
--------------------------------------------------------------------------------
    9    0   13    0  -0.6671895681 AA  
    9    9   14   11   0.0992959469 ABAB
    9    9   11   14   0.0992959469 ABAB
    9    0   10    0  -0.0792855680 AA  
    9    9   14   10   0.0617348702 ABAB
    9    9   10   14   0.0617348702 ABAB
    9    0   27    0   0.0478774332 AA  
    9    8   11   13   0.0424459676 ABAB
    8    9   13   11   0.0424459676 ABAB
    9    8   13   10   0.0390043881 ABAB
    8    9   10   13   0.0390043881 ABAB
    9    8   13   11   0.0269270549 ABAB
    8    9   11   13   0.0269270549 ABAB
    9    9   14   13  -0.0247250075 ABAB
    9    9   13   14  -0.0247250075 ABAB
--------------------------------------------------------------------------------
  Converged eigenvector, normalized to one 
  SCF eigenvalue ordering used in list below. 
--------------------------------------------------------------------------------
    I    j    A    b
--------------------------------------------------------------------------------
    9    0   13    0  -0.6671895681 AA  
    9    9   14   11   0.0992959469 ABAB
    9    9   11   14   0.0992959469 ABAB
    9    0   10    0  -0.0792855680 AA  
    9    9   14   10   0.0617348702 ABAB
    9    9   10   14   0.0617348702 ABAB
    9    0   27    0   0.0478774332 AA  
    9    8   11   13   0.0424459676 ABAB
    8    9   13   11   0.0424459676 ABAB
    9    8   13   10   0.0390043881 ABAB
    8    9   10   13   0.0390043881 ABAB
    9    8   13   11   0.0269270549 ABAB
    8    9   11   13   0.0269270549 ABAB
    9    9   14   13  -0.0247250075 ABAB
    9    9   13   14  -0.0247250075 ABAB
--------------------------------------------------------------------------------

  Eigenvector is saved on CCRE_2_3  

  Solution of   3 roots required   30 iterations.
 @CHECKOUT-I, Total execution time (CPU/WALL):       17.53/       2.20 seconds.
--executable xvee finished with status     0 in        2.22 seconds (walltime).
  The final electronic energy is       -78.559961855011693 a.u. 
  This computation required                            4.30 seconds (walltime).
