CFour on node01
 --invoking executable--
/home/tsommerfeld/zscale/bin/xjoda


   *************************************************************************
         <<<     CCCCCC     CCCCCC   |||     CCCCCC     CCCCCC   >>>
       <<<      CCC        CCC       |||    CCC        CCC         >>>
      <<<      CCC        CCC        |||   CCC        CCC            >>>
    <<<        CCC        CCC        |||   CCC        CCC              >>>
      <<<      CCC        CCC        |||   CCC        CCC            >>>
       <<<      CCC        CCC       |||    CCC        CCC         >>>
         <<<     CCCCCC     CCCCCC   |||     CCCCCC     CCCCCC   >>>
   *************************************************************************

     ****************************************************************
     * CFOUR Coupled-Cluster techniques for Computational Chemistry *
     ****************************************************************
 

   Department of Chemistry                Institut fuer Physikalische Chemie
   University of Florida                  Universitaet Mainz
   Gainesville, FL 32611, USA             D-55099 Mainz, Germany

   Department of Chemistry                Department of Chemistry
   Johns Hopkins University               Southern Methodist University
   Baltimore, MD 21218, USA               Dallas, TX 75275, USA

   Institute of Nanotechnology            Department of Physical Chemistry
   Karlsruhe Inst. of Technology          Eotvos Lorand University
   D-76021 Karlsruhe, Germany             H-1053 Budapest, Hungary

 
                       Version 2.1
 
                     node01                                            
                     Tue May  3 11:14:03 CDT 2022                      
                     integer*8 version is running
 
********************************************************************************
*                          Input from ZMAT file                                *
********************************************************************************
h_ethylene                                                                      
C       0.000000      0.0   -0.664500                                           
C       0.000000      0.0    0.664500                                           
H       0.962348      0.0   -1.159080                                           
H       0.962348      0.0    1.159080                                           
H      -0.962348      0.0   -1.159080                                           
H      -0.962348      0.0    1.159080                                           
H      0.000000      5.533333333333333      0.000000                            
                                                                                
*CFOUR(CALC=CCSD(T)                                                             
#EXCITE=EOMEE                                                                   
#ESTATE_SYM=0/3/0/0                                                             
CC_PROG=VCC                                                                     
CHARGE=-1                                                                       
COORDINATES=CARTESIAN                                                           
BASIS=SPECIAL                                                                   
REFERENCE=RHF                                                                   
MEM_SIZE=90,MEM_UNIT=GB)                                                        
                                                                                
C:cc-pVTZ                                                                       
C:cc-pVTZ                                                                       
H:cc-pVTZ                                                                       
H:cc-pVTZ                                                                       
H:cc-pVTZ                                                                       
H:cc-pVTZ                                                                       
H:aug-cc-pVTZ                                                                   
                                                                                
********************************************************************************
  @GTFLGS-W, Keyword #EXCITE not known and is ignored.
  @GTFLGS-W, Keyword #ESTATE_SYM not known and is ignored.
    -------------------------------------------------------------------
                    CFOUR Control Parameters 
    -------------------------------------------------------------------
        External           Internal           Value            Units
          Name               Name
    -------------------------------------------------------------------
       ABCDTYPE             IABCDT         STANDARD    [  0]    ***   
       ANHARMONIC           IANHAR         OFF         [  0]    ***   
       ANH_ALGORIT          IANALG         STANDARD    [  0]    ***   
       ANH_DERIVAT          IANDER         SECOND      [  1]    ***   
       ANH_MODE             ANHMOD         VIBRATION   [  0]    ***   
       ANH_STEPSIZ          ICUBST             50000          x 10-6  
       ANH_SYMMETR          IANHSM         ABELIAN     [  0]    ***   
       AO_LADDERS           IAOLAD         SINGLEPASS  [  1]    ***   
       AV_SCF               IAVSCF         OFF         [  0]    ***   
       BASIS                IBASIS         SPECIAL     [  0]    ***   
       BOTHVECTORS          BOTHVC         OFF         [  0]    ***   
       BOX_POTENT           IPIAB          OFF         [  0]    ***   
       BREIT                IBREIT         OFF         [  0]    ***   
       BRUCK_CONV           IBRTOL          10D-  4             ***   
       BRUECKNER            IBRKNR         OFF         [  0]    ***   
       BUFFERSIZE           IBUFFS              4096            ***   
       CACHE_RECS           ICHREC             10               ***   
       CALCLEVEL            ICLLVL         CCSD(T)     [ 22]    ***   
       CCORBOPT             ICCORB         OFF         [  0]  x 0.01  
       CC_CONV              ICCCNV          10D-  7             ***   
       CC_EXPORDER          ICCEOR              5               ***   
       CC_EXTRAPOL          ICCEXT         DIIS        [  1]    ***   
       CC_GUESS             ICCGES         MP2         [  0]    ***   
       CC_MAXCYC            ICCCYC            100              cycles 
       CC_PROGRAM           ICCPRO         VCC         [  0]    ***   
       CHARGE               ICHRGE             -1               ***   
       CHOLESKY             ICHOLE         OFF         [  0]    ***   
       CIS_CONV             ICISTL              5               ***   
       COMM_SIZE            IPSIZE            ***               ***   
       CONSTANT             ICONST         OLD         [  1]    ***   
       CONTINUUM            ICONTU         NONE        [  0]    ***   
       CONTRACTION          ICNTYP         GENERAL     [  1]    ***   
       COORDINATES          ICOORD         CARTESIAN   [  1]    ***   
       CPHF_CONVER          ICPHFT          10D- 16             ***   
       CPHF_MAXCYC          ICPHFC             64              cycles 
       CUBIC                ICUBIC         OFF         [  0]    ***   
       CURVILINEAR          ICURVY         OFF         [  0]    ***   
       DBOC                 IDBOC          OFF         [  0]    ***   
       DCT                  IDCT           OFF         [  0]    ***   
       DERIV_LEV            IDRLVL         ZERO        [  0]    ***   
       DEVMEM_SIZE          IDVMEM         *********           MByte  
       DIAG_MRCC            IEOMST          10D-  0             ***   
       DIFF_TYPE            IDIFTY         RELAXED     [  0]    ***   
       DIRECT               IDIRCT         OFF         [  0]    ***   
       DROPMO               IDRPMO      NONE         
       ECP                  IECP           OFF         [  0]    ***   
       EIGENVECTOR          IVEC                1               ***   
       EL_ANHARM            IELANH         OFF         [  0]    ***   
       EOMFOLLOW            IEOMSR         ENERGY      [  0]    ***   
       EOMIP                IEOMIP         OFF         [  0]    ***   
       EOMLEVEL             HBARFM         SAME        [  0]    ***   
       EOM_MRCC             IMRCCE         NEW         [  1]    ***   
       EOM_NONIT            EOMNON         OFF         [  0]    ***   
       EOM_NSING            IEOMSI          10D-  0             ***   
       EOM_NSTATES          IMRCCD         DAVIDSON    [  0]    ***   
       EOM_NTRIP            IEOMTR          10D-  0             ***   
       EOM_ORDER            IEXORD         ENERGY      [  0]    ***   
       EOM_PROPSTA          IEOMST              0               ***   
       ESTATE_CONV          IEXTOL          10D-  5             ***   
       ESTATE_DIAG          IEXDIG         ITERATIVE   [  0]    ***   
       ESTATE_LOCK          IESLOC         ON          [  1]    ***   
       ESTATE_MAXC          IEXMXC             40               ***   
       ESTATE_PROP          IEXPRP         OFF         [  0]    ***   
       EVAL_HESS            IRECAL              0            # of cyc.
       EXCITATION           IEXCIT              0               ***   
       EXCITE               IEXCIT         NONE        [  0]    ***   
       EXTERN_POT           IEXPOT         OFF         [  0]    ***   
       FCGRADNEW            IFCGNW         OFF         [  0]    ***   
       FC_FIELD             IFINFC              0             x 10-6  
       FD_CALTYPE           IFDCAL         GRADONLY    [  0]    ***   
       FD_PROJECT           IFDPRJ         OFF         [  1]    ***   
       FD_STEPSIZE          IDISFD              0            10-4 bohr
       FD_USEGROUP          IFDGRP         FULL        [  0]    ***   
       FILE_RECSIZ          IFLREC              4096           words  
       FINITE_PERT          IFIPER              0             x 10-6  
       FIXGEOM              IFIXGM         OFF         [  0]    ***   
       FOCK                 IFOCK          AO          [  1]    ***   
       FREQ_ALGORI          IVIALG         STANDARD    [  0]    ***   
       FROZEN_CORE          IFROCO         OFF         [  0]    ***   
       GAMMA_ABCD           IGABCD         STORE       [  0]    ***   
       GAMMA_ABCI           IGABCI         STORE       [  0]    ***   
       GENBAS_1             IGNBS1              0               ***   
       GENBAS_2             IGNBS2              0               ***   
       GENBAS_3             IGNBS3              0               ***   
       GENBAS_4             IGNBS4              0               ***   
       GEO_CONV             ICONTL              5              H/bohr 
       GEO_MAXCYC           IOPTCY             50               ***   
       GEO_MAXSTEP          IMXSTP            300            millibohr
       GEO_METHOD           INR            SINGLE_POINT[  5]    ***   
       GIAO                 IGIAO          OFF         [  1]    ***   
       GIMIC                IGIMIC         OFF         [  0]    ***   
       GRID                 IGRID          OFF         [  0]    ***   
       GRID_ALGO            IGALGO         SERIAL      [  0]    ***   
       GUESS                IGUESS         MOREAD      [  0]    ***   
       HBAR                 IHBAR          OFF         [  0]    ***   
       HESS_TYPE            IHESTP         SCF         [  0]    ***   
       HF2_FILE             IHF2Fl         USE         [  1]    ***   
       HFSTABILITY          ISTABL         OFF         [  0]    ***   
       INCORE               INCORE         OFF         [  0]    ***   
       INPUT_MRCC           IMRCC          ON          [  1]    ***   
       INTEGRALS            INTTYP         VMOL        [  1]    ***   
       JODA_PRINT           IJPRNT              0               ***   
       KEYWORD_OUT          IDMPKW         NO          [  0]    ***   
       LINDEP_TOL           ILINDP              8               ***   
       LINEQ_CONV           IZTACN          10D-  7           cycles  
       LINEQ_EXPOR          ILMAXD              5               ***   
       LINEQ_MAXCY          ILMAXC            100               ***   
       LINEQ_TYPE           ILTYPE         DIIS        [  1]    ***   
       LOCK_ORBOCC          ILOCOC         OFF         [  0]    ***   
       MEMORY_SIZE          IMEMSZ         *********           words  
       MEM_UNIT             IMEMU          GB          [  3]    ***   
       MRCC                 IMRCCC         OFF         [  0]    ***   
       MULTIPLICTY          IMULTP              1               ***   
       NACOUPLING           IVCOUP         OFF         [  0]    ***   
       NEGEVAL              IDIE           ABORT       [  0]    ***   
       NEWNORM              INEWNO         OFF         [  0]    ***   
       NON-HF               INONHF         OFF         [  0]    ***   
       NTOP_TAMP            ITOPT2             15               ***   
       NUC_MODEL            INUCMO         POINT       [  0]    ***   
       OCCUPATION           IOCCU   ESTIMATED BY SCF 
       OPEN-SHELL           IOPEN          SPIN-ORBITAL[  0]    ***   
       OPTVIB               IOPTVB         OFF         [  0]    ***   
       ORBITALS             IORBTP         STANDARD    [  0]    ***   
       PARALLEL             IPARAL         ON          [  1]    ***   
       PARA_INT             IPINTS         ON          [  1]    ***   
       PARA_PRINT           IPPRIN              0               ***   
       PERT_ORB             IPTORB         STANDARD    [  0]    ***   
       POINTS               IGRDFD              0               ***   
       PRINT                IPRNT               0               ***   
       PROPS                IPROPS         OFF         [  0]    ***   
       PROP_INTEGR          IINTYP         INTERNAL    [  0]    ***   
       PSI                  IPSI           OFF         [  0]    ***   
       QC_ALG               IQCALG         FLM         [  0]    ***   
       QC_LINALG            IQCLIN         TRIDIAG     [  2]    ***   
       QC_MAXCYC            IQCMAX          10D-100           cycles  
       QC_MAXSCFCY          IQCMSC          10D- 15           cycles  
       QC_RTRUST            IQCRTR          10D-  0           x 10-3  
       QC_SKIPSCF           IQCSKI         OFF         [  0]    ***   
       QC_START             IQCSTA          10D-  1             ***   
       QRHFGUESS            IQGUES         OFF         [  0]    ***   
       QUARTIC              IQUART         OFF         [  0]    ***   
       RAMAN_INT            IRAMIN         OFF         [  0]    ***   
       RAMAN_ORB            IRAMRE         UNRELAXED   [  0]    ***   
       RDO                  IRDOFM         OFF         [  0]    ***   
       REDUCE_REPR          REDREP         Ir          [  0]    ***   
       REFERENCE            IREFNC         RHF         [  0]    ***   
       RELATIVIST           IRELAT         OFF         [  0]    ***   
       RELAX_DENS           IRDENS         OFF         [  0]    ***   
       RESET_FLAGS          IRESET         OFF         [  0]    ***   
       RESTART_CC           ICCRES         OFF         [  0]    ***   
       ROT_EVEC             ROTVEC              0               ***   
       SAVE_INTS            ISVINT         OFF         [  0]    ***   
       SCALE_ON             ISTCRT              0               ***   
       SCF_CONV             ISCFCV          10D-  7             ***   
       SCF_DAMPING          IDAMP               0             x 10-3  
       SCF_EXPORDE          IRPPOR              6               ***   
       SCF_EXPSTAR          IRPPLS              8               ***   
       SCF_EXTRAPO          IRPP           ON          [  1]    ***   
       SCF_MAXCYC           ISCFCY            150              cycles 
       SCF_NOSTOP           ISCFST         OFF         [  0]    ***   
       SCF_PRINT            ISCFPR              0               ***   
       SCF_PROG             ISCFPR         SCF         [  0]    ***   
       SD_FIELD             IFINSD              0             x 10-6  
       SOPERT               IPERSO         OFF         [  0]    ***   
       SPHERICAL            IDFGHI         ON          [  1]    ***   
       SPINORBIT            ISOCAL         OFF         [  0]    ***   
       SPINROTATIO          ISRCON         OFF         [  0]    ***   
       SPIN_FLIP            ISPFLP         OFF         [  0]    ***   
       SPIN_ORBIT           ISPORB         OFF         [  0]    ***   
       SPIN_SCAL            ISCSMP         OFF         [  0]    ***   
       STEEPSCALE           ISTPSC              1000          x 10-3  
       SUBGROUP             ISUBGP         DEFAULT     [  0]    ***   
       SUBGRPAXIS           ISBXYZ         X           [  0]    ***   
       SYMMETRY             ISYM           ON          [  0]    ***   
       SYM_CHECK            ISYMCK         OVERRIDE    [  1]    ***   
       T3_EXTRAPOL          IT3EXT         OFF         [  0]    ***   
       T4_EXTRAPOL          IT4EXP         OFF         [  0]    ***   
       TAMP_SUM             IEVERY              5               ***   
       TESTSUITE            ITESTS         OFF         [  0]    ***   
       THERMOCH             ITHERM         OFF         [  0]    ***   
       TOL_CHOLESK          ITOLCH          10D-  4             ***   
       TRANGRAD             IRESRM         OFF         [  0]    ***   
       TRANS_INV            ITRAIN         USE         [  0]    ***   
       TREAT_PERT           ITREAT         SIMULTANEOUS[  0]    ***   
       TRIP_ALGORI          ITRALG         NORMAL      [  0]    ***   
       UIJ_THRESHO          IUIJTH              1               ***   
       UNITS                IUNITS         ANGSTROM    [  0]    ***   
       UNOS                 IUNOS          OFF         [  0]    ***   
       UPDATE_HESS          IHUPDT         ON          [  1]    ***   
       VIBPHASE             ISETPH         STANDARD    [  0]    ***   
       VIBRATION            IVIB           NO          [  0]    ***   
       VIB_ALGORIT          IGEALG         STANDARD    [  0]    ***   
       VNATORB              IVNORB         OFF         [  0]    ***   
       VTRAN                IVTRAN         FULL/PARTIAL[  0]    ***   
       XFIELD               IXEFLD              0             x 10-6  
       XFORM_TOL            IXFTOL          10D- 11             ***   
       YFIELD               IYEFLD              0             x 10-6  
       ZFIELD               IZEFLD              0             x 10-6  
       ZSCALE_EXP           IZEXPS         OFF         [  0]    ***   
    -------------------------------------------------------------------
  @GETXYZ-I,     7 atoms read from ZMAT.
   Rotational constants (in cm-1): 
          0.3680721868             0.5029144819             0.8536890782
   Rotational constants (in MHz): 
      11034.5281068741         15076.9989829966         25592.9582983936
********************************************************************************
   The full molecular point group is C2v .
   The largest Abelian subgroup of the full molecular point group is C2v .
   The computational point group is C2v .
********************************************************************************


 ----------------------------------------------------------------
         Coordinates used in calculation (QCOMP) 
 ----------------------------------------------------------------
 Z-matrix   Atomic            Coordinates (in bohr)
  Symbol    Number           X              Y              Z
 ----------------------------------------------------------------
     C         6        -1.25572327     0.00000000    -0.36290036
     C         6         1.25572327     0.00000000    -0.36290036
     H         1        -2.19034422     1.81857454    -0.36290036
     H         1         2.19034422     1.81857454    -0.36290036
     H         1        -2.19034422    -1.81857454    -0.36290036
     H         1         2.19034422    -1.81857454    -0.36290036
     H         1         0.00000000     0.00000000    10.09358638
 ----------------------------------------------------------------
 
   Interatomic distance matrix (Angstroms) 
 
                 C             C             H             H             H    
                [ 1]        [ 2]        [ 3]        [ 4]        [ 5]
  C    [ 1]     0.00000
  C    [ 2]     1.32900     0.00000
  H    [ 3]     1.08200     2.06193     0.00000
  H    [ 4]     2.06193     1.08200     2.31816     0.00000
  H    [ 5]     1.08200     2.06193     1.92470     3.01303     0.00000
  H    [ 6]     2.06193     1.08200     3.01303     1.92470     2.31816
  H    [ 7]     5.57309     5.57309     5.73475     5.73475     5.73475
 
                 H             H    
                [ 6]        [ 7]
  H    [ 6]     0.00000
  H    [ 7]     5.73475     0.00000
 rotcon2
   Rotational constants (in cm-1): 
          0.5029144819             0.3680721868             0.8536890782
   Rotational constants (in MHz): 
      15076.9989829966         11034.5281068741         25592.9582983935
  ECPDATA file not present.   Using default ECPDATA. 
  @GTFLGS-W, Keyword #EXCITE not known and is ignored.
  @GTFLGS-W, Keyword #ESTATE_SYM not known and is ignored.
  There are  139 basis functions.
 @GEOPT-W, Archive file not created for single-point calculation.
 @CHECKOUT-I, Total execution time (CPU/WALL):        0.15/       0.17 seconds.
--executable xjoda finished with status     0 in        0.19 seconds (walltime).
 --invoking executable--
/home/tsommerfeld/zscale/bin/xvmol
 SERIAL VERSION OF MOLECULE STARTED
********************************************************************************
                    INPUT FROM MOL FILE
********************************************************************************
INTGRL        1    0    1    0    0    0    0    0    0                         
         *** CFOUR Program System (Release V0.1) ***                            
h_ethylene                                                                      
    3    2 X  Y       0.10E-08              0    0                              
   9999.00      3.00                                                            
          6.00000000    1    4    1    1    1    1                              
C #1  -1.255723272983657   0.000000000000000  -0.362900364903025                
   10    4                                                                      
   8236.00000000000       5.310000000000000E-004  0.000000000000000E+000        
 -1.130000000000000E-004  0.000000000000000E+000                                
   1235.00000000000       4.108000000000000E-003  0.000000000000000E+000        
 -8.780000000000000E-004  0.000000000000000E+000                                
   280.800000000000       2.108700000000000E-002  0.000000000000000E+000        
 -4.540000000000000E-003  0.000000000000000E+000                                
   79.2700000000000       8.185300000000000E-002  0.000000000000000E+000        
 -1.813300000000000E-002  0.000000000000000E+000                                
   25.5900000000000       0.234817000000000       0.000000000000000E+000        
 -5.576000000000000E-002  0.000000000000000E+000                                
   8.99700000000000       0.434401000000000       0.000000000000000E+000        
 -0.126895000000000       0.000000000000000E+000                                
   3.31900000000000       0.346129000000000       0.000000000000000E+000        
 -0.170352000000000       0.000000000000000E+000                                
  0.905900000000000       3.937800000000000E-002   1.00000000000000             
  0.140382000000000       0.000000000000000E+000                                
  0.364300000000000      -8.983000000000000E-003  0.000000000000000E+000        
  0.598684000000000       0.000000000000000E+000                                
  0.128500000000000       2.385000000000000E-003  0.000000000000000E+000        
  0.395389000000000        1.00000000000000                                     
    5    3                                                                      
   18.7100000000000       0.000000000000000E+000  1.403100000000000E-002        
  0.000000000000000E+000                                                        
   4.13300000000000       0.000000000000000E+000  8.686600000000000E-002        
  0.000000000000000E+000                                                        
   1.20000000000000       0.000000000000000E+000  0.290216000000000             
  0.000000000000000E+000                                                        
  0.382700000000000        1.00000000000000       0.501008000000000             
  0.000000000000000E+000                                                        
  0.120900000000000       0.000000000000000E+000  0.343406000000000             
   1.00000000000000                                                             
    2    2                                                                      
   1.09700000000000        1.00000000000000       0.000000000000000E+000        
  0.318000000000000       0.000000000000000E+000   1.00000000000000             
    1    1                                                                      
  0.761000000000000        1.00000000000000                                     
          1.00000000    1    3    1    1    1                                   
H #2  -2.190344215575466   1.818574537711477  -0.362900364903025                
    5    3                                                                      
   33.8700000000000       0.000000000000000E+000  6.068000000000000E-003        
  0.000000000000000E+000                                                        
   5.09500000000000       0.000000000000000E+000  4.530800000000000E-002        
  0.000000000000000E+000                                                        
   1.15900000000000       0.000000000000000E+000  0.202822000000000             
  0.000000000000000E+000                                                        
  0.325800000000000        1.00000000000000       0.503903000000000             
  0.000000000000000E+000                                                        
  0.102700000000000       0.000000000000000E+000  0.383421000000000             
   1.00000000000000                                                             
    2    2                                                                      
   1.40700000000000        1.00000000000000       0.000000000000000E+000        
  0.388000000000000       0.000000000000000E+000   1.00000000000000             
    1    1                                                                      
   1.05700000000000        1.00000000000000                                     
          1.00000000    1    3    1    1    1                                   
H #3   0.000000000000000   0.000000000000000  10.093586382791337                
    6    4                                                                      
   33.8700000000000       0.000000000000000E+000  6.068000000000000E-003        
  0.000000000000000E+000  0.000000000000000E+000                                
   5.09500000000000       0.000000000000000E+000  4.530800000000000E-002        
  0.000000000000000E+000  0.000000000000000E+000                                
   1.15900000000000       0.000000000000000E+000  0.202822000000000             
  0.000000000000000E+000  0.000000000000000E+000                                
  0.325800000000000        1.00000000000000       0.503903000000000             
  0.000000000000000E+000  0.000000000000000E+000                                
  0.102700000000000       0.000000000000000E+000  0.383421000000000             
   1.00000000000000       0.000000000000000E+000                                
  2.526000000000000E-002  0.000000000000000E+000  0.000000000000000E+000        
  0.000000000000000E+000   1.00000000000000                                     
    3    3                                                                      
   1.40700000000000        1.00000000000000       0.000000000000000E+000        
  0.000000000000000E+000                                                        
  0.388000000000000       0.000000000000000E+000   1.00000000000000             
  0.000000000000000E+000                                                        
  0.102000000000000       0.000000000000000E+000  0.000000000000000E+000        
   1.00000000000000                                                             
    2    2                                                                      
   1.05700000000000        1.00000000000000       0.000000000000000E+000        
  0.247000000000000       0.000000000000000E+000   1.00000000000000             
FINISH                                                                          
 
********************************************************************************
 ONE- AND TWO-ELECTRON INTEGRALS OVER SYMMETRY-ADAPTED AOS ARE CALCULATED.

  SPHERICAL HARMONICS ARE USED.
  
  INTEGRALS LESS THAN  0.10E-13 ARE NEGLECTED.

  NUCLEAR REPULSION ENERGY :   35.0977438065 A.U.
  @MOLECU-I, ONE ELECTRON INTEGRALS (CPU/WALL):        0.04/       0.04 SECONDS.
  @TWOEL-I,     634958 INTEGRALS OF SYMMETRY TYPE  I I I I
  @TWOEL-I,    2652882 INTEGRALS OF SYMMETRY TYPE  I J I J
  @TWOEL-I,    1478358 INTEGRALS OF SYMMETRY TYPE  I I J J
  @TWOEL-I,    2281513 INTEGRALS OF SYMMETRY TYPE  I J K L
  @TWOEL-I, TOTAL NUMBER OF 2-E INTEGRALS    7047711.
  @MOLECU-I, TWO ELECTRON INTEGRALS (CPU/WALL):       41.69/       4.60 SECONDS.
 @CHECKOUT-I, Total execution time (CPU/WALL):       41.74/       4.65 seconds.

Running with 12 threads/proc

--executable xvmol finished with status     0 in        4.68 seconds (walltime).
 --invoking executable--
/home/tsommerfeld/zscale/bin/xvmol2ja
 @GETMEM-I,  Allocated   85830 MB of main memory.
 @CHECKOUT-I, Total execution time (CPU/WALL):        0.11/       0.02 seconds.
--executable xvmol2ja finished with status     0 in        0.05 seconds (walltime).
 --invoking executable--
/home/tsommerfeld/zscale/bin/xvscf
  There are  139 functions in the AO basis.

  There are 4 irreducible representations.

       Irrep        # of functions
         1                 45
         2                 39
         3                 29
         4                 26


  Parameters for SCF calculation: 
        SCF reference function:  RHF  
  Maximum number of iterations:  150
     Full symmetry point group: C2v 
     Computational point group: C2v 
        Initial density matrix: MOREAD                 
     SCF convergence tolerance: 10**(- 7)
  DIIS convergence acceleration:  ON
          Latest start for DIIS:   8
                     DIIS order:   6

  Memory information:     823082 words required.
  Fock matrices are constructed from AO integral file.
 @GETMEM-I,  Allocated       6 MB of main memory.
  Initialization and symmetry analysis required      0.002 seconds.

  @INITGES-I, Occupancies from core Hamiltonian:

          Alpha population by irrep:   4    3    1    1
           Beta population by irrep:   4    3    1    1


 total no. of electrons in initial guess :  0.000000000000000E+000
  --------------------------------------------------------------------
  Iteration         Total Energy            Largest Density Difference
  --------------------------------------------------------------------
       0            35.097743806517592              0.0000000000D+00
   current occupation vector 
     4  3  1  1
     4  3  1  1
       1           -51.769957822978931              0.8750076870D+01
   current occupation vector 
     4  3  1  1
     4  3  1  1
       2           -44.510191848008823              0.3071795791D+02
   current occupation vector 
     5  3  1  0
     5  3  1  0
       3           -68.116308447258632              0.3046036331D+02
   current occupation vector 
     4  3  1  1
     4  3  1  1
       4           -46.518594842591916              0.1262156649D+02
   current occupation vector 
     6  2  1  0
     6  2  1  0
       5           -68.793587662094183              0.1262156577D+02
   current occupation vector 
     4  3  1  1
     4  3  1  1
       6           -46.802246298231587              0.1261560418D+02
   current occupation vector 
     6  2  1  0
     6  2  1  0
       7           -68.888449325250548              0.1261560422D+02
   current occupation vector 
     4  3  1  1
     4  3  1  1
       8           -46.840344238904841              0.1261470491D+02
   current occupation vector 
     6  2  1  0
     6  2  1  0
       9           -73.797917024873669              0.1261471694D+02
   current occupation vector 
     4  3  1  1
     4  3  1  1
      10           -76.167072750988552              0.9627387802D+00
   current occupation vector 
     4  3  1  1
     4  3  1  1
      11           -78.484590375911864              0.1531324503D+01
   current occupation vector 
     5  2  1  1
     5  2  1  1
      12           -78.539425114217408              0.4233165708D+00
   current occupation vector 
     5  2  1  1
     5  2  1  1
      13           -78.545345837992699              0.9026159786D-01
   current occupation vector 
     5  2  1  1
     5  2  1  1
      14           -78.545646522006166              0.3000665757D-01
   current occupation vector 
     5  2  1  1
     5  2  1  1
      15           -78.545660853265048              0.7632086787D-02
   current occupation vector 
     5  2  1  1
     5  2  1  1
      16           -78.545661491908362              0.2076507216D-02
   current occupation vector 
     5  2  1  1
     5  2  1  1
      17           -78.545661499503268              0.1608107906D-03
   current occupation vector 
     5  2  1  1
     5  2  1  1
      18           -78.545661499713475              0.2265475644D-04
   current occupation vector 
     5  2  1  1
     5  2  1  1
      19           -78.545661499730244              0.3255243303D-05
   current occupation vector 
     5  2  1  1
     5  2  1  1
      20           -78.545661499730869              0.7247305237D-06
   current occupation vector 
     5  2  1  1
     5  2  1  1
      21           -78.545661499731580              0.1408631185D-06
   current occupation vector 
     5  2  1  1
     5  2  1  1

  SCF has converged.

 Density matrix saved to file den.dat
 total electron number:   18.0000000000000     
     E(SCF)=       -78.545661499731409              0.7937164825D-08


  Final occupancies:

     Alpha population by irrep:   5    2    1    1
      Beta population by irrep:   5    2    1    1


  Eigenvector printing suppressed.

 @PUTMOS-I, Writing converged MOs to NEWMOS. 
 @PUTMOS-I, Symmetry   1 Full Blocks 11 Partial Blocksize   1
 @PUTMOS-I, Symmetry   2 Full Blocks  9 Partial Blocksize   3
 @PUTMOS-I, Symmetry   3 Full Blocks  7 Partial Blocksize   1
 @PUTMOS-I, Symmetry   4 Full Blocks  6 Partial Blocksize   2
 @PUTFOCK-I, Writing converged Fock matrix to NEWFOCK. 
 @PUTFOCK-I, Symmetry   1 Full Blocks 11 Partial Blocksize   1
 @PUTFOCK-I, Symmetry   2 Full Blocks  9 Partial Blocksize   3
 @PUTFOCK-I, Symmetry   3 Full Blocks  7 Partial Blocksize   1
 @PUTFOCK-I, Symmetry   4 Full Blocks  6 Partial Blocksize   2


 
  ORBITAL EIGENVALUES (ALPHA)  (1H = 27.2113834 eV)

       MO #        E(hartree)               E(eV)           FULLSYM    COMPSYM
       ----   --------------------   --------------------   -------   ---------
    1     1         -11.1332313963        -302.9506280064      A1        A1 (1)
    2    46         -11.1314673066        -302.9026246857      B1        B1 (2)
    3     2          -0.9445079325         -25.7013674763      A1        A1 (1)
    4    47          -0.6872178150         -18.7001474434      B1        B1 (2)
    5    85          -0.5663903438         -15.4122647982      B2        B2 (3)
    6     3          -0.4735429114         -12.8857577179      A1        A1 (1)
    7   114          -0.4223374474         -11.4923862059      A2        A2 (4)
    8     4          -0.2823047466          -7.6819026942      A1        A1 (1)
    9     5          -0.0444705210          -1.2101043982      A1        A1 (1)
  +++++++++++++++++++++++++++++++++++++++++++++++++++++++++++++++++++++++++++++
   10     6           0.2338651021           6.3637929561      A1        A1 (1)
   11    48           0.2487334535           6.7683813665      B1        B1 (2)
   12     7           0.2609729532           7.1014350866      A1        A1 (1)
   13    86           0.2733931449           7.4394056847      B2        B2 (3)
   14    49           0.2808312553           7.6418069579      B1        B1 (2)
   15   115           0.3263876345           8.8814590584      A2        A2 (4)
   16    50           0.4447091148          12.1011502253      B1        B1 (2)
   17     8           0.4459657835          12.1353459177      A1        A1 (1)
   18    51           0.4501189953          12.2483605568      B1        B1 (2)
   19    87           0.4502161448          12.2510041297      B2        B2 (3)
   20     9           0.4522970062          12.3076272459      A1        A1 (1)
   21    10           0.5461175418          14.8606138101      A1        A1 (1)
   22    88           0.5645387565          15.3618805470      B2        B2 (3)
   23    11           0.5869063585          15.9705339423      A1        A1 (1)
   24    52           0.6573028149          17.8861189067      B1        B1 (2)
   25    53           0.6877146671          18.7136674758      B1        B1 (2)
   26    89           0.6877793157          18.7154266543      B2        B2 (3)
   27    12           0.7168823935          19.5073616624      A1        A1 (1)
   28    54           0.7310695147          19.8934128565      B1        B1 (2)
   29    90           0.7611867579          20.7129447092      B2        B2 (3)
   30   116           0.7848285101          21.3562694913      A2        A2 (4)
   31    13           0.7895049055          21.4835206785      A1        A1 (1)
   32    55           0.8770786919          23.8665245574      B1        B1 (2)
   33   117           0.9212678467          25.0689725897      A2        A2 (4)
   34    14           0.9908928967          26.9635665193      A1        A1 (1)
   35   118           0.9973632023          27.1396324864      A2        A2 (4)
   36    15           1.0785076852          29.3476861227      A1        A1 (1)
   37   119           1.1031515100          30.0182786861      E         A2 (4)
   38    16           1.1031522131          30.0182978203      E         A1 (1)
   39    91           1.1032880691          30.0219946478      B2        B2 (3)
   40    56           1.1033362377          30.0233053821      B1        B1 (2)
   41    17           1.1035499764          30.0291215097      A1        A1 (1)
   42   120           1.1128110816          30.2811289932      A2        A2 (4)
   43    92           1.1302983919          30.7569828972      B2        B2 (3)
   44    18           1.2750120962          34.6948429887      A1        A1 (1)
   45    57           1.2756670275          34.7126645756      B1        B1 (2)
   46    19           1.3188579819          35.8879501967      A1        A1 (1)
   47    93           1.3396314260          36.4532243476      B2        B2 (3)
   48    58           1.3398915109          36.4603016187      B1        B1 (2)
   49    20           1.3471967051          36.6590860565      A1        A1 (1)
   50    94           1.3475956946          36.6699431150      B2        B2 (3)
   51    59           1.4136875145          38.4683929648      B1        B1 (2)
   52    95           1.4372230117          39.1088264034      B2        B2 (3)
   53    60           1.4578762759          39.6708302935      B1        B1 (2)
   54    96           1.5551060691          42.3165874740      B2        B2 (3)
   55    61           1.5698962250          42.7190480780      B1        B1 (2)
   56    21           1.6008999672          43.5627027921      A1        A1 (1)
   57    62           1.6266513273          44.2634329262      B1        B1 (2)
   58   121           1.6885113833          45.9467306255      A2        A2 (4)
   59   122           1.7295194947          47.0626180692      A2        A2 (4)
   60    63           1.8927118080          51.5033066724      B1        B1 (2)
   61    22           1.9441534714          52.9031054975      A1        A1 (1)
   62   123           2.0625876532          56.1258634281      A2        A2 (4)
   63    23           2.3831757483          64.8495089953      A1        A1 (1)
   64    24           2.4630277037          67.0223911708      A1        A1 (1)
   65    25           2.6417229387          71.8849357208      A1        A1 (1)
   66    64           2.6585843552          72.3437581899      B1        B1 (2)
   67    97           2.7169531319          73.9320533531      B2        B2 (3)
   68    98           2.8022615245          76.2534127308      B2        B2 (3)
   69    65           2.8340029020          77.1171395225      B1        B1 (2)
   70    26           2.8552331289          77.6948433677      A1        A1 (1)
   71   124           2.9348325045          79.8608524955      A2        A2 (4)
   72    27           2.9824734184          81.1572276696      A1        A1 (1)
   73    99           3.0091025657          81.8818436050      B2        B2 (3)
   74   125           3.1576410434          85.9237810725      A2        A2 (4)
   75    28           3.1907354429          86.8243254638      A1        A1 (1)
   76   100           3.2007496166          87.0968249843      B2        B2 (3)
   77    29           3.2021269101          87.1343030473      A1        A1 (1)
   78   101           3.2141091961          87.4603576239      B2        B2 (3)
   79   126           3.2463676585          88.3381550121      A2        A2 (4)
   80    30           3.2724212410          89.0471090340      A1        A1 (1)
   81    66           3.3224463111          90.4083603984      B1        B1 (2)
   82    67           3.3588225916          91.3982093132      B1        B1 (2)
   83   102           3.4307690082          93.3559708402      B2        B2 (3)
   84    68           3.4956162088          95.1205528782      B1        B1 (2)
   85    69           3.5194741682          95.7697609569      B1        B1 (2)
   86   127           3.5200785225          95.7862062735      A2        A2 (4)
   87   128           3.5401705572          96.3329383342      A2        A2 (4)
   88    70           3.5470095189          96.5190359427      B1        B1 (2)
   89    31           3.6441174483          99.1614770396      A1        A1 (1)
   90    32           3.6700580534          99.8673567915      A1        A1 (1)
   91   103           3.7345907760         101.6233814484      B2        B2 (3)
   92   104           3.8151473851         103.8154382231      B2        B2 (3)
   93   129           3.9088622690         106.3655498586      A2        A2 (4)
   94    71           3.9695116693         108.0159039431      B1        B1 (2)
   95   130           4.0048113949         108.9764583107      A2        A2 (4)
   96    72           4.0613632873         110.5153135363      B1        B1 (2)
   97   131           4.0700219987         110.7509290520      A2        A2 (4)
   98    33           4.1000292172         111.5674669812      A1        A1 (1)
   99   105           4.1045289789         111.6899117211      B2        B2 (3)
  100    34           4.1504757510         112.9401869542      A1        A1 (1)
  101    35           4.2176212863         114.7673098578      E         A1 (1)
  102   132           4.2176214967         114.7673155839      E         A2 (4)
  103   106           4.2176628417         114.7684406364      B2        B2 (3)
  104    73           4.2176876163         114.7691147873      B1        B1 (2)
  105    36           4.2177501775         114.7708171661      A1        A1 (1)
  106    74           4.2772707582         116.3904545069      B1        B1 (2)
  107   133           4.2842531458         116.5804549333      A2        A2 (4)
  108    37           4.2858221295         116.6231491500      A1        A1 (1)
  109   107           4.2950608865         116.8745485088      B2        B2 (3)
  110    38           4.4220422703         120.3298876269      A1        A1 (1)
  111    75           4.4425720061         120.8885301391      B1        B1 (2)
  112   108           4.4457853994         120.9759710163      B2        B2 (3)
  113    76           4.4466848095         121.0004452095      B1        B1 (2)
  114    39           4.4484213981         121.0477001893      A1        A1 (1)
  115   109           4.5623862904         124.1488425673      B2        B2 (3)
  116    77           4.5983868687         125.1284681062      B1        B1 (2)
  117   134           4.6996318127         127.8834830932      A2        A2 (4)
  118    40           4.7349344634         128.8441170579      A1        A1 (1)
  119    78           4.8512004044         132.0078741533      B1        B1 (2)
  120    79           4.9074066454         133.5373237284      B1        B1 (2)
  121    41           5.0214963848         136.6418633697      A1        A1 (1)
  122    42           5.0669627921         137.8790672095      A1        A1 (1)
  123   135           5.1206749482         139.3406492833      A2        A2 (4)
  124   110           5.2200666955         142.0452362260      B2        B2 (3)
  125   111           5.3100015528         144.4924881081      B2        B2 (3)
  126    43           5.3925789395         146.7395330371      A1        A1 (1)
  127    80           5.3972945882         146.8678523625      B1        B1 (2)
  128   136           5.5200697762         150.2087350752      A2        A2 (4)
  129   137           5.5351705580         150.6196482370      A2        A2 (4)
  130    81           5.6308762367         153.2239321536      B1        B1 (2)
  131    44           5.6558049564         153.9022771054      A1        A1 (1)
  132   112           5.7105411610         155.3917249526      B2        B2 (3)
  133    82           6.0500548610         164.6303624141      B1        B1 (2)
  134   138           6.1856805338         168.3209245963      A2        A2 (4)
  135   113           6.3635487971         173.1609661021      B2        B2 (3)
  136    83           6.6029871206         179.6764141248      B1        B1 (2)
  137   139           6.9664402820         189.5664774463      A2        A2 (4)
  138    45          11.9967791160         326.4489560911      A1        A1 (1)
  139    84          14.8428432538         403.8942985258      B1        B1 (2)


  VSCF finished.

 @CHECKOUT-I, Total execution time (CPU/WALL):       18.71/       1.57 seconds.
--executable xvscf finished with status     0 in        1.60 seconds (walltime).
 --invoking executable--
/home/tsommerfeld/zscale/bin/xvtran
 @GETMEM-I,  Allocated   85830 MB of main memory.
  Full RHF integral transformation
  Transformation of IIII integrals :
  1 pass through the AO integral file was required.
      634958 AO integrals were read.
      997326 MO integrals were written to HF2.
  Transformation of IIJJ integrals :
  1 pass through the AO integral file was required.
     1478358 AO integrals were read.
     2386575 MO integrals were written to HF2.
  Transformation of IJIJ integrals :
  1 pass through the AO integral file was required.
     2652882 AO integrals were read.
     4517476 MO integrals were written to HF2.
  Transformation of IJKL integrals :
  1 pass through the AO integral file was required.
     2281513 AO integrals were read.
     3969810 MO integrals were written to HF2.
  Summary of active molecular orbitals: 
------------------------------------------------------------------------
 
  Index      Eigenvalue    Symmetry    Index      Eigenvalue    Symmetry
------------------------------------------------------------------------
     1       -11.1332314        1        71         3.5194742        2
     2        -0.9445079        1        72         3.5470095        2
     3        -0.4735429        1        73         3.9695117        2
     4        -0.2823047        1        74         4.0613633        2
     5        -0.0444705        1        75         4.2176876        2
     6       -11.1314673        2        76         4.2772708        2
     7        -0.6872178        2        77         4.4425720        2
     8        -0.5663903        3        78         4.4466848        2
     9        -0.4223374        4        79         4.5983869        2
    10         0.2338651        1        80         4.8512004        2
    11         0.2609730        1        81         4.9074066        2
    12         0.4459658        1        82         5.3972946        2
    13         0.4522970        1        83         5.6308762        2
    14         0.5461175        1        84         6.0500549        2
    15         0.5869064        1        85         6.6029871        2
    16         0.7168824        1        86        14.8428433        2
    17         0.7895049        1        87         0.2733931        3
    18         0.9908929        1        88         0.4502161        3
    19         1.0785077        1        89         0.5645388        3
    20         1.1031522        1        90         0.6877793        3
    21         1.1035500        1        91         0.7611868        3
    22         1.2750121        1        92         1.1032881        3
    23         1.3188580        1        93         1.1302984        3
    24         1.3471967        1        94         1.3396314        3
    25         1.6009000        1        95         1.3475957        3
    26         1.9441535        1        96         1.4372230        3
    27         2.3831757        1        97         1.5551061        3
    28         2.4630277        1        98         2.7169531        3
    29         2.6417229        1        99         2.8022615        3
    30         2.8552331        1       100         3.0091026        3
    31         2.9824734        1       101         3.2007496        3
    32         3.1907354        1       102         3.2141092        3
    33         3.2021269        1       103         3.4307690        3
    34         3.2724212        1       104         3.7345908        3
    35         3.6441174        1       105         3.8151474        3
    36         3.6700581        1       106         4.1045290        3
    37         4.1000292        1       107         4.2176628        3
    38         4.1504758        1       108         4.2950609        3
    39         4.2176213        1       109         4.4457854        3
    40         4.2177502        1       110         4.5623863        3
    41         4.2858221        1       111         5.2200667        3
    42         4.4220423        1       112         5.3100016        3
    43         4.4484214        1       113         5.7105412        3
    44         4.7349345        1       114         6.3635488        3
    45         5.0214964        1       115         0.3263876        4
    46         5.0669628        1       116         0.7848285        4
    47         5.3925789        1       117         0.9212678        4
    48         5.6558050        1       118         0.9973632        4
    49        11.9967791        1       119         1.1031515        4
    50         0.2487335        2       120         1.1128111        4
    51         0.2808313        2       121         1.6885114        4
    52         0.4447091        2       122         1.7295195        4
    53         0.4501190        2       123         2.0625877        4
    54         0.6573028        2       124         2.9348325        4
    55         0.6877147        2       125         3.1576410        4
    56         0.7310695        2       126         3.2463677        4
    57         0.8770787        2       127         3.5200785        4
    58         1.1033362        2       128         3.5401706        4
    59         1.2756670        2       129         3.9088623        4
    60         1.3398915        2       130         4.0048114        4
    61         1.4136875        2       131         4.0700220        4
    62         1.4578763        2       132         4.2176215        4
    63         1.5698962        2       133         4.2842531        4
    64         1.6266513        2       134         4.6996318        4
    65         1.8927118        2       135         5.1206749        4
    66         2.6585844        2       136         5.5200698        4
    67         2.8340029        2       137         5.5351706        4
    68         3.3224463        2       138         6.1856805        4
    69         3.3588226        2       139         6.9664403        4
    70         3.4956162        2
------------------------------------------------------------------------
  -11.1332313963297      -0.944507932524155      -0.473542911380929     
 -0.282304746556527      -4.447052104537411E-002  -11.1314673066451     
 -0.687217815006156      -0.566390343763943      -0.422337447419753     
  0.233865102061442       0.260972953199898       0.445965783485118     
  0.452297006183320       0.546117541753131       0.586906358546836     
  0.716882393506819       0.789504905454580       0.990892896658865     
   1.07850768523322        1.10315221313958        1.10354997642836     
   1.27501209617658        1.31885798193825        1.34719670505513     
   1.60089996718305        1.94415347135746        2.38317574825431     
   2.46302770372100        2.64172293867457        2.85523312893001     
   2.98247341844344        3.19073544286520        3.20212691013987     
   3.27242124095798        3.64411744827505        3.67005805340794     
   4.10002921722902        4.15047575104955        4.21762128631183     
   4.21775017752825        4.28582212949991        4.42204227025466     
   4.44842139813129        4.73493446341729        5.02149638484554     
   5.06696279210394        5.39257893948704        5.65580495644508     
   11.9967791160172       0.248733453458752       0.280831255270549     
  0.444709114836253       0.450118995304078       0.657302814920940     
  0.687714667083668       0.731069514699198       0.877078691906788     
   1.10333623766101        1.27566702748236        1.33989151094295     
   1.41368751449834        1.45787627590685        1.56989622504794     
   1.62665132733480        1.89271180797097        2.65858435517644     
   2.83400290198213        3.32244631114115        3.35882259162093     
   3.49561620884731        3.51947416818450        3.54700951891685     
   3.96951166926299        4.06136328725760        4.21768761625205     
   4.27727075819676        4.44257200606495        4.44668480947127     
   4.59838686871663        4.85120040435940        4.90740664542689     
   5.39729458820825        5.63087623665552        6.05005486101527     
   6.60298712063137        14.8428432538187       0.273393144894681     
  0.450216144824542       0.564538756489122       0.687779315705850     
  0.761186757935604        1.10328806905916        1.13029839185545     
   1.33963142600090        1.34759569463995        1.43722301172676     
   1.55510606910312        2.71695313194132        2.80226152451969     
   3.00910256569247        3.20074961658688        3.21410919607755     
   3.43076900824542        3.73459077602065        3.81514738508788     
   4.10452897889341        4.21766284166205        4.29506088649786     
   4.44578539936807        4.56238629041325        5.22006669554163     
   5.31000155280830        5.71054116096937        6.36354879708467     
  0.326387634463292       0.784828510088189       0.921267846666752     
  0.997363202283298        1.10315150996922        1.11281108160178     
   1.68851138327367        1.72951949474097        2.06258765322936     
   2.93483250452700        3.15764104343507        3.24636765847388     
   3.52007852248855        3.54017055723097        3.90886226896509     
   4.00481139487697        4.07002199866221        4.21762149674162     
   4.28425314581197        4.69963181266297        5.12067494823754     
   5.52006977620883        5.53517055795712        6.18568053384356     
   6.96644028198572     
 @CHECKOUT-I, Total execution time (CPU/WALL):       17.48/       2.26 seconds.
--executable xvtran finished with status     0 in        2.28 seconds (walltime).
 --invoking executable--
/home/tsommerfeld/zscale/bin/xintprc
 @GETMEM-I,  Allocated   85830 MB of main memory.
  @GMOIAA-I, Processing MO integrals for spin case AA.
  @GMOIAA-I, Generation of integral list completed.
                      TYPE                NUMBER
                      ----               --------
                      PPPP               9084376
                      PPPH               2501601
                      PPHH                173538
                      PHPH                 97627
                      PHHH                 13713
                      HHHH                   332

                     TOTAL              11871187

  @FORMT2-I, Second-order MP correlation energies:
            ------------------------------------------------
            E(SCF)                  =    -78.545661499731 a.u.
            E2(AA)                  =     -0.037998151084 a.u.
            E2(AB)                  =     -0.319465176388 a.u.
            E2(TOT)                 =     -0.395461478556 a.u.
            Total MP2 energy        =    -78.941122978287 a.u.
            ------------------------------------------------
   Largest T2 amplitudes for spin case AB:
       _       _                 _       _                 _       _
   i   j   a   b             i   j   a   b             i   j   a   b
-----------------------------------------------------------------------------
[  4   4  50  50]-0.08229 [  5   5  10  10]-0.04678 [  5   5  17  17]-0.04652
[  5   5  88  88]-0.04095 [  5   5  53  53]-0.04088 [  5   5  10  11] 0.04024
[  5   5  11  10] 0.04024 [  5   5  12  12]-0.03621 [  4   4  54  50]-0.03544
[  4   4  50  54]-0.03544 [  5   5  11  11]-0.03527 [  5   5  17  10]-0.03144
[  5   5  10  17]-0.03144 [  4   4  14  14]-0.02933 [  5   5  17  11] 0.02866
-----------------------------------------------------------------------------
   Norm of T2AB vector (   345906 symmetry allowed elements):  0.3322790486.
-----------------------------------------------------------------------------
 @CHECKOUT-I, Total execution time (CPU/WALL):        5.63/       2.76 seconds.
--executable xintprc finished with status     0 in        2.78 seconds (walltime).
  calling xvcc 
 --invoking executable--
/home/tsommerfeld/zscale/bin/xvcc
 @GETMEM-I,  Allocated   85830 MB of main memory.
   CCSD(T) energy will be calculated.
   The total correlation energy is -0.395461478556 a.u.
   The total correlation energy is -0.415295355953 a.u.
  Convergence information after     1 iterations: 
  Largest element of residual vector : -0.15564831E-01.
  Largest element of DIIS residual   : -0.15564831E-01.
   The total correlation energy is -0.426463121094 a.u.
  Convergence information after     2 iterations: 
  Largest element of residual vector : -0.10875515E-01.
  Largest element of DIIS residual   : -0.10625216E-01.
   The total correlation energy is -0.429359555787 a.u.
  Convergence information after     3 iterations: 
  Largest element of residual vector :  0.48054844E-02.
  Largest element of DIIS residual   :  0.48792870E-02.
   The total correlation energy is -0.430980979813 a.u.
  Convergence information after     4 iterations: 
  Largest element of residual vector :  0.28206664E-02.
  Largest element of DIIS residual   : -0.15835233E-02.
   The total correlation energy is -0.431153891233 a.u.
  Convergence information after     5 iterations: 
  Largest element of residual vector :  0.10169019E-02.
  Largest element of DIIS residual   :  0.51719732E-03.
   The total correlation energy is -0.431159778867 a.u.
  Convergence information after     6 iterations: 
  Largest element of residual vector : -0.33550671E-03.
  Largest element of DIIS residual   :  0.26273066E-03.
   The total correlation energy is -0.431153965059 a.u.
  Convergence information after     7 iterations: 
  Largest element of residual vector :  0.16387286E-03.
  Largest element of DIIS residual   :  0.90656184E-04.
   The total correlation energy is -0.431146319628 a.u.
  Convergence information after     8 iterations: 
  Largest element of residual vector : -0.55048772E-04.
  Largest element of DIIS residual   : -0.32808762E-04.
   The total correlation energy is -0.431145939279 a.u.
  Convergence information after     9 iterations: 
  Largest element of residual vector :  0.28945286E-04.
  Largest element of DIIS residual   : -0.15237415E-04.
   The total correlation energy is -0.431146552655 a.u.
  Convergence information after    10 iterations: 
  Largest element of residual vector : -0.93146764E-05.
  Largest element of DIIS residual   : -0.71678018E-05.
   The total correlation energy is -0.431147415492 a.u.
  Convergence information after    11 iterations: 
  Largest element of residual vector :  0.56509852E-05.
  Largest element of DIIS residual   :  0.53586967E-05.
   The total correlation energy is -0.431147956066 a.u.
  Convergence information after    12 iterations: 
  Largest element of residual vector : -0.25703570E-05.
  Largest element of DIIS residual   : -0.27219410E-05.
   The total correlation energy is -0.431148305312 a.u.
  Convergence information after    13 iterations: 
  Largest element of residual vector :  0.19007881E-05.
  Largest element of DIIS residual   :  0.10649141E-05.
   The total correlation energy is -0.431148427481 a.u.
  Convergence information after    14 iterations: 
  Largest element of residual vector : -0.71543153E-06.
  Largest element of DIIS residual   :  0.56438576E-06.
   The total correlation energy is -0.431148463130 a.u.
  Convergence information after    15 iterations: 
  Largest element of residual vector :  0.43983531E-06.
  Largest element of DIIS residual   : -0.27939054E-06.
   The total correlation energy is -0.431148454918 a.u.
  Convergence information after    16 iterations: 
  Largest element of residual vector : -0.17466094E-06.
  Largest element of DIIS residual   :  0.11229855E-06.
   The total correlation energy is -0.431148450784 a.u.
  Convergence information after    17 iterations: 
  Largest element of residual vector :  0.71700922E-07.
  Largest element of DIIS residual   :  0.56756093E-07.
  Amplitude equations converged in    17iterations.
   The total correlation energy is -0.431148449310 a.u.
   The CC iterations have converged.

   Largest T1 amplitudes for spin case AA:
   i       a                 i       a                 i       a    
-----------------------------------------------------------------------------
[  5      10    ] 0.02470 [  4      14    ] 0.02147 [  5      17    ]-0.01527
[  4      18    ]-0.01495 [  5      11    ]-0.01422 [  4      22    ] 0.00974
[  4      28    ]-0.00942 [  4      15    ]-0.00902 [  8      89    ]-0.00795
[  8      90    ] 0.00618 [  3      13    ] 0.00524 [  5      31    ]-0.00489
[  4      12    ] 0.00488 [  9     121    ]-0.00450 [  8      97    ]-0.00434
-----------------------------------------------------------------------------
   Norm of T1AA vector (      327 symmetry allowed elements):  0.0497801016.
-----------------------------------------------------------------------------
   Largest T2 amplitudes for spin case AB:
       _       _                 _       _                 _       _
   i   j   a   b             i   j   a   b             i   j   a   b
-----------------------------------------------------------------------------
[  4   4  50  50]-0.11559 [  5   5  10  10]-0.08532 [  5   5  11  10] 0.07361
[  5   5  10  11] 0.07361 [  5   5  11  11]-0.06385 [  5   5  17  10]-0.06330
[  5   5  10  17]-0.06330 [  5   5  17  17]-0.06256 [  5   5  17  11] 0.05544
[  5   5  11  17] 0.05544 [  5   5  88  88]-0.05424 [  5   5  53  53]-0.05412
[  4   4  54  50]-0.04923 [  4   4  50  54]-0.04923 [  5   5  12  12]-0.04778
-----------------------------------------------------------------------------
   Norm of T2AB vector (   345906 symmetry allowed elements):  0.4175992773.
-----------------------------------------------------------------------------
       Summary of iterative solution of CC equations 
      -----------------------------------------------------------
                       Correlation           Total
       Iteration         Energy              Energy
      -----------------------------------------------------------
            0        -0.395461478556     -78.941122978287  DIIS 
            1        -0.415295355953     -78.960956855685  DIIS 
            2        -0.426463121094     -78.972124620825  DIIS 
            3        -0.429359555787     -78.975021055518  DIIS 
            4        -0.430980979813     -78.976642479544  DIIS 
            5        -0.431153891233     -78.976815390964  DIIS 
            6        -0.431159778867     -78.976821278598  DIIS 
            7        -0.431153965059     -78.976815464790  DIIS 
            8        -0.431146319628     -78.976807819360  DIIS 
            9        -0.431145939279     -78.976807439010  DIIS 
           10        -0.431146552655     -78.976808052386  DIIS 
           11        -0.431147415492     -78.976808915224  DIIS 
           12        -0.431147956066     -78.976809455797  DIIS 
           13        -0.431148305312     -78.976809805044  DIIS 
           14        -0.431148427481     -78.976809927212  DIIS 
           15        -0.431148463130     -78.976809962861  DIIS 
           16        -0.431148454918     -78.976809954649  DIIS 
           17        -0.431148449310     -78.976809949041  DIIS 
      -----------------------------------------------------------
      A miracle has come to pass. The CC iterations have converged.
        E(CCSD)           =     -78.976809949041
        E(CCSD + T(CCSD)) =     -78.992692207006
        E(CCSD(T))        =     -78.992268286751
 @CHECKOUT-I, Total execution time (CPU/WALL):      209.07/      17.46 seconds.
--executable xvcc finished with status     0 in       17.49 seconds (walltime).
  The final electronic energy is       -78.992268286750956 a.u. 
  This computation required                           29.09 seconds (walltime).
