CFour on node01
 --invoking executable--
/home/tsommerfeld/zscale/bin/xjoda


   *************************************************************************
         <<<     CCCCCC     CCCCCC   |||     CCCCCC     CCCCCC   >>>
       <<<      CCC        CCC       |||    CCC        CCC         >>>
      <<<      CCC        CCC        |||   CCC        CCC            >>>
    <<<        CCC        CCC        |||   CCC        CCC              >>>
      <<<      CCC        CCC        |||   CCC        CCC            >>>
       <<<      CCC        CCC       |||    CCC        CCC         >>>
         <<<     CCCCCC     CCCCCC   |||     CCCCCC     CCCCCC   >>>
   *************************************************************************

     ****************************************************************
     * CFOUR Coupled-Cluster techniques for Computational Chemistry *
     ****************************************************************
 

   Department of Chemistry                Institut fuer Physikalische Chemie
   University of Florida                  Universitaet Mainz
   Gainesville, FL 32611, USA             D-55099 Mainz, Germany

   Department of Chemistry                Department of Chemistry
   Johns Hopkins University               Southern Methodist University
   Baltimore, MD 21218, USA               Dallas, TX 75275, USA

   Institute of Nanotechnology            Department of Physical Chemistry
   Karlsruhe Inst. of Technology          Eotvos Lorand University
   D-76021 Karlsruhe, Germany             H-1053 Budapest, Hungary

 
                       Version 2.1
 
                     node01                                            
                     Tue May  3 11:24:09 CDT 2022                      
                     integer*8 version is running
 
********************************************************************************
*                          Input from ZMAT file                                *
********************************************************************************
h_ethylene                                                                      
C       0.000000      0.0   -0.664500                                           
C       0.000000      0.0    0.664500                                           
H       0.962348      0.0   -1.159080                                           
H       0.962348      0.0    1.159080                                           
H      -0.962348      0.0   -1.159080                                           
H      -0.962348      0.0    1.159080                                           
H      0.000000      6.933333333333334      0.000000                            
                                                                                
*CFOUR(CALC=CCSD(T)                                                             
#EXCITE=EOMEE                                                                   
#ESTATE_SYM=0/3/0/0                                                             
CC_PROG=VCC                                                                     
CHARGE=-1                                                                       
COORDINATES=CARTESIAN                                                           
BASIS=SPECIAL                                                                   
REFERENCE=RHF                                                                   
MEM_SIZE=90,MEM_UNIT=GB)                                                        
                                                                                
C:cc-pVTZ                                                                       
C:cc-pVTZ                                                                       
H:cc-pVTZ                                                                       
H:cc-pVTZ                                                                       
H:cc-pVTZ                                                                       
H:cc-pVTZ                                                                       
H:aug-cc-pVTZ                                                                   
                                                                                
********************************************************************************
  @GTFLGS-W, Keyword #EXCITE not known and is ignored.
  @GTFLGS-W, Keyword #ESTATE_SYM not known and is ignored.
    -------------------------------------------------------------------
                    CFOUR Control Parameters 
    -------------------------------------------------------------------
        External           Internal           Value            Units
          Name               Name
    -------------------------------------------------------------------
       ABCDTYPE             IABCDT         STANDARD    [  0]    ***   
       ANHARMONIC           IANHAR         OFF         [  0]    ***   
       ANH_ALGORIT          IANALG         STANDARD    [  0]    ***   
       ANH_DERIVAT          IANDER         SECOND      [  1]    ***   
       ANH_MODE             ANHMOD         VIBRATION   [  0]    ***   
       ANH_STEPSIZ          ICUBST             50000          x 10-6  
       ANH_SYMMETR          IANHSM         ABELIAN     [  0]    ***   
       AO_LADDERS           IAOLAD         SINGLEPASS  [  1]    ***   
       AV_SCF               IAVSCF         OFF         [  0]    ***   
       BASIS                IBASIS         SPECIAL     [  0]    ***   
       BOTHVECTORS          BOTHVC         OFF         [  0]    ***   
       BOX_POTENT           IPIAB          OFF         [  0]    ***   
       BREIT                IBREIT         OFF         [  0]    ***   
       BRUCK_CONV           IBRTOL          10D-  4             ***   
       BRUECKNER            IBRKNR         OFF         [  0]    ***   
       BUFFERSIZE           IBUFFS              4096            ***   
       CACHE_RECS           ICHREC             10               ***   
       CALCLEVEL            ICLLVL         CCSD(T)     [ 22]    ***   
       CCORBOPT             ICCORB         OFF         [  0]  x 0.01  
       CC_CONV              ICCCNV          10D-  7             ***   
       CC_EXPORDER          ICCEOR              5               ***   
       CC_EXTRAPOL          ICCEXT         DIIS        [  1]    ***   
       CC_GUESS             ICCGES         MP2         [  0]    ***   
       CC_MAXCYC            ICCCYC            100              cycles 
       CC_PROGRAM           ICCPRO         VCC         [  0]    ***   
       CHARGE               ICHRGE             -1               ***   
       CHOLESKY             ICHOLE         OFF         [  0]    ***   
       CIS_CONV             ICISTL              5               ***   
       COMM_SIZE            IPSIZE            ***               ***   
       CONSTANT             ICONST         OLD         [  1]    ***   
       CONTINUUM            ICONTU         NONE        [  0]    ***   
       CONTRACTION          ICNTYP         GENERAL     [  1]    ***   
       COORDINATES          ICOORD         CARTESIAN   [  1]    ***   
       CPHF_CONVER          ICPHFT          10D- 16             ***   
       CPHF_MAXCYC          ICPHFC             64              cycles 
       CUBIC                ICUBIC         OFF         [  0]    ***   
       CURVILINEAR          ICURVY         OFF         [  0]    ***   
       DBOC                 IDBOC          OFF         [  0]    ***   
       DCT                  IDCT           OFF         [  0]    ***   
       DERIV_LEV            IDRLVL         ZERO        [  0]    ***   
       DEVMEM_SIZE          IDVMEM         *********           MByte  
       DIAG_MRCC            IEOMST          10D-  0             ***   
       DIFF_TYPE            IDIFTY         RELAXED     [  0]    ***   
       DIRECT               IDIRCT         OFF         [  0]    ***   
       DROPMO               IDRPMO      NONE         
       ECP                  IECP           OFF         [  0]    ***   
       EIGENVECTOR          IVEC                1               ***   
       EL_ANHARM            IELANH         OFF         [  0]    ***   
       EOMFOLLOW            IEOMSR         ENERGY      [  0]    ***   
       EOMIP                IEOMIP         OFF         [  0]    ***   
       EOMLEVEL             HBARFM         SAME        [  0]    ***   
       EOM_MRCC             IMRCCE         NEW         [  1]    ***   
       EOM_NONIT            EOMNON         OFF         [  0]    ***   
       EOM_NSING            IEOMSI          10D-  0             ***   
       EOM_NSTATES          IMRCCD         DAVIDSON    [  0]    ***   
       EOM_NTRIP            IEOMTR          10D-  0             ***   
       EOM_ORDER            IEXORD         ENERGY      [  0]    ***   
       EOM_PROPSTA          IEOMST              0               ***   
       ESTATE_CONV          IEXTOL          10D-  5             ***   
       ESTATE_DIAG          IEXDIG         ITERATIVE   [  0]    ***   
       ESTATE_LOCK          IESLOC         ON          [  1]    ***   
       ESTATE_MAXC          IEXMXC             40               ***   
       ESTATE_PROP          IEXPRP         OFF         [  0]    ***   
       EVAL_HESS            IRECAL              0            # of cyc.
       EXCITATION           IEXCIT              0               ***   
       EXCITE               IEXCIT         NONE        [  0]    ***   
       EXTERN_POT           IEXPOT         OFF         [  0]    ***   
       FCGRADNEW            IFCGNW         OFF         [  0]    ***   
       FC_FIELD             IFINFC              0             x 10-6  
       FD_CALTYPE           IFDCAL         GRADONLY    [  0]    ***   
       FD_PROJECT           IFDPRJ         OFF         [  1]    ***   
       FD_STEPSIZE          IDISFD              0            10-4 bohr
       FD_USEGROUP          IFDGRP         FULL        [  0]    ***   
       FILE_RECSIZ          IFLREC              4096           words  
       FINITE_PERT          IFIPER              0             x 10-6  
       FIXGEOM              IFIXGM         OFF         [  0]    ***   
       FOCK                 IFOCK          AO          [  1]    ***   
       FREQ_ALGORI          IVIALG         STANDARD    [  0]    ***   
       FROZEN_CORE          IFROCO         OFF         [  0]    ***   
       GAMMA_ABCD           IGABCD         STORE       [  0]    ***   
       GAMMA_ABCI           IGABCI         STORE       [  0]    ***   
       GENBAS_1             IGNBS1              0               ***   
       GENBAS_2             IGNBS2              0               ***   
       GENBAS_3             IGNBS3              0               ***   
       GENBAS_4             IGNBS4              0               ***   
       GEO_CONV             ICONTL              5              H/bohr 
       GEO_MAXCYC           IOPTCY             50               ***   
       GEO_MAXSTEP          IMXSTP            300            millibohr
       GEO_METHOD           INR            SINGLE_POINT[  5]    ***   
       GIAO                 IGIAO          OFF         [  1]    ***   
       GIMIC                IGIMIC         OFF         [  0]    ***   
       GRID                 IGRID          OFF         [  0]    ***   
       GRID_ALGO            IGALGO         SERIAL      [  0]    ***   
       GUESS                IGUESS         MOREAD      [  0]    ***   
       HBAR                 IHBAR          OFF         [  0]    ***   
       HESS_TYPE            IHESTP         SCF         [  0]    ***   
       HF2_FILE             IHF2Fl         USE         [  1]    ***   
       HFSTABILITY          ISTABL         OFF         [  0]    ***   
       INCORE               INCORE         OFF         [  0]    ***   
       INPUT_MRCC           IMRCC          ON          [  1]    ***   
       INTEGRALS            INTTYP         VMOL        [  1]    ***   
       JODA_PRINT           IJPRNT              0               ***   
       KEYWORD_OUT          IDMPKW         NO          [  0]    ***   
       LINDEP_TOL           ILINDP              8               ***   
       LINEQ_CONV           IZTACN          10D-  7           cycles  
       LINEQ_EXPOR          ILMAXD              5               ***   
       LINEQ_MAXCY          ILMAXC            100               ***   
       LINEQ_TYPE           ILTYPE         DIIS        [  1]    ***   
       LOCK_ORBOCC          ILOCOC         OFF         [  0]    ***   
       MEMORY_SIZE          IMEMSZ         *********           words  
       MEM_UNIT             IMEMU          GB          [  3]    ***   
       MRCC                 IMRCCC         OFF         [  0]    ***   
       MULTIPLICTY          IMULTP              1               ***   
       NACOUPLING           IVCOUP         OFF         [  0]    ***   
       NEGEVAL              IDIE           ABORT       [  0]    ***   
       NEWNORM              INEWNO         OFF         [  0]    ***   
       NON-HF               INONHF         OFF         [  0]    ***   
       NTOP_TAMP            ITOPT2             15               ***   
       NUC_MODEL            INUCMO         POINT       [  0]    ***   
       OCCUPATION           IOCCU   ESTIMATED BY SCF 
       OPEN-SHELL           IOPEN          SPIN-ORBITAL[  0]    ***   
       OPTVIB               IOPTVB         OFF         [  0]    ***   
       ORBITALS             IORBTP         STANDARD    [  0]    ***   
       PARALLEL             IPARAL         ON          [  1]    ***   
       PARA_INT             IPINTS         ON          [  1]    ***   
       PARA_PRINT           IPPRIN              0               ***   
       PERT_ORB             IPTORB         STANDARD    [  0]    ***   
       POINTS               IGRDFD              0               ***   
       PRINT                IPRNT               0               ***   
       PROPS                IPROPS         OFF         [  0]    ***   
       PROP_INTEGR          IINTYP         INTERNAL    [  0]    ***   
       PSI                  IPSI           OFF         [  0]    ***   
       QC_ALG               IQCALG         FLM         [  0]    ***   
       QC_LINALG            IQCLIN         TRIDIAG     [  2]    ***   
       QC_MAXCYC            IQCMAX          10D-100           cycles  
       QC_MAXSCFCY          IQCMSC          10D- 15           cycles  
       QC_RTRUST            IQCRTR          10D-  0           x 10-3  
       QC_SKIPSCF           IQCSKI         OFF         [  0]    ***   
       QC_START             IQCSTA          10D-  1             ***   
       QRHFGUESS            IQGUES         OFF         [  0]    ***   
       QUARTIC              IQUART         OFF         [  0]    ***   
       RAMAN_INT            IRAMIN         OFF         [  0]    ***   
       RAMAN_ORB            IRAMRE         UNRELAXED   [  0]    ***   
       RDO                  IRDOFM         OFF         [  0]    ***   
       REDUCE_REPR          REDREP         Ir          [  0]    ***   
       REFERENCE            IREFNC         RHF         [  0]    ***   
       RELATIVIST           IRELAT         OFF         [  0]    ***   
       RELAX_DENS           IRDENS         OFF         [  0]    ***   
       RESET_FLAGS          IRESET         OFF         [  0]    ***   
       RESTART_CC           ICCRES         OFF         [  0]    ***   
       ROT_EVEC             ROTVEC              0               ***   
       SAVE_INTS            ISVINT         OFF         [  0]    ***   
       SCALE_ON             ISTCRT              0               ***   
       SCF_CONV             ISCFCV          10D-  7             ***   
       SCF_DAMPING          IDAMP               0             x 10-3  
       SCF_EXPORDE          IRPPOR              6               ***   
       SCF_EXPSTAR          IRPPLS              8               ***   
       SCF_EXTRAPO          IRPP           ON          [  1]    ***   
       SCF_MAXCYC           ISCFCY            150              cycles 
       SCF_NOSTOP           ISCFST         OFF         [  0]    ***   
       SCF_PRINT            ISCFPR              0               ***   
       SCF_PROG             ISCFPR         SCF         [  0]    ***   
       SD_FIELD             IFINSD              0             x 10-6  
       SOPERT               IPERSO         OFF         [  0]    ***   
       SPHERICAL            IDFGHI         ON          [  1]    ***   
       SPINORBIT            ISOCAL         OFF         [  0]    ***   
       SPINROTATIO          ISRCON         OFF         [  0]    ***   
       SPIN_FLIP            ISPFLP         OFF         [  0]    ***   
       SPIN_ORBIT           ISPORB         OFF         [  0]    ***   
       SPIN_SCAL            ISCSMP         OFF         [  0]    ***   
       STEEPSCALE           ISTPSC              1000          x 10-3  
       SUBGROUP             ISUBGP         DEFAULT     [  0]    ***   
       SUBGRPAXIS           ISBXYZ         X           [  0]    ***   
       SYMMETRY             ISYM           ON          [  0]    ***   
       SYM_CHECK            ISYMCK         OVERRIDE    [  1]    ***   
       T3_EXTRAPOL          IT3EXT         OFF         [  0]    ***   
       T4_EXTRAPOL          IT4EXP         OFF         [  0]    ***   
       TAMP_SUM             IEVERY              5               ***   
       TESTSUITE            ITESTS         OFF         [  0]    ***   
       THERMOCH             ITHERM         OFF         [  0]    ***   
       TOL_CHOLESK          ITOLCH          10D-  4             ***   
       TRANGRAD             IRESRM         OFF         [  0]    ***   
       TRANS_INV            ITRAIN         USE         [  0]    ***   
       TREAT_PERT           ITREAT         SIMULTANEOUS[  0]    ***   
       TRIP_ALGORI          ITRALG         NORMAL      [  0]    ***   
       UIJ_THRESHO          IUIJTH              1               ***   
       UNITS                IUNITS         ANGSTROM    [  0]    ***   
       UNOS                 IUNOS          OFF         [  0]    ***   
       UPDATE_HESS          IHUPDT         ON          [  1]    ***   
       VIBPHASE             ISETPH         STANDARD    [  0]    ***   
       VIBRATION            IVIB           NO          [  0]    ***   
       VIB_ALGORIT          IGEALG         STANDARD    [  0]    ***   
       VNATORB              IVNORB         OFF         [  0]    ***   
       VTRAN                IVTRAN         FULL/PARTIAL[  0]    ***   
       XFIELD               IXEFLD              0             x 10-6  
       XFORM_TOL            IXFTOL          10D- 11             ***   
       YFIELD               IYEFLD              0             x 10-6  
       ZFIELD               IZEFLD              0             x 10-6  
       ZSCALE_EXP           IZEXPS         OFF         [  0]    ***   
    -------------------------------------------------------------------
  @GETXYZ-I,     7 atoms read from ZMAT.
   Rotational constants (in cm-1): 
          0.2685224217             0.3338190329             0.8536890782
   Rotational constants (in MHz): 
       8050.1008103215         10007.6442414676         25592.9582983935
********************************************************************************
   The full molecular point group is C2v .
   The largest Abelian subgroup of the full molecular point group is C2v .
   The computational point group is C2v .
********************************************************************************


 ----------------------------------------------------------------
         Coordinates used in calculation (QCOMP) 
 ----------------------------------------------------------------
 Z-matrix   Atomic            Coordinates (in bohr)
  Symbol    Number           X              Y              Z
 ----------------------------------------------------------------
     C         6        -1.25572327     0.00000000    -0.45471853
     C         6         1.25572327     0.00000000    -0.45471853
     H         1        -2.19034422     1.81857454    -0.45471853
     H         1         2.19034422     1.81857454    -0.45471853
     H         1        -2.19034422    -1.81857454    -0.45471853
     H         1         2.19034422    -1.81857454    -0.45471853
     H         1         0.00000000     0.00000000    12.64738535
 ----------------------------------------------------------------
 
   Interatomic distance matrix (Angstroms) 
 
                 C             C             H             H             H    
                [ 1]        [ 2]        [ 3]        [ 4]        [ 5]
  C    [ 1]     0.00000
  C    [ 2]     1.32900     0.00000
  H    [ 3]     1.08200     2.06193     0.00000
  H    [ 4]     2.06193     1.08200     2.31816     0.00000
  H    [ 5]     1.08200     2.06193     1.92470     3.01303     0.00000
  H    [ 6]     2.06193     1.08200     3.01303     1.92470     2.31816
  H    [ 7]     6.96511     6.96511     7.09512     7.09512     7.09512
 
                 H             H    
                [ 6]        [ 7]
  H    [ 6]     0.00000
  H    [ 7]     7.09512     0.00000
 rotcon2
   Rotational constants (in cm-1): 
          0.3338190329             0.2685224217             0.8536890782
   Rotational constants (in MHz): 
      10007.6442414676          8050.1008103215         25592.9582983935
  ECPDATA file not present.   Using default ECPDATA. 
  @GTFLGS-W, Keyword #EXCITE not known and is ignored.
  @GTFLGS-W, Keyword #ESTATE_SYM not known and is ignored.
  There are  139 basis functions.
 @GEOPT-W, Archive file not created for single-point calculation.
 @CHECKOUT-I, Total execution time (CPU/WALL):        0.15/       0.17 seconds.
--executable xjoda finished with status     0 in        0.19 seconds (walltime).
 --invoking executable--
/home/tsommerfeld/zscale/bin/xvmol
 SERIAL VERSION OF MOLECULE STARTED
********************************************************************************
                    INPUT FROM MOL FILE
********************************************************************************
INTGRL        1    0    1    0    0    0    0    0    0                         
         *** CFOUR Program System (Release V0.1) ***                            
h_ethylene                                                                      
    3    2 X  Y       0.10E-08              0    0                              
   9999.00      3.00                                                            
          6.00000000    1    4    1    1    1    1                              
C #1  -1.255723272983657   0.000000000000000  -0.454718529517043                
   10    4                                                                      
   8236.00000000000       5.310000000000000E-004  0.000000000000000E+000        
 -1.130000000000000E-004  0.000000000000000E+000                                
   1235.00000000000       4.108000000000000E-003  0.000000000000000E+000        
 -8.780000000000000E-004  0.000000000000000E+000                                
   280.800000000000       2.108700000000000E-002  0.000000000000000E+000        
 -4.540000000000000E-003  0.000000000000000E+000                                
   79.2700000000000       8.185300000000000E-002  0.000000000000000E+000        
 -1.813300000000000E-002  0.000000000000000E+000                                
   25.5900000000000       0.234817000000000       0.000000000000000E+000        
 -5.576000000000000E-002  0.000000000000000E+000                                
   8.99700000000000       0.434401000000000       0.000000000000000E+000        
 -0.126895000000000       0.000000000000000E+000                                
   3.31900000000000       0.346129000000000       0.000000000000000E+000        
 -0.170352000000000       0.000000000000000E+000                                
  0.905900000000000       3.937800000000000E-002   1.00000000000000             
  0.140382000000000       0.000000000000000E+000                                
  0.364300000000000      -8.983000000000000E-003  0.000000000000000E+000        
  0.598684000000000       0.000000000000000E+000                                
  0.128500000000000       2.385000000000000E-003  0.000000000000000E+000        
  0.395389000000000        1.00000000000000                                     
    5    3                                                                      
   18.7100000000000       0.000000000000000E+000  1.403100000000000E-002        
  0.000000000000000E+000                                                        
   4.13300000000000       0.000000000000000E+000  8.686600000000000E-002        
  0.000000000000000E+000                                                        
   1.20000000000000       0.000000000000000E+000  0.290216000000000             
  0.000000000000000E+000                                                        
  0.382700000000000        1.00000000000000       0.501008000000000             
  0.000000000000000E+000                                                        
  0.120900000000000       0.000000000000000E+000  0.343406000000000             
   1.00000000000000                                                             
    2    2                                                                      
   1.09700000000000        1.00000000000000       0.000000000000000E+000        
  0.318000000000000       0.000000000000000E+000   1.00000000000000             
    1    1                                                                      
  0.761000000000000        1.00000000000000                                     
          1.00000000    1    3    1    1    1                                   
H #2  -2.190344215575466   1.818574537711477  -0.454718529517043                
    5    3                                                                      
   33.8700000000000       0.000000000000000E+000  6.068000000000000E-003        
  0.000000000000000E+000                                                        
   5.09500000000000       0.000000000000000E+000  4.530800000000000E-002        
  0.000000000000000E+000                                                        
   1.15900000000000       0.000000000000000E+000  0.202822000000000             
  0.000000000000000E+000                                                        
  0.325800000000000        1.00000000000000       0.503903000000000             
  0.000000000000000E+000                                                        
  0.102700000000000       0.000000000000000E+000  0.383421000000000             
   1.00000000000000                                                             
    2    2                                                                      
   1.40700000000000        1.00000000000000       0.000000000000000E+000        
  0.388000000000000       0.000000000000000E+000   1.00000000000000             
    1    1                                                                      
   1.05700000000000        1.00000000000000                                     
          1.00000000    1    3    1    1    1                                   
H #3   0.000000000000000   0.000000000000000  12.647385347112037                
    6    4                                                                      
   33.8700000000000       0.000000000000000E+000  6.068000000000000E-003        
  0.000000000000000E+000  0.000000000000000E+000                                
   5.09500000000000       0.000000000000000E+000  4.530800000000000E-002        
  0.000000000000000E+000  0.000000000000000E+000                                
   1.15900000000000       0.000000000000000E+000  0.202822000000000             
  0.000000000000000E+000  0.000000000000000E+000                                
  0.325800000000000        1.00000000000000       0.503903000000000             
  0.000000000000000E+000  0.000000000000000E+000                                
  0.102700000000000       0.000000000000000E+000  0.383421000000000             
   1.00000000000000       0.000000000000000E+000                                
  2.526000000000000E-002  0.000000000000000E+000  0.000000000000000E+000        
  0.000000000000000E+000   1.00000000000000                                     
    3    3                                                                      
   1.40700000000000        1.00000000000000       0.000000000000000E+000        
  0.000000000000000E+000                                                        
  0.388000000000000       0.000000000000000E+000   1.00000000000000             
  0.000000000000000E+000                                                        
  0.102000000000000       0.000000000000000E+000  0.000000000000000E+000        
   1.00000000000000                                                             
    2    2                                                                      
   1.05700000000000        1.00000000000000       0.000000000000000E+000        
  0.247000000000000       0.000000000000000E+000   1.00000000000000             
FINISH                                                                          
 
********************************************************************************
 ONE- AND TWO-ELECTRON INTEGRALS OVER SYMMETRY-ADAPTED AOS ARE CALCULATED.

  SPHERICAL HARMONICS ARE USED.
  
  INTEGRALS LESS THAN  0.10E-13 ARE NEGLECTED.

  NUCLEAR REPULSION ENERGY :   34.7992543663 A.U.
  @MOLECU-I, ONE ELECTRON INTEGRALS (CPU/WALL):        0.04/       0.04 SECONDS.
  @TWOEL-I,     532026 INTEGRALS OF SYMMETRY TYPE  I I I I
  @TWOEL-I,    2198196 INTEGRALS OF SYMMETRY TYPE  I J I J
  @TWOEL-I,    1247006 INTEGRALS OF SYMMETRY TYPE  I I J J
  @TWOEL-I,    1898696 INTEGRALS OF SYMMETRY TYPE  I J K L
  @TWOEL-I, TOTAL NUMBER OF 2-E INTEGRALS    5875924.
  @MOLECU-I, TWO ELECTRON INTEGRALS (CPU/WALL):       38.34/       4.18 SECONDS.
 @CHECKOUT-I, Total execution time (CPU/WALL):       38.40/       4.23 seconds.

Running with 12 threads/proc

--executable xvmol finished with status     0 in        4.26 seconds (walltime).
 --invoking executable--
/home/tsommerfeld/zscale/bin/xvmol2ja
 @GETMEM-I,  Allocated   85830 MB of main memory.
 @CHECKOUT-I, Total execution time (CPU/WALL):        0.11/       0.02 seconds.
--executable xvmol2ja finished with status     0 in        0.04 seconds (walltime).
 --invoking executable--
/home/tsommerfeld/zscale/bin/xvscf
  There are  139 functions in the AO basis.

  There are 4 irreducible representations.

       Irrep        # of functions
         1                 45
         2                 39
         3                 29
         4                 26


  Parameters for SCF calculation: 
        SCF reference function:  RHF  
  Maximum number of iterations:  150
     Full symmetry point group: C2v 
     Computational point group: C2v 
        Initial density matrix: MOREAD                 
     SCF convergence tolerance: 10**(- 7)
  DIIS convergence acceleration:  ON
          Latest start for DIIS:   8
                     DIIS order:   6

  Memory information:     823082 words required.
  Fock matrices are constructed from AO integral file.
 @GETMEM-I,  Allocated       6 MB of main memory.
  Initialization and symmetry analysis required      0.001 seconds.

  @INITGES-I, Occupancies from core Hamiltonian:

          Alpha population by irrep:   4    3    1    1
           Beta population by irrep:   4    3    1    1


 total no. of electrons in initial guess :  0.000000000000000E+000
  --------------------------------------------------------------------
  Iteration         Total Energy            Largest Density Difference
  --------------------------------------------------------------------
       0            34.799254366333045              0.0000000000D+00
   current occupation vector 
     4  3  1  1
     4  3  1  1
       1           -51.726203472090049              0.8749776659D+01
   current occupation vector 
     4  3  1  1
     4  3  1  1
       2           -42.516015914579370              0.3135198814D+02
   current occupation vector 
     5  3  1  0
     5  3  1  0
       3           -68.027609381159934              0.3109173740D+02
   current occupation vector 
     4  3  1  1
     4  3  1  1
       4           -44.589137482816781              0.1244869261D+02
   current occupation vector 
     6  2  1  0
     6  2  1  0
       5           -68.692277865480563              0.1244869228D+02
   current occupation vector 
     4  3  1  1
     4  3  1  1
       6           -44.868422047602593              0.1244758317D+02
   current occupation vector 
     6  2  1  0
     6  2  1  0
       7           -68.785237428487591              0.1244758318D+02
   current occupation vector 
     4  3  1  1
     4  3  1  1
       8           -44.905954668445631              0.1244741713D+02
   current occupation vector 
     6  2  1  0
     6  2  1  0
       9           -73.599397929925658              0.1244741934D+02
   current occupation vector 
     4  3  1  1
     4  3  1  1
      10           -75.884695763517882              0.9312099032D+00
   current occupation vector 
     4  3  1  1
     4  3  1  1
      11           -78.504487583004064              0.1634349290D+01
   current occupation vector 
     5  2  1  1
     5  2  1  1
      12           -78.542942368608081              0.3414759184D+00
   current occupation vector 
     5  2  1  1
     5  2  1  1
      13           -78.546233549154707              0.6301247992D-01
   current occupation vector 
     5  2  1  1
     5  2  1  1
      14           -78.546403773183741              0.1922416719D-01
   current occupation vector 
     5  2  1  1
     5  2  1  1
      15           -78.546414556932518              0.6059577992D-02
   current occupation vector 
     5  2  1  1
     5  2  1  1
      16           -78.546415138757439              0.2033092324D-02
   current occupation vector 
     5  2  1  1
     5  2  1  1
      17           -78.546415146880747              0.1849446381D-03
   current occupation vector 
     5  2  1  1
     5  2  1  1
      18           -78.546415147078832              0.3575663766D-04
   current occupation vector 
     5  2  1  1
     5  2  1  1
      19           -78.546415147086506              0.1796793594D-05
   current occupation vector 
     5  2  1  1
     5  2  1  1
      20           -78.546415147087245              0.4717865887D-06
   current occupation vector 
     5  2  1  1
     5  2  1  1
      21           -78.546415147087728              0.1606773781D-06
   current occupation vector 
     5  2  1  1
     5  2  1  1

  SCF has converged.

 Density matrix saved to file den.dat
 total electron number:   18.0000000000000     
     E(SCF)=       -78.546415147087458              0.1069460855D-07


  Final occupancies:

     Alpha population by irrep:   5    2    1    1
      Beta population by irrep:   5    2    1    1


  Eigenvector printing suppressed.

 @PUTMOS-I, Writing converged MOs to NEWMOS. 
 @PUTMOS-I, Symmetry   1 Full Blocks 11 Partial Blocksize   1
 @PUTMOS-I, Symmetry   2 Full Blocks  9 Partial Blocksize   3
 @PUTMOS-I, Symmetry   3 Full Blocks  7 Partial Blocksize   1
 @PUTMOS-I, Symmetry   4 Full Blocks  6 Partial Blocksize   2
 @PUTFOCK-I, Writing converged Fock matrix to NEWFOCK. 
 @PUTFOCK-I, Symmetry   1 Full Blocks 11 Partial Blocksize   1
 @PUTFOCK-I, Symmetry   2 Full Blocks  9 Partial Blocksize   3
 @PUTFOCK-I, Symmetry   3 Full Blocks  7 Partial Blocksize   1
 @PUTFOCK-I, Symmetry   4 Full Blocks  6 Partial Blocksize   2


 
  ORBITAL EIGENVALUES (ALPHA)  (1H = 27.2113834 eV)

       MO #        E(hartree)               E(eV)           FULLSYM    COMPSYM
       ----   --------------------   --------------------   -------   ---------
    1     1         -11.1509304411        -303.4322434982      A1        A1 (1)
    2    46         -11.1491663940        -303.3842413382      B1        B1 (2)
    3     2          -0.9624934059         -26.1907770879      A1        A1 (1)
    4    47          -0.7047982345         -19.1785349786      B1        B1 (2)
    5    85          -0.5840591921         -15.8930586055      B2        B2 (3)
    6     3          -0.4911400279         -13.3645996021      A1        A1 (1)
    7   114          -0.4397750004         -11.9668861467      A2        A2 (4)
    8     4          -0.3007724052          -8.1844332342      A1        A1 (1)
    9     5          -0.0450790461          -1.2266632056      A1        A1 (1)
  +++++++++++++++++++++++++++++++++++++++++++++++++++++++++++++++++++++++++++++
   10     6           0.2279588024           6.2030743726      A1        A1 (1)
   11    48           0.2305607660           6.2738774014      B1        B1 (2)
   12     7           0.2463342919           6.7030968626      A1        A1 (1)
   13    86           0.2580104617           7.0208215953      B2        B2 (3)
   14    49           0.2655030708           7.2247058542      B1        B1 (2)
   15   115           0.3116886281           8.4814787595      A2        A2 (4)
   16    50           0.4286735597          11.6648005871      B1        B1 (2)
   17     8           0.4346133171          11.8264296031      A1        A1 (1)
   18    87           0.4497953720          12.2395543198      B2        B2 (3)
   19    51           0.4498062763          12.2398510394      B1        B1 (2)
   20     9           0.4499689501          12.2442776196      A1        A1 (1)
   21    10           0.5235460444          14.2464121406      A1        A1 (1)
   22    88           0.5467579869          14.8780412096      B2        B2 (3)
   23    11           0.5580060432          15.1841163810      A1        A1 (1)
   24    52           0.6404423287          17.4273217520      B1        B1 (2)
   25    53           0.6665764095          18.1384662430      B1        B1 (2)
   26    89           0.6710829689          18.2610959613      B2        B2 (3)
   27    12           0.7000514031          19.0493671283      A1        A1 (1)
   28    54           0.7138540548          19.4249563770      B1        B1 (2)
   29    90           0.7430012891          20.2180929457      B2        B2 (3)
   30   116           0.7681143544          20.9014541925      A2        A2 (4)
   31    13           0.7848377509          21.3565209471      A1        A1 (1)
   32    55           0.8598770499          23.3984440812      B1        B1 (2)
   33   117           0.9036727156          24.5901847323      A2        A2 (4)
   34    14           0.9722146725          26.4553062004      A1        A1 (1)
   35   118           0.9794457341          26.6520733912      A2        A2 (4)
   36    15           1.0610732618          28.8732713416      A1        A1 (1)
   37   119           1.0960534707          29.8251312173      A2        A2 (4)
   38   120           1.1025411672          30.0016704154      E         A2 (4)
   39    16           1.1025411959          30.0016711964      E         A1 (1)
   40    91           1.1026148536          30.0036755230      E         B2 (3)
   41    56           1.1026198194          30.0038106489      E         B1 (2)
   42    17           1.1026586831          30.0048681858      A1        A1 (1)
   43    92           1.1125614481          30.2743361204      B2        B2 (3)
   44    18           1.2577382196          34.2247969104      A1        A1 (1)
   45    57           1.2580117638          34.2322404253      B1        B1 (2)
   46    19           1.3045118770          35.4975728338      A1        A1 (1)
   47    93           1.3297580657          36.1845565540      B2        B2 (3)
   48    94           1.3388590377          36.4322065945      E         B2 (3)
   49    58           1.3388641163          36.4323447878      E         B1 (2)
   50    20           1.3389780179          36.4354442089      A1        A1 (1)
   51    59           1.3965481928          38.0020083099      B1        B1 (2)
   52    95           1.4200812969          38.6423766296      B2        B2 (3)
   53    60           1.4397147210          39.1766292604      B1        B1 (2)
   54    96           1.5382608147          41.8582047978      B2        B2 (3)
   55    61           1.5529129849          42.2569106188      B1        B1 (2)
   56    21           1.5824005103          43.0593069795      A1        A1 (1)
   57    62           1.6083529107          43.7655076963      B1        B1 (2)
   58   121           1.6718727235          45.4939696764      A2        A2 (4)
   59   122           1.7115793807          46.5744427487      A2        A2 (4)
   60    63           1.8751243104          51.0247265324      B1        B1 (2)
   61    22           1.9269480161          52.4349212588      A1        A1 (1)
   62   123           2.0453574583          55.6570059892      A2        A2 (4)
   63    23           2.3623286493          64.2822305937      A1        A1 (1)
   64    24           2.4408610438          66.4192056891      A1        A1 (1)
   65    25           2.6235565021          71.3906018494      A1        A1 (1)
   66    64           2.6403041082          71.8463273804      B1        B1 (2)
   67    97           2.6992179868          73.4494555181      B2        B2 (3)
   68    98           2.7843295990          75.7654602314      B2        B2 (3)
   69    65           2.8164420158          76.6392835166      B1        B1 (2)
   70    26           2.8372564910          77.2056741807      A1        A1 (1)
   71   124           2.9170376127          79.3766288716      A2        A2 (4)
   72    27           2.9781485077          81.0395408655      A1        A1 (1)
   73    99           2.9914093914          81.4003878554      B2        B2 (3)
   74   125           3.1400336767          85.4446602669      A2        A2 (4)
   75    28           3.1723326648          86.3235604148      A1        A1 (1)
   76   100           3.1825192502          86.6007514942      B2        B2 (3)
   77    29           3.1843653677          86.6509869058      A1        A1 (1)
   78   101           3.1964082283          86.9786898026      B2        B2 (3)
   79   126           3.2286350433          87.8556260225      A2        A2 (4)
   80    30           3.2542820959          88.5535178046      A1        A1 (1)
   81    66           3.3044898613          89.9197405586      B1        B1 (2)
   82    67           3.3415318818          90.9277051789      B1        B1 (2)
   83   102           3.4132758382          92.8799574832      B2        B2 (3)
   84    68           3.4777432315          94.6342044387      B1        B1 (2)
   85    69           3.5015276840          95.2814122951      B1        B1 (2)
   86   127           3.5021727886          95.2989664832      A2        A2 (4)
   87   128           3.5228772970          95.8623647998      A2        A2 (4)
   88    70           3.5291512161          96.0330868184      B1        B1 (2)
   89    31           3.6261664193          98.6730047080      A1        A1 (1)
   90    32           3.6517754884          99.3698629064      A1        A1 (1)
   91   103           3.7171783184         101.1495643874      B2        B2 (3)
   92   104           3.7979160321         103.3465492714      B2        B2 (3)
   93   129           3.8914308224         105.8912160824      A2        A2 (4)
   94    71           3.9517970564         107.5338648211      B1        B1 (2)
   95   130           3.9874497821         108.5040248102      A2        A2 (4)
   96    72           4.0439328472         110.0410071492      B1        B1 (2)
   97   131           4.0525322078         110.2750076480      A2        A2 (4)
   98    33           4.0824521642         111.0891710535      A1        A1 (1)
   99   105           4.0871517373         111.2170529372      B2        B2 (3)
  100    34           4.1327377424         112.4575111991      A1        A1 (1)
  101   132           4.2166793094         114.7416773631      E         A2 (4)
  102    35           4.2166793100         114.7416773783      E         A1 (1)
  103   106           4.2166973125         114.7421672529                B2 (3)
  104    73           4.2166984416         114.7421979763                B1 (2)
  105    36           4.2167066444         114.7424211865                A1 (1)
  106    74           4.2599903187         115.9202298424      B1        B1 (2)
  107   133           4.2669181865         116.1087467086      A2        A2 (4)
  108    37           4.2682240042         116.1442798152      A1        A1 (1)
  109   107           4.2777053623         116.4022806851      B2        B2 (3)
  110    38           4.4051316961         119.8697275111      A1        A1 (1)
  111    75           4.4258781422         120.4342670090      B1        B1 (2)
  112   108           4.4447676031         120.9482753728      E         B2 (3)
  113    76           4.4447695513         120.9483283853      E         B1 (2)
  114    39           4.4448030235         120.9492392089      A1        A1 (1)
  115   109           4.5451918516         123.6809581017      B2        B2 (3)
  116    77           4.5812694529         124.6626795413      B1        B1 (2)
  117   134           4.6821117550         127.4067380874      A2        A2 (4)
  118    40           4.7171018844         128.3588679129      A1        A1 (1)
  119    78           4.8335261073         131.5269320795      B1        B1 (2)
  120    79           4.8894241171         133.0479942554      B1        B1 (2)
  121    41           5.0038263930         136.1610384460      A1        A1 (1)
  122    42           5.0495771210         137.4059790462      A1        A1 (1)
  123   135           5.1034095249         138.8708332286      A2        A2 (4)
  124   110           5.2027562423         141.5741948473      B2        B2 (3)
  125   111           5.2924045290         144.0136487457      B2        B2 (3)
  126    43           5.3748696849         146.2576397217      A1        A1 (1)
  127    80           5.3800122233         146.3975753054      B1        B1 (2)
  128   136           5.5024770268         149.7300120271      A2        A2 (4)
  129   137           5.5178243885         150.1476349704      A2        A2 (4)
  130    81           5.6131942262         152.7427801883      B1        B1 (2)
  131    44           5.6383617053         153.4276221113      A1        A1 (1)
  132   112           5.6930305152         154.9152360582      B2        B2 (3)
  133    82           6.0325670816         164.1544957442      B1        B1 (2)
  134   138           6.1683373634         167.8489929361      A2        A2 (4)
  135   113           6.3461408786         172.6872725569      B2        B2 (3)
  136    83           6.5854897063         179.2002852751      B1        B1 (2)
  137   139           6.9489573548         189.0907428116      A2        A2 (4)
  138    45          11.9736229774         325.8188455247      A1        A1 (1)
  139    84          14.8249855841         403.4083666272      B1        B1 (2)


  VSCF finished.

 @CHECKOUT-I, Total execution time (CPU/WALL):       16.78/       1.41 seconds.
--executable xvscf finished with status     0 in        1.43 seconds (walltime).
 --invoking executable--
/home/tsommerfeld/zscale/bin/xvtran
 @GETMEM-I,  Allocated   85830 MB of main memory.
  Full RHF integral transformation
  Transformation of IIII integrals :
  1 pass through the AO integral file was required.
      532026 AO integrals were read.
      997325 MO integrals were written to HF2.
  Transformation of IIJJ integrals :
  1 pass through the AO integral file was required.
     1247006 AO integrals were read.
     2386575 MO integrals were written to HF2.
  Transformation of IJIJ integrals :
  1 pass through the AO integral file was required.
     2198196 AO integrals were read.
     4517476 MO integrals were written to HF2.
  Transformation of IJKL integrals :
  1 pass through the AO integral file was required.
     1898696 AO integrals were read.
     3969810 MO integrals were written to HF2.
  Summary of active molecular orbitals: 
------------------------------------------------------------------------
 
  Index      Eigenvalue    Symmetry    Index      Eigenvalue    Symmetry
------------------------------------------------------------------------
     1       -11.1509304        1        71         3.5015277        2
     2        -0.9624934        1        72         3.5291512        2
     3        -0.4911400        1        73         3.9517971        2
     4        -0.3007724        1        74         4.0439328        2
     5        -0.0450790        1        75         4.2166984        2
     6       -11.1491664        2        76         4.2599903        2
     7        -0.7047982        2        77         4.4258781        2
     8        -0.5840592        3        78         4.4447696        2
     9        -0.4397750        4        79         4.5812695        2
    10         0.2279588        1        80         4.8335261        2
    11         0.2463343        1        81         4.8894241        2
    12         0.4346133        1        82         5.3800122        2
    13         0.4499690        1        83         5.6131942        2
    14         0.5235460        1        84         6.0325671        2
    15         0.5580060        1        85         6.5854897        2
    16         0.7000514        1        86        14.8249856        2
    17         0.7848378        1        87         0.2580105        3
    18         0.9722147        1        88         0.4497954        3
    19         1.0610733        1        89         0.5467580        3
    20         1.1025412        1        90         0.6710830        3
    21         1.1026587        1        91         0.7430013        3
    22         1.2577382        1        92         1.1026149        3
    23         1.3045119        1        93         1.1125614        3
    24         1.3389780        1        94         1.3297581        3
    25         1.5824005        1        95         1.3388590        3
    26         1.9269480        1        96         1.4200813        3
    27         2.3623286        1        97         1.5382608        3
    28         2.4408610        1        98         2.6992180        3
    29         2.6235565        1        99         2.7843296        3
    30         2.8372565        1       100         2.9914094        3
    31         2.9781485        1       101         3.1825193        3
    32         3.1723327        1       102         3.1964082        3
    33         3.1843654        1       103         3.4132758        3
    34         3.2542821        1       104         3.7171783        3
    35         3.6261664        1       105         3.7979160        3
    36         3.6517755        1       106         4.0871517        3
    37         4.0824522        1       107         4.2166973        3
    38         4.1327377        1       108         4.2777054        3
    39         4.2166793        1       109         4.4447676        3
    40         4.2167066        1       110         4.5451919        3
    41         4.2682240        1       111         5.2027562        3
    42         4.4051317        1       112         5.2924045        3
    43         4.4448030        1       113         5.6930305        3
    44         4.7171019        1       114         6.3461409        3
    45         5.0038264        1       115         0.3116886        4
    46         5.0495771        1       116         0.7681144        4
    47         5.3748697        1       117         0.9036727        4
    48         5.6383617        1       118         0.9794457        4
    49        11.9736230        1       119         1.0960535        4
    50         0.2305608        2       120         1.1025412        4
    51         0.2655031        2       121         1.6718727        4
    52         0.4286736        2       122         1.7115794        4
    53         0.4498063        2       123         2.0453575        4
    54         0.6404423        2       124         2.9170376        4
    55         0.6665764        2       125         3.1400337        4
    56         0.7138541        2       126         3.2286350        4
    57         0.8598770        2       127         3.5021728        4
    58         1.1026198        2       128         3.5228773        4
    59         1.2580118        2       129         3.8914308        4
    60         1.3388641        2       130         3.9874498        4
    61         1.3965482        2       131         4.0525322        4
    62         1.4397147        2       132         4.2166793        4
    63         1.5529130        2       133         4.2669182        4
    64         1.6083529        2       134         4.6821118        4
    65         1.8751243        2       135         5.1034095        4
    66         2.6403041        2       136         5.5024770        4
    67         2.8164420        2       137         5.5178244        4
    68         3.3044899        2       138         6.1683374        4
    69         3.3415319        2       139         6.9489574        4
    70         3.4777432        2
------------------------------------------------------------------------
  -11.1509304410518      -0.962493405898053      -0.491140027893066     
 -0.300772405206645      -4.507904605681052E-002  -11.1491663940240     
 -0.704798234498162      -0.584059192134123      -0.439775000440707     
  0.227958802441497       0.246334291940430       0.434613317126011     
  0.449968950111075       0.523546044357130       0.558006043198380     
  0.700051403055693       0.784837750920181       0.972214672496785     
   1.06107326177226        1.10254119591858        1.10265868312180     
   1.25773821960143        1.30451187695920        1.33897801788827     
   1.58240051034955        1.92694801612922        2.36232864933090     
   2.44086104380504        2.62355650206985        2.83725649099993     
   2.97814850771385        3.17233266482327        3.18436536768758     
   3.25428209594665        3.62616641930639        3.65177548843175     
   4.08245216424770        4.13273774236240        4.21667930996579     
   4.21670664441630        4.26822400419248        4.40513169613835     
   4.44480302346341        4.71710188438547        5.00382639296616     
   5.04957712095623        5.37486968493213        5.63836170531755     
   11.9736229773875       0.230560766027861       0.265503070829365     
  0.428673559725365       0.449806276273280       0.640442328706475     
  0.666576409452885       0.713854054808436       0.859877049882994     
   1.10261981935639        1.25801176375806        1.33886411625208     
   1.39654819276509        1.43971472102516        1.55291298489597     
   1.60835291072862        1.87512431037859        2.64030410818473     
   2.81644201582772        3.30448986134868        3.34153188179832     
   3.47774323148595        3.50152768400287        3.52915121612044     
   3.95179705641459        4.04393284720735        4.21669844159101     
   4.25999031869855        4.42587814219801        4.44476955130886     
   4.58126945288826        4.83352610729570        4.88942411709311     
   5.38001222331980        5.61319422621834        6.03256708161911     
   6.58548970630663        14.8249855840545       0.258010461726735     
  0.449795372026401       0.546757986937887       0.671082968948873     
  0.743001289146729        1.10261485356983        1.11256144810454     
   1.32975806566186        1.33885903773922        1.42008129691653     
   1.53826081469426        2.69921798676751        2.78432959903952     
   2.99140939138709        3.18251925016865        3.19640822827969     
   3.41327583819952        3.71717831837402        3.79791603213350     
   4.08715173728192        4.21669731252535        4.27770536227350     
   4.44476760313509        4.54519185164459        5.20275624234882     
   5.29240452896913        5.69303051524325        6.34614087855938     
  0.311688628056765       0.768114354396075       0.903672715597951     
  0.979445734140189        1.09605347067080        1.10254116721760     
   1.67187272354527        1.71157938073417        2.04535745834989     
   2.91703761270904        3.14003367674771        3.22863504332314     
   3.50217278858447        3.52287729699755        3.89143082238327     
   3.98744978214342        4.05253220782508        4.21667930940510     
   4.26691818647430        4.68211175501601        5.10340952487556     
   5.50247702684088        5.51782438853771        6.16833736340349     
   6.94895735479766     
 @CHECKOUT-I, Total execution time (CPU/WALL):       17.11/       2.08 seconds.
--executable xvtran finished with status     0 in        2.10 seconds (walltime).
 --invoking executable--
/home/tsommerfeld/zscale/bin/xintprc
 @GETMEM-I,  Allocated   85830 MB of main memory.
  @GMOIAA-I, Processing MO integrals for spin case AA.
  @GMOIAA-I, Generation of integral list completed.
                      TYPE                NUMBER
                      ----               --------
                      PPPP               9084375
                      PPPH               2501601
                      PPHH                173538
                      PHPH                 97627
                      PHHH                 13713
                      HHHH                   332

                     TOTAL              11871186

  @FORMT2-I, Second-order MP correlation energies:
            ------------------------------------------------
            E(SCF)                  =    -78.546415147087 a.u.
            E2(AA)                  =     -0.037960538352 a.u.
            E2(AB)                  =     -0.319309011236 a.u.
            E2(TOT)                 =     -0.395230087941 a.u.
            Total MP2 energy        =    -78.941645235028 a.u.
            ------------------------------------------------
   Largest T2 amplitudes for spin case AB:
       _       _                 _       _                 _       _
   i   j   a   b             i   j   a   b             i   j   a   b
-----------------------------------------------------------------------------
[  4   4  50  50]-0.08260 [  5   5  11  11]-0.06603 [  5   5  17  17]-0.04727
[  5   5  88  88]-0.04091 [  5   5  53  53]-0.04091 [  5   5  13  13]-0.04086
[  5   5  17  11] 0.03879 [  5   5  11  17] 0.03879 [  4   4  54  50]-0.03645
[  4   4  50  54]-0.03645 [  5   5  11  10] 0.03263 [  5   5  10  11] 0.03263
[  4   4  14  14]-0.03037 [  4   4  15  15]-0.02669 [  4   3  50  57] 0.02649
-----------------------------------------------------------------------------
   Norm of T2AB vector (   345906 symmetry allowed elements):  0.3322198268.
-----------------------------------------------------------------------------
 @CHECKOUT-I, Total execution time (CPU/WALL):        5.70/       2.80 seconds.
--executable xintprc finished with status     0 in        2.83 seconds (walltime).
  calling xvcc 
 --invoking executable--
/home/tsommerfeld/zscale/bin/xvcc
 @GETMEM-I,  Allocated   85830 MB of main memory.
   CCSD(T) energy will be calculated.
   The total correlation energy is -0.395230087941 a.u.
   The total correlation energy is -0.415113703254 a.u.
  Convergence information after     1 iterations: 
  Largest element of residual vector : -0.23407385E-01.
  Largest element of DIIS residual   : -0.23407385E-01.
   The total correlation energy is -0.426279465729 a.u.
  Convergence information after     2 iterations: 
  Largest element of residual vector : -0.10906119E-01.
  Largest element of DIIS residual   : -0.10649144E-01.
   The total correlation energy is -0.429182362256 a.u.
  Convergence information after     3 iterations: 
  Largest element of residual vector : -0.57272472E-02.
  Largest element of DIIS residual   : -0.51268783E-02.
   The total correlation energy is -0.430806857216 a.u.
  Convergence information after     4 iterations: 
  Largest element of residual vector : -0.30977239E-02.
  Largest element of DIIS residual   : -0.16494667E-02.
   The total correlation energy is -0.430980768739 a.u.
  Convergence information after     5 iterations: 
  Largest element of residual vector : -0.87949238E-03.
  Largest element of DIIS residual   :  0.32135177E-03.
   The total correlation energy is -0.430986144160 a.u.
  Convergence information after     6 iterations: 
  Largest element of residual vector :  0.24694024E-03.
  Largest element of DIIS residual   :  0.22236845E-03.
   The total correlation energy is -0.430978314804 a.u.
  Convergence information after     7 iterations: 
  Largest element of residual vector :  0.16457366E-03.
  Largest element of DIIS residual   :  0.88470666E-04.
   The total correlation energy is -0.430973282479 a.u.
  Convergence information after     8 iterations: 
  Largest element of residual vector : -0.65211050E-04.
  Largest element of DIIS residual   : -0.28557498E-04.
   The total correlation energy is -0.430972774733 a.u.
  Convergence information after     9 iterations: 
  Largest element of residual vector :  0.30091535E-04.
  Largest element of DIIS residual   : -0.13638022E-04.
   The total correlation energy is -0.430973190709 a.u.
  Convergence information after    10 iterations: 
  Largest element of residual vector : -0.13602442E-04.
  Largest element of DIIS residual   :  0.47303291E-05.
   The total correlation energy is -0.430973908131 a.u.
  Convergence information after    11 iterations: 
  Largest element of residual vector :  0.33761638E-05.
  Largest element of DIIS residual   :  0.33699161E-05.
   The total correlation energy is -0.430974339187 a.u.
  Convergence information after    12 iterations: 
  Largest element of residual vector : -0.14792869E-05.
  Largest element of DIIS residual   : -0.18038039E-05.
   The total correlation energy is -0.430974634198 a.u.
  Convergence information after    13 iterations: 
  Largest element of residual vector :  0.11249354E-05.
  Largest element of DIIS residual   :  0.79822594E-06.
   The total correlation energy is -0.430974746428 a.u.
  Convergence information after    14 iterations: 
  Largest element of residual vector : -0.85145677E-06.
  Largest element of DIIS residual   :  0.44328294E-06.
   The total correlation energy is -0.430974797194 a.u.
  Convergence information after    15 iterations: 
  Largest element of residual vector :  0.41735957E-06.
  Largest element of DIIS residual   : -0.24825806E-06.
   The total correlation energy is -0.430974810479 a.u.
  Convergence information after    16 iterations: 
  Largest element of residual vector : -0.16567691E-06.
  Largest element of DIIS residual   :  0.87331446E-07.
   The total correlation energy is -0.430974813191 a.u.
  Convergence information after    17 iterations: 
  Largest element of residual vector :  0.77097398E-07.
  Largest element of DIIS residual   :  0.35748900E-07.
  Amplitude equations converged in    17iterations.
   The total correlation energy is -0.430974816653 a.u.
   The CC iterations have converged.

   Largest T1 amplitudes for spin case AA:
   i       a                 i       a                 i       a    
-----------------------------------------------------------------------------
[  5      11    ]-0.02386 [  4      14    ] 0.02383 [  5      17    ]-0.01554
[  4      18    ]-0.01487 [  5      10    ] 0.01468 [  4      22    ]-0.00978
[  4      28    ]-0.00946 [  8      89    ]-0.00792 [  8      90    ] 0.00618
[  3      12    ] 0.00555 [  5      31    ]-0.00492 [  4      15    ]-0.00463
[  9     121    ]-0.00448 [  8      97    ]-0.00433 [  4      30    ]-0.00396
-----------------------------------------------------------------------------
   Norm of T1AA vector (      327 symmetry allowed elements):  0.0495515785.
-----------------------------------------------------------------------------
   Largest T2 amplitudes for spin case AB:
       _       _                 _       _                 _       _
   i   j   a   b             i   j   a   b             i   j   a   b
-----------------------------------------------------------------------------
[  5   5  11  11]-0.12050 [  4   4  50  50]-0.11601 [  5   5  17  11] 0.07654
[  5   5  11  17] 0.07654 [  5   5  17  17]-0.06371 [  5   5  11  10] 0.05957
[  5   5  10  11] 0.05957 [  5   5  88  88]-0.05421 [  5   5  53  53]-0.05420
[  5   5  13  13]-0.05411 [  4   4  54  50]-0.05060 [  4   4  50  54]-0.05060
[  5   5  17  10]-0.03754 [  5   5  10  17]-0.03754 [  5   5  10  10]-0.02947
-----------------------------------------------------------------------------
   Norm of T2AB vector (   345906 symmetry allowed elements):  0.4179032492.
-----------------------------------------------------------------------------
       Summary of iterative solution of CC equations 
      -----------------------------------------------------------
                       Correlation           Total
       Iteration         Energy              Energy
      -----------------------------------------------------------
            0        -0.395230087941     -78.941645235028  DIIS 
            1        -0.415113703254     -78.961528850341  DIIS 
            2        -0.426279465729     -78.972694612816  DIIS 
            3        -0.429182362256     -78.975597509343  DIIS 
            4        -0.430806857216     -78.977222004304  DIIS 
            5        -0.430980768739     -78.977395915827  DIIS 
            6        -0.430986144160     -78.977401291247  DIIS 
            7        -0.430978314804     -78.977393461892  DIIS 
            8        -0.430973282479     -78.977388429566  DIIS 
            9        -0.430972774733     -78.977387921820  DIIS 
           10        -0.430973190709     -78.977388337797  DIIS 
           11        -0.430973908131     -78.977389055219  DIIS 
           12        -0.430974339187     -78.977389486274  DIIS 
           13        -0.430974634198     -78.977389781285  DIIS 
           14        -0.430974746428     -78.977389893515  DIIS 
           15        -0.430974797194     -78.977389944282  DIIS 
           16        -0.430974810479     -78.977389957567  DIIS 
           17        -0.430974816653     -78.977389963741  DIIS 
      -----------------------------------------------------------
      A miracle has come to pass. The CC iterations have converged.
        E(CCSD)           =     -78.977389963741
        E(CCSD + T(CCSD)) =     -78.993211829345
        E(CCSD(T))        =     -78.992790716032
 @CHECKOUT-I, Total execution time (CPU/WALL):      209.96/      17.53 seconds.
--executable xvcc finished with status     0 in       17.56 seconds (walltime).
  The final electronic energy is       -78.992790716032246 a.u. 
  This computation required                           28.42 seconds (walltime).
