CFour on node01
 --invoking executable--
/home/tsommerfeld/zscale/bin/xjoda


   *************************************************************************
         <<<     CCCCCC     CCCCCC   |||     CCCCCC     CCCCCC   >>>
       <<<      CCC        CCC       |||    CCC        CCC         >>>
      <<<      CCC        CCC        |||   CCC        CCC            >>>
    <<<        CCC        CCC        |||   CCC        CCC              >>>
      <<<      CCC        CCC        |||   CCC        CCC            >>>
       <<<      CCC        CCC       |||    CCC        CCC         >>>
         <<<     CCCCCC     CCCCCC   |||     CCCCCC     CCCCCC   >>>
   *************************************************************************

     ****************************************************************
     * CFOUR Coupled-Cluster techniques for Computational Chemistry *
     ****************************************************************
 

   Department of Chemistry                Institut fuer Physikalische Chemie
   University of Florida                  Universitaet Mainz
   Gainesville, FL 32611, USA             D-55099 Mainz, Germany

   Department of Chemistry                Department of Chemistry
   Johns Hopkins University               Southern Methodist University
   Baltimore, MD 21218, USA               Dallas, TX 75275, USA

   Institute of Nanotechnology            Department of Physical Chemistry
   Karlsruhe Inst. of Technology          Eotvos Lorand University
   D-76021 Karlsruhe, Germany             H-1053 Budapest, Hungary

 
                       Version 2.1
 
                     node01                                            
                     Tue May  3 11:28:24 CDT 2022                      
                     integer*8 version is running
 
********************************************************************************
*                          Input from ZMAT file                                *
********************************************************************************
h_ethylene                                                                      
C       0.000000      0.0   -0.664500                                           
C       0.000000      0.0    0.664500                                           
H       0.962348      0.0   -1.159080                                           
H       0.962348      0.0    1.159080                                           
H      -0.962348      0.0   -1.159080                                           
H      -0.962348      0.0    1.159080                                           
H      0.000000      7.533333333333333      0.000000                            
                                                                                
*CFOUR(CALC=CCSD(T)                                                             
#EXCITE=EOMEE                                                                   
#ESTATE_SYM=0/3/0/0                                                             
CC_PROG=VCC                                                                     
CHARGE=-1                                                                       
COORDINATES=CARTESIAN                                                           
BASIS=SPECIAL                                                                   
REFERENCE=RHF                                                                   
MEM_SIZE=90,MEM_UNIT=GB)                                                        
                                                                                
C:cc-pVTZ                                                                       
C:cc-pVTZ                                                                       
H:cc-pVTZ                                                                       
H:cc-pVTZ                                                                       
H:cc-pVTZ                                                                       
H:cc-pVTZ                                                                       
H:aug-cc-pVTZ                                                                   
                                                                                
********************************************************************************
  @GTFLGS-W, Keyword #EXCITE not known and is ignored.
  @GTFLGS-W, Keyword #ESTATE_SYM not known and is ignored.
    -------------------------------------------------------------------
                    CFOUR Control Parameters 
    -------------------------------------------------------------------
        External           Internal           Value            Units
          Name               Name
    -------------------------------------------------------------------
       ABCDTYPE             IABCDT         STANDARD    [  0]    ***   
       ANHARMONIC           IANHAR         OFF         [  0]    ***   
       ANH_ALGORIT          IANALG         STANDARD    [  0]    ***   
       ANH_DERIVAT          IANDER         SECOND      [  1]    ***   
       ANH_MODE             ANHMOD         VIBRATION   [  0]    ***   
       ANH_STEPSIZ          ICUBST             50000          x 10-6  
       ANH_SYMMETR          IANHSM         ABELIAN     [  0]    ***   
       AO_LADDERS           IAOLAD         SINGLEPASS  [  1]    ***   
       AV_SCF               IAVSCF         OFF         [  0]    ***   
       BASIS                IBASIS         SPECIAL     [  0]    ***   
       BOTHVECTORS          BOTHVC         OFF         [  0]    ***   
       BOX_POTENT           IPIAB          OFF         [  0]    ***   
       BREIT                IBREIT         OFF         [  0]    ***   
       BRUCK_CONV           IBRTOL          10D-  4             ***   
       BRUECKNER            IBRKNR         OFF         [  0]    ***   
       BUFFERSIZE           IBUFFS              4096            ***   
       CACHE_RECS           ICHREC             10               ***   
       CALCLEVEL            ICLLVL         CCSD(T)     [ 22]    ***   
       CCORBOPT             ICCORB         OFF         [  0]  x 0.01  
       CC_CONV              ICCCNV          10D-  7             ***   
       CC_EXPORDER          ICCEOR              5               ***   
       CC_EXTRAPOL          ICCEXT         DIIS        [  1]    ***   
       CC_GUESS             ICCGES         MP2         [  0]    ***   
       CC_MAXCYC            ICCCYC            100              cycles 
       CC_PROGRAM           ICCPRO         VCC         [  0]    ***   
       CHARGE               ICHRGE             -1               ***   
       CHOLESKY             ICHOLE         OFF         [  0]    ***   
       CIS_CONV             ICISTL              5               ***   
       COMM_SIZE            IPSIZE            ***               ***   
       CONSTANT             ICONST         OLD         [  1]    ***   
       CONTINUUM            ICONTU         NONE        [  0]    ***   
       CONTRACTION          ICNTYP         GENERAL     [  1]    ***   
       COORDINATES          ICOORD         CARTESIAN   [  1]    ***   
       CPHF_CONVER          ICPHFT          10D- 16             ***   
       CPHF_MAXCYC          ICPHFC             64              cycles 
       CUBIC                ICUBIC         OFF         [  0]    ***   
       CURVILINEAR          ICURVY         OFF         [  0]    ***   
       DBOC                 IDBOC          OFF         [  0]    ***   
       DCT                  IDCT           OFF         [  0]    ***   
       DERIV_LEV            IDRLVL         ZERO        [  0]    ***   
       DEVMEM_SIZE          IDVMEM         *********           MByte  
       DIAG_MRCC            IEOMST          10D-  0             ***   
       DIFF_TYPE            IDIFTY         RELAXED     [  0]    ***   
       DIRECT               IDIRCT         OFF         [  0]    ***   
       DROPMO               IDRPMO      NONE         
       ECP                  IECP           OFF         [  0]    ***   
       EIGENVECTOR          IVEC                1               ***   
       EL_ANHARM            IELANH         OFF         [  0]    ***   
       EOMFOLLOW            IEOMSR         ENERGY      [  0]    ***   
       EOMIP                IEOMIP         OFF         [  0]    ***   
       EOMLEVEL             HBARFM         SAME        [  0]    ***   
       EOM_MRCC             IMRCCE         NEW         [  1]    ***   
       EOM_NONIT            EOMNON         OFF         [  0]    ***   
       EOM_NSING            IEOMSI          10D-  0             ***   
       EOM_NSTATES          IMRCCD         DAVIDSON    [  0]    ***   
       EOM_NTRIP            IEOMTR          10D-  0             ***   
       EOM_ORDER            IEXORD         ENERGY      [  0]    ***   
       EOM_PROPSTA          IEOMST              0               ***   
       ESTATE_CONV          IEXTOL          10D-  5             ***   
       ESTATE_DIAG          IEXDIG         ITERATIVE   [  0]    ***   
       ESTATE_LOCK          IESLOC         ON          [  1]    ***   
       ESTATE_MAXC          IEXMXC             40               ***   
       ESTATE_PROP          IEXPRP         OFF         [  0]    ***   
       EVAL_HESS            IRECAL              0            # of cyc.
       EXCITATION           IEXCIT              0               ***   
       EXCITE               IEXCIT         NONE        [  0]    ***   
       EXTERN_POT           IEXPOT         OFF         [  0]    ***   
       FCGRADNEW            IFCGNW         OFF         [  0]    ***   
       FC_FIELD             IFINFC              0             x 10-6  
       FD_CALTYPE           IFDCAL         GRADONLY    [  0]    ***   
       FD_PROJECT           IFDPRJ         OFF         [  1]    ***   
       FD_STEPSIZE          IDISFD              0            10-4 bohr
       FD_USEGROUP          IFDGRP         FULL        [  0]    ***   
       FILE_RECSIZ          IFLREC              4096           words  
       FINITE_PERT          IFIPER              0             x 10-6  
       FIXGEOM              IFIXGM         OFF         [  0]    ***   
       FOCK                 IFOCK          AO          [  1]    ***   
       FREQ_ALGORI          IVIALG         STANDARD    [  0]    ***   
       FROZEN_CORE          IFROCO         OFF         [  0]    ***   
       GAMMA_ABCD           IGABCD         STORE       [  0]    ***   
       GAMMA_ABCI           IGABCI         STORE       [  0]    ***   
       GENBAS_1             IGNBS1              0               ***   
       GENBAS_2             IGNBS2              0               ***   
       GENBAS_3             IGNBS3              0               ***   
       GENBAS_4             IGNBS4              0               ***   
       GEO_CONV             ICONTL              5              H/bohr 
       GEO_MAXCYC           IOPTCY             50               ***   
       GEO_MAXSTEP          IMXSTP            300            millibohr
       GEO_METHOD           INR            SINGLE_POINT[  5]    ***   
       GIAO                 IGIAO          OFF         [  1]    ***   
       GIMIC                IGIMIC         OFF         [  0]    ***   
       GRID                 IGRID          OFF         [  0]    ***   
       GRID_ALGO            IGALGO         SERIAL      [  0]    ***   
       GUESS                IGUESS         MOREAD      [  0]    ***   
       HBAR                 IHBAR          OFF         [  0]    ***   
       HESS_TYPE            IHESTP         SCF         [  0]    ***   
       HF2_FILE             IHF2Fl         USE         [  1]    ***   
       HFSTABILITY          ISTABL         OFF         [  0]    ***   
       INCORE               INCORE         OFF         [  0]    ***   
       INPUT_MRCC           IMRCC          ON          [  1]    ***   
       INTEGRALS            INTTYP         VMOL        [  1]    ***   
       JODA_PRINT           IJPRNT              0               ***   
       KEYWORD_OUT          IDMPKW         NO          [  0]    ***   
       LINDEP_TOL           ILINDP              8               ***   
       LINEQ_CONV           IZTACN          10D-  7           cycles  
       LINEQ_EXPOR          ILMAXD              5               ***   
       LINEQ_MAXCY          ILMAXC            100               ***   
       LINEQ_TYPE           ILTYPE         DIIS        [  1]    ***   
       LOCK_ORBOCC          ILOCOC         OFF         [  0]    ***   
       MEMORY_SIZE          IMEMSZ         *********           words  
       MEM_UNIT             IMEMU          GB          [  3]    ***   
       MRCC                 IMRCCC         OFF         [  0]    ***   
       MULTIPLICTY          IMULTP              1               ***   
       NACOUPLING           IVCOUP         OFF         [  0]    ***   
       NEGEVAL              IDIE           ABORT       [  0]    ***   
       NEWNORM              INEWNO         OFF         [  0]    ***   
       NON-HF               INONHF         OFF         [  0]    ***   
       NTOP_TAMP            ITOPT2             15               ***   
       NUC_MODEL            INUCMO         POINT       [  0]    ***   
       OCCUPATION           IOCCU   ESTIMATED BY SCF 
       OPEN-SHELL           IOPEN          SPIN-ORBITAL[  0]    ***   
       OPTVIB               IOPTVB         OFF         [  0]    ***   
       ORBITALS             IORBTP         STANDARD    [  0]    ***   
       PARALLEL             IPARAL         ON          [  1]    ***   
       PARA_INT             IPINTS         ON          [  1]    ***   
       PARA_PRINT           IPPRIN              0               ***   
       PERT_ORB             IPTORB         STANDARD    [  0]    ***   
       POINTS               IGRDFD              0               ***   
       PRINT                IPRNT               0               ***   
       PROPS                IPROPS         OFF         [  0]    ***   
       PROP_INTEGR          IINTYP         INTERNAL    [  0]    ***   
       PSI                  IPSI           OFF         [  0]    ***   
       QC_ALG               IQCALG         FLM         [  0]    ***   
       QC_LINALG            IQCLIN         TRIDIAG     [  2]    ***   
       QC_MAXCYC            IQCMAX          10D-100           cycles  
       QC_MAXSCFCY          IQCMSC          10D- 15           cycles  
       QC_RTRUST            IQCRTR          10D-  0           x 10-3  
       QC_SKIPSCF           IQCSKI         OFF         [  0]    ***   
       QC_START             IQCSTA          10D-  1             ***   
       QRHFGUESS            IQGUES         OFF         [  0]    ***   
       QUARTIC              IQUART         OFF         [  0]    ***   
       RAMAN_INT            IRAMIN         OFF         [  0]    ***   
       RAMAN_ORB            IRAMRE         UNRELAXED   [  0]    ***   
       RDO                  IRDOFM         OFF         [  0]    ***   
       REDUCE_REPR          REDREP         Ir          [  0]    ***   
       REFERENCE            IREFNC         RHF         [  0]    ***   
       RELATIVIST           IRELAT         OFF         [  0]    ***   
       RELAX_DENS           IRDENS         OFF         [  0]    ***   
       RESET_FLAGS          IRESET         OFF         [  0]    ***   
       RESTART_CC           ICCRES         OFF         [  0]    ***   
       ROT_EVEC             ROTVEC              0               ***   
       SAVE_INTS            ISVINT         OFF         [  0]    ***   
       SCALE_ON             ISTCRT              0               ***   
       SCF_CONV             ISCFCV          10D-  7             ***   
       SCF_DAMPING          IDAMP               0             x 10-3  
       SCF_EXPORDE          IRPPOR              6               ***   
       SCF_EXPSTAR          IRPPLS              8               ***   
       SCF_EXTRAPO          IRPP           ON          [  1]    ***   
       SCF_MAXCYC           ISCFCY            150              cycles 
       SCF_NOSTOP           ISCFST         OFF         [  0]    ***   
       SCF_PRINT            ISCFPR              0               ***   
       SCF_PROG             ISCFPR         SCF         [  0]    ***   
       SD_FIELD             IFINSD              0             x 10-6  
       SOPERT               IPERSO         OFF         [  0]    ***   
       SPHERICAL            IDFGHI         ON          [  1]    ***   
       SPINORBIT            ISOCAL         OFF         [  0]    ***   
       SPINROTATIO          ISRCON         OFF         [  0]    ***   
       SPIN_FLIP            ISPFLP         OFF         [  0]    ***   
       SPIN_ORBIT           ISPORB         OFF         [  0]    ***   
       SPIN_SCAL            ISCSMP         OFF         [  0]    ***   
       STEEPSCALE           ISTPSC              1000          x 10-3  
       SUBGROUP             ISUBGP         DEFAULT     [  0]    ***   
       SUBGRPAXIS           ISBXYZ         X           [  0]    ***   
       SYMMETRY             ISYM           ON          [  0]    ***   
       SYM_CHECK            ISYMCK         OVERRIDE    [  1]    ***   
       T3_EXTRAPOL          IT3EXT         OFF         [  0]    ***   
       T4_EXTRAPOL          IT4EXP         OFF         [  0]    ***   
       TAMP_SUM             IEVERY              5               ***   
       TESTSUITE            ITESTS         OFF         [  0]    ***   
       THERMOCH             ITHERM         OFF         [  0]    ***   
       TOL_CHOLESK          ITOLCH          10D-  4             ***   
       TRANGRAD             IRESRM         OFF         [  0]    ***   
       TRANS_INV            ITRAIN         USE         [  0]    ***   
       TREAT_PERT           ITREAT         SIMULTANEOUS[  0]    ***   
       TRIP_ALGORI          ITRALG         NORMAL      [  0]    ***   
       UIJ_THRESHO          IUIJTH              1               ***   
       UNITS                IUNITS         ANGSTROM    [  0]    ***   
       UNOS                 IUNOS          OFF         [  0]    ***   
       UPDATE_HESS          IHUPDT         ON          [  1]    ***   
       VIBPHASE             ISETPH         STANDARD    [  0]    ***   
       VIBRATION            IVIB           NO          [  0]    ***   
       VIB_ALGORIT          IGEALG         STANDARD    [  0]    ***   
       VNATORB              IVNORB         OFF         [  0]    ***   
       VTRAN                IVTRAN         FULL/PARTIAL[  0]    ***   
       XFIELD               IXEFLD              0             x 10-6  
       XFORM_TOL            IXFTOL          10D- 11             ***   
       YFIELD               IYEFLD              0             x 10-6  
       ZFIELD               IZEFLD              0             x 10-6  
       ZSCALE_EXP           IZEXPS         OFF         [  0]    ***   
    -------------------------------------------------------------------
  @GETXYZ-I,     7 atoms read from ZMAT.
   Rotational constants (in cm-1): 
          0.2366862002             0.2859958147             0.8536890782
   Rotational constants (in MHz): 
       7095.6747666606          8573.9400293291         25592.9582983935
********************************************************************************
   The full molecular point group is C2v .
   The largest Abelian subgroup of the full molecular point group is C2v .
   The computational point group is C2v .
********************************************************************************


 ----------------------------------------------------------------
         Coordinates used in calculation (QCOMP) 
 ----------------------------------------------------------------
 Z-matrix   Atomic            Coordinates (in bohr)
  Symbol    Number           X              Y              Z
 ----------------------------------------------------------------
     C         6        -1.25572327     0.00000000    -0.49406917
     C         6         1.25572327     0.00000000    -0.49406917
     H         1        -2.19034422     1.81857454    -0.49406917
     H         1         2.19034422     1.81857454    -0.49406917
     H         1        -2.19034422    -1.81857454    -0.49406917
     H         1         2.19034422    -1.81857454    -0.49406917
     H         1         0.00000000     0.00000000    13.74187062
 ----------------------------------------------------------------
 
   Interatomic distance matrix (Angstroms) 
 
                 C             C             H             H             H    
                [ 1]        [ 2]        [ 3]        [ 4]        [ 5]
  C    [ 1]     0.00000
  C    [ 2]     1.32900     0.00000
  H    [ 3]     1.08200     2.06193     0.00000
  H    [ 4]     2.06193     1.08200     2.31816     0.00000
  H    [ 5]     1.08200     2.06193     1.92470     3.01303     0.00000
  H    [ 6]     2.06193     1.08200     3.01303     1.92470     2.31816
  H    [ 7]     7.56259     7.56259     7.68249     7.68249     7.68249
 
                 H             H    
                [ 6]        [ 7]
  H    [ 6]     0.00000
  H    [ 7]     7.68249     0.00000
 rotcon2
   Rotational constants (in cm-1): 
          0.2859958147             0.2366862002             0.8536890782
   Rotational constants (in MHz): 
       8573.9400293291          7095.6747666606         25592.9582983935
  ECPDATA file not present.   Using default ECPDATA. 
  @GTFLGS-W, Keyword #EXCITE not known and is ignored.
  @GTFLGS-W, Keyword #ESTATE_SYM not known and is ignored.
  There are  139 basis functions.
 @GEOPT-W, Archive file not created for single-point calculation.
 @CHECKOUT-I, Total execution time (CPU/WALL):        0.15/       0.17 seconds.
--executable xjoda finished with status     0 in        0.18 seconds (walltime).
 --invoking executable--
/home/tsommerfeld/zscale/bin/xvmol
 SERIAL VERSION OF MOLECULE STARTED
********************************************************************************
                    INPUT FROM MOL FILE
********************************************************************************
INTGRL        1    0    1    0    0    0    0    0    0                         
         *** CFOUR Program System (Release V0.1) ***                            
h_ethylene                                                                      
    3    2 X  Y       0.10E-08              0    0                              
   9999.00      3.00                                                            
          6.00000000    1    4    1    1    1    1                              
C #1  -1.255723272983657   0.000000000000000  -0.494069171494479                
   10    4                                                                      
   8236.00000000000       5.310000000000000E-004  0.000000000000000E+000        
 -1.130000000000000E-004  0.000000000000000E+000                                
   1235.00000000000       4.108000000000000E-003  0.000000000000000E+000        
 -8.780000000000000E-004  0.000000000000000E+000                                
   280.800000000000       2.108700000000000E-002  0.000000000000000E+000        
 -4.540000000000000E-003  0.000000000000000E+000                                
   79.2700000000000       8.185300000000000E-002  0.000000000000000E+000        
 -1.813300000000000E-002  0.000000000000000E+000                                
   25.5900000000000       0.234817000000000       0.000000000000000E+000        
 -5.576000000000000E-002  0.000000000000000E+000                                
   8.99700000000000       0.434401000000000       0.000000000000000E+000        
 -0.126895000000000       0.000000000000000E+000                                
   3.31900000000000       0.346129000000000       0.000000000000000E+000        
 -0.170352000000000       0.000000000000000E+000                                
  0.905900000000000       3.937800000000000E-002   1.00000000000000             
  0.140382000000000       0.000000000000000E+000                                
  0.364300000000000      -8.983000000000000E-003  0.000000000000000E+000        
  0.598684000000000       0.000000000000000E+000                                
  0.128500000000000       2.385000000000000E-003  0.000000000000000E+000        
  0.395389000000000        1.00000000000000                                     
    5    3                                                                      
   18.7100000000000       0.000000000000000E+000  1.403100000000000E-002        
  0.000000000000000E+000                                                        
   4.13300000000000       0.000000000000000E+000  8.686600000000000E-002        
  0.000000000000000E+000                                                        
   1.20000000000000       0.000000000000000E+000  0.290216000000000             
  0.000000000000000E+000                                                        
  0.382700000000000        1.00000000000000       0.501008000000000             
  0.000000000000000E+000                                                        
  0.120900000000000       0.000000000000000E+000  0.343406000000000             
   1.00000000000000                                                             
    2    2                                                                      
   1.09700000000000        1.00000000000000       0.000000000000000E+000        
  0.318000000000000       0.000000000000000E+000   1.00000000000000             
    1    1                                                                      
  0.761000000000000        1.00000000000000                                     
          1.00000000    1    3    1    1    1                                   
H #2  -2.190344215575466   1.818574537711477  -0.494069171494479                
    5    3                                                                      
   33.8700000000000       0.000000000000000E+000  6.068000000000000E-003        
  0.000000000000000E+000                                                        
   5.09500000000000       0.000000000000000E+000  4.530800000000000E-002        
  0.000000000000000E+000                                                        
   1.15900000000000       0.000000000000000E+000  0.202822000000000             
  0.000000000000000E+000                                                        
  0.325800000000000        1.00000000000000       0.503903000000000             
  0.000000000000000E+000                                                        
  0.102700000000000       0.000000000000000E+000  0.383421000000000             
   1.00000000000000                                                             
    2    2                                                                      
   1.40700000000000        1.00000000000000       0.000000000000000E+000        
  0.388000000000000       0.000000000000000E+000   1.00000000000000             
    1    1                                                                      
   1.05700000000000        1.00000000000000                                     
          1.00000000    1    3    1    1    1                                   
H #3   0.000000000000000   0.000000000000000  13.741870617535193                
    6    4                                                                      
   33.8700000000000       0.000000000000000E+000  6.068000000000000E-003        
  0.000000000000000E+000  0.000000000000000E+000                                
   5.09500000000000       0.000000000000000E+000  4.530800000000000E-002        
  0.000000000000000E+000  0.000000000000000E+000                                
   1.15900000000000       0.000000000000000E+000  0.202822000000000             
  0.000000000000000E+000  0.000000000000000E+000                                
  0.325800000000000        1.00000000000000       0.503903000000000             
  0.000000000000000E+000  0.000000000000000E+000                                
  0.102700000000000       0.000000000000000E+000  0.383421000000000             
   1.00000000000000       0.000000000000000E+000                                
  2.526000000000000E-002  0.000000000000000E+000  0.000000000000000E+000        
  0.000000000000000E+000   1.00000000000000                                     
    3    3                                                                      
   1.40700000000000        1.00000000000000       0.000000000000000E+000        
  0.000000000000000E+000                                                        
  0.388000000000000       0.000000000000000E+000   1.00000000000000             
  0.000000000000000E+000                                                        
  0.102000000000000       0.000000000000000E+000  0.000000000000000E+000        
   1.00000000000000                                                             
    2    2                                                                      
   1.05700000000000        1.00000000000000       0.000000000000000E+000        
  0.247000000000000       0.000000000000000E+000   1.00000000000000             
FINISH                                                                          
 
********************************************************************************
 ONE- AND TWO-ELECTRON INTEGRALS OVER SYMMETRY-ADAPTED AOS ARE CALCULATED.

  SPHERICAL HARMONICS ARE USED.
  
  INTEGRALS LESS THAN  0.10E-13 ARE NEGLECTED.

  NUCLEAR REPULSION ENERGY :   34.7044158570 A.U.
  @MOLECU-I, ONE ELECTRON INTEGRALS (CPU/WALL):        0.04/       0.04 SECONDS.
  @TWOEL-I,     497548 INTEGRALS OF SYMMETRY TYPE  I I I I
  @TWOEL-I,    2041841 INTEGRALS OF SYMMETRY TYPE  I J I J
  @TWOEL-I,    1174161 INTEGRALS OF SYMMETRY TYPE  I I J J
  @TWOEL-I,    1766902 INTEGRALS OF SYMMETRY TYPE  I J K L
  @TWOEL-I, TOTAL NUMBER OF 2-E INTEGRALS    5480452.
  @MOLECU-I, TWO ELECTRON INTEGRALS (CPU/WALL):       36.11/       4.00 SECONDS.
 @CHECKOUT-I, Total execution time (CPU/WALL):       36.17/       4.05 seconds.

Running with 12 threads/proc

--executable xvmol finished with status     0 in        4.08 seconds (walltime).
 --invoking executable--
/home/tsommerfeld/zscale/bin/xvmol2ja
 @GETMEM-I,  Allocated   85830 MB of main memory.
 @CHECKOUT-I, Total execution time (CPU/WALL):        0.10/       0.02 seconds.
--executable xvmol2ja finished with status     0 in        0.04 seconds (walltime).
 --invoking executable--
/home/tsommerfeld/zscale/bin/xvscf
  There are  139 functions in the AO basis.

  There are 4 irreducible representations.

       Irrep        # of functions
         1                 45
         2                 39
         3                 29
         4                 26


  Parameters for SCF calculation: 
        SCF reference function:  RHF  
  Maximum number of iterations:  150
     Full symmetry point group: C2v 
     Computational point group: C2v 
        Initial density matrix: MOREAD                 
     SCF convergence tolerance: 10**(- 7)
  DIIS convergence acceleration:  ON
          Latest start for DIIS:   8
                     DIIS order:   6

  Memory information:     823082 words required.
  Fock matrices are constructed from AO integral file.
 @GETMEM-I,  Allocated       6 MB of main memory.
  Initialization and symmetry analysis required      0.001 seconds.

  @INITGES-I, Occupancies from core Hamiltonian:

          Alpha population by irrep:   4    3    1    1
           Beta population by irrep:   4    3    1    1


 total no. of electrons in initial guess :  0.000000000000000E+000
  --------------------------------------------------------------------
  Iteration         Total Energy            Largest Density Difference
  --------------------------------------------------------------------
       0            34.704415857042868              0.0000000000D+00
   current occupation vector 
     4  3  1  1
     4  3  1  1
       1           -51.712834598219835              0.8749707256D+01
   current occupation vector 
     4  3  1  1
     4  3  1  1
       2           -41.866740100967313              0.3150424931D+02
   current occupation vector 
     5  3  1  0
     5  3  1  0
       3           -68.002937840552192              0.3124328665D+02
   current occupation vector 
     4  3  1  1
     4  3  1  1
       4           -43.945223919594746              0.1243788924D+02
   current occupation vector 
     6  2  1  0
     6  2  1  0
       5           -68.664969064753336              0.1243788913D+02
   current occupation vector 
     4  3  1  1
     4  3  1  1
       6           -44.223790607167253              0.1243749611D+02
   current occupation vector 
     6  2  1  0
     6  2  1  0
       7           -68.757488182591658              0.1243749611D+02
   current occupation vector 
     4  3  1  1
     4  3  1  1
       8           -44.261222781344536              0.1243743744D+02
   current occupation vector 
     6  2  1  0
     6  2  1  0
       9           -73.558723678264471              0.1243743819D+02
   current occupation vector 
     4  3  1  1
     4  3  1  1
      10           -75.824596799732433              0.9240920855D+00
   current occupation vector 
     4  3  1  1
     4  3  1  1
      11           -78.507731981580434              0.1653948923D+01
   current occupation vector 
     5  2  1  1
     5  2  1  1
      12           -78.543497566466812              0.3235072517D+00
   current occupation vector 
     5  2  1  1
     5  2  1  1
      13           -78.546428564056953              0.5864421330D-01
   current occupation vector 
     5  2  1  1
     5  2  1  1
      14           -78.546578290768736              0.1716706750D-01
   current occupation vector 
     5  2  1  1
     5  2  1  1
      15           -78.546588180004193              0.5660363893D-02
   current occupation vector 
     5  2  1  1
     5  2  1  1
      16           -78.546588723177592              0.1956096628D-02
   current occupation vector 
     5  2  1  1
     5  2  1  1
      17           -78.546588731624269              0.1902842129D-03
   current occupation vector 
     5  2  1  1
     5  2  1  1
      18           -78.546588731845446              0.4000941197D-04
   current occupation vector 
     5  2  1  1
     5  2  1  1
      19           -78.546588731852978              0.2813829642D-05
   current occupation vector 
     5  2  1  1
     5  2  1  1
      20           -78.546588731853461              0.4478474828D-06
   current occupation vector 
     5  2  1  1
     5  2  1  1
      21           -78.546588731852751              0.1440802188D-06
   current occupation vector 
     5  2  1  1
     5  2  1  1

  SCF has converged.

 Density matrix saved to file den.dat
 total electron number:   18.0000000000000     
     E(SCF)=       -78.546588731852580              0.1297691781D-07


  Final occupancies:

     Alpha population by irrep:   5    2    1    1
      Beta population by irrep:   5    2    1    1


  Eigenvector printing suppressed.

 @PUTMOS-I, Writing converged MOs to NEWMOS. 
 @PUTMOS-I, Symmetry   1 Full Blocks 11 Partial Blocksize   1
 @PUTMOS-I, Symmetry   2 Full Blocks  9 Partial Blocksize   3
 @PUTMOS-I, Symmetry   3 Full Blocks  7 Partial Blocksize   1
 @PUTMOS-I, Symmetry   4 Full Blocks  6 Partial Blocksize   2
 @PUTFOCK-I, Writing converged Fock matrix to NEWFOCK. 
 @PUTFOCK-I, Symmetry   1 Full Blocks 11 Partial Blocksize   1
 @PUTFOCK-I, Symmetry   2 Full Blocks  9 Partial Blocksize   3
 @PUTFOCK-I, Symmetry   3 Full Blocks  7 Partial Blocksize   1
 @PUTFOCK-I, Symmetry   4 Full Blocks  6 Partial Blocksize   2


 
  ORBITAL EIGENVALUES (ALPHA)  (1H = 27.2113834 eV)

       MO #        E(hartree)               E(eV)           FULLSYM    COMPSYM
       ----   --------------------   --------------------   -------   ---------
    1     1         -11.1566996467        -303.5892315640      A1        A1 (1)
    2    46         -11.1549356075        -303.5412296188      B1        B1 (2)
    3     2          -0.9683344335         -26.3497195284      A1        A1 (1)
    4    47          -0.7105419797         -19.3348302319      B1        B1 (2)
    5    85          -0.5898233690         -16.0499098324      B2        B2 (3)
    6     3          -0.4968864646         -13.5209680936      A1        A1 (1)
    7   114          -0.4454826571         -12.1221993807      A2        A2 (4)
    8     4          -0.3067383092          -8.3467737352      A1        A1 (1)
    9     5          -0.0452020987          -1.2300116381      A1        A1 (1)
  +++++++++++++++++++++++++++++++++++++++++++++++++++++++++++++++++++++++++++++
   10     6           0.2246098040           6.1119434926      A1        A1 (1)
   11    48           0.2246445705           6.1128895362      B1        B1 (2)
   12     7           0.2438258279           6.6348380863      A1        A1 (1)
   13    86           0.2527993909           6.8790211477      B2        B2 (3)
   14    49           0.2603072120           7.0833193474      B1        B1 (2)
   15   115           0.3066654448           8.3447909950      A2        A2 (4)
   16    50           0.4233090177          11.5188239779      B1        B1 (2)
   17     8           0.4290283563          11.6744550923      A1        A1 (1)
   18    87           0.4497010173          12.2369867966      E         B2 (3)
   19    51           0.4497089888          12.2372037126      E         B1 (2)
   20     9           0.4498555786          12.2411926230      A1        A1 (1)
   21    10           0.5170837642          14.0705645580      A1        A1 (1)
   22    88           0.5409699638          14.7205410927      B2        B2 (3)
   23    11           0.5509802025          14.9929335373      A1        A1 (1)
   24    52           0.6348499888          17.2751464473      B1        B1 (2)
   25    53           0.6599903265          17.9592498133      B1        B1 (2)
   26    89           0.6655632058          18.1108955691      B2        B2 (3)
   27    12           0.6944935032          18.8981289835      A1        A1 (1)
   28    54           0.7082392875          19.2721707918      B1        B1 (2)
   29    90           0.7371101752          20.0577875860      B2        B2 (3)
   30   116           0.7625884879          20.7510877212      A2        A2 (4)
   31    13           0.7838326992          21.3291720987      A1        A1 (1)
   32    55           0.8542301440          23.2447839594      B1        B1 (2)
   33   117           0.8979188725          24.4336147015      A2        A2 (4)
   34    14           0.9661772814          26.2910204355      A1        A1 (1)
   35   118           0.9736104292          26.4932866704      A2        A2 (4)
   36    15           1.0553748382          28.7182093526      A1        A1 (1)
   37   119           1.0905140174          29.6743950305      A2        A2 (4)
   38   120           1.1024261716          29.9985412253      E         A2 (4)
   39    16           1.1024261780          29.9985414004      E         A1 (1)
   40    91           1.1024778931          29.9999486389      E         B2 (3)
   41    56           1.1024812518          30.0000400335      E         B1 (2)
   42    17           1.1025066480          30.0007311000      A1        A1 (1)
   43    92           1.1067839585          30.1171226356      B2        B2 (3)
   44    18           1.2518028388          34.0632869877      A1        A1 (1)
   45    57           1.2521966278          34.0740025313      B1        B1 (2)
   46    19           1.2986455210          35.3379411713      A1        A1 (1)
   47    93           1.3239541141          36.0266230029      B2        B2 (3)
   48    94           1.3387272041          36.4286192200      E         B2 (3)
   49    58           1.3387303173          36.4287039330      E         B1 (2)
   50    20           1.3387900436          36.4303291675      A1        A1 (1)
   51    59           1.3909287892          37.8490965643      B1        B1 (2)
   52    95           1.4144588966          38.4893833393      B2        B2 (3)
   53    60           1.4338615921          39.0173575247      B1        B1 (2)
   54    96           1.5327046255          41.7070132041      B2        B2 (3)
   55    61           1.5473209857          42.1047445838      B1        B1 (2)
   56    21           1.5766344501          42.9024045041      A1        A1 (1)
   57    62           1.6024762186          43.6055947745      B1        B1 (2)
   58   121           1.6663684945          45.3441919907      A2        A2 (4)
   59   122           1.7057477386          46.4157556986      A2        A2 (4)
   60    63           1.8693861486          50.8685832110      B1        B1 (2)
   61    22           1.9213195155          52.2817619688      A1        A1 (1)
   62   123           2.0397022461          55.5031198409      A2        A2 (4)
   63    23           2.3561506237          64.1141179707      A1        A1 (1)
   64    24           2.4345356187          66.2470821216      A1        A1 (1)
   65    25           2.6176754536          71.2305703841      A1        A1 (1)
   66    64           2.6343961547          71.6855637929      B1        B1 (2)
   67    97           2.6934450177          73.2923650442      B2        B2 (3)
   68    98           2.7785020612          75.6068848642      B2        B2 (3)
   69    65           2.8107090837          76.4832825026      B1        B1 (2)
   70    26           2.8314171336          77.0467771865      A1        A1 (1)
   71   124           2.9112380970          79.2188160266      A2        A2 (4)
   72    27           2.9773612893          81.0181195646      A1        A1 (1)
   73    99           2.9856385332          81.2433548213      B2        B2 (3)
   74   125           3.1342857289          85.2882506530      A2        A2 (4)
   75    28           3.1664030164          86.1622064775      A1        A1 (1)
   76   100           3.1766186692          86.4401885235      B2        B2 (3)
   77    29           3.1786082552          86.4943279104      A1        A1 (1)
   78   101           3.1906385877          86.8216899018      B2        B2 (3)
   79   126           3.2228540346          87.6983167777      A2        A2 (4)
   80    30           3.2484242489          88.3941176840      A1        A1 (1)
   81    66           3.2986681307          89.7613232142      B1        B1 (2)
   82    67           3.3358621388          90.7734236288      B1        B1 (2)
   83   102           3.4075553716          92.7242956722      B2        B2 (3)
   84    68           3.4719307867          94.4760397755      B1        B1 (2)
   85    69           3.4956980009          95.1227785524      B1        B1 (2)
   86   127           3.4963501329          95.1405239675      A2        A2 (4)
   87   128           3.5172072680          95.7080754665      A2        A2 (4)
   88    70           3.5233439416          95.8750628450      B1        B1 (2)
   89    31           3.6203383415          98.5144146471      A1        A1 (1)
   90    32           3.6459548163          99.2114743666      A1        A1 (1)
   91   103           3.7114758929         100.9943935024      B2        B2 (3)
   92   104           3.7922616741         103.1926863679      B2        B2 (3)
   93   129           3.8857246260         105.7359425857      A2        A2 (4)
   94    71           3.9460264787         107.3768394178      B1        B1 (2)
   95   130           3.9817613003         108.3492333506      A2        A2 (4)
   96    72           4.0382284151         109.8857816614      B1        B1 (2)
   97   131           4.0468107663         110.1193193096      A2        A2 (4)
   98    33           4.0767280447         110.9334098412      A1        A1 (1)
   99   105           4.0814592310         111.0621519652      B2        B2 (3)
  100    34           4.1269601952         112.3002961476      A1        A1 (1)
  101    35           4.2165265562         114.7375207358      E         A1 (1)
  102   132           4.2165265579         114.7375207839      E         A2 (4)
  103   106           4.2165391461         114.7378633249                B2 (3)
  104    73           4.2165399126         114.7378841844                B1 (2)
  105    36           4.2165453582         114.7380323647                A1 (1)
  106    74           4.2543227320         115.7660069678      B1        B1 (2)
  107   133           4.2612370526         115.9541551975      A2        A2 (4)
  108    37           4.2624962503         115.9884197073      A1        A1 (1)
  109   107           4.2720162938         116.2474732630      B2        B2 (3)
  110    38           4.3993723875         119.7130087551      A1        A1 (1)
  111    75           4.4201692279         120.2789195545      B1        B1 (2)
  112   108           4.4446093113         120.9439680341      E         B2 (3)
  113    76           4.4446102283         120.9439929863      E         B1 (2)
  114    39           4.4446275820         120.9444652039      A1        A1 (1)
  115   109           4.5395460177         123.5273271498      B2        B2 (3)
  116    77           4.5756426559         124.5095666112      B1        B1 (2)
  117   134           4.6763841495         127.2508820166      A2        A2 (4)
  118    40           4.7113357441         128.2019632589      A1        A1 (1)
  119    78           4.8277660054         131.3701917374      B1        B1 (2)
  120    79           4.8835876441         132.8891757524      B1        B1 (2)
  121    41           4.9980759945         136.0045621485      A1        A1 (1)
  122    42           5.0439068448         137.2516829882      A1        A1 (1)
  123   135           5.0977466663         138.7167390139      A2        A2 (4)
  124   110           5.1970832465         141.4198247834      B2        B2 (3)
  125   111           5.2866583141         143.8572862906      B2        B2 (3)
  126    43           5.3691342241         146.1015698990      A1        A1 (1)
  127    80           5.3743450565         146.2433638577      B1        B1 (2)
  128   136           5.4967313958         149.5736654591      A2        A2 (4)
  129   137           5.5121414601         149.9929946248      A2        A2 (4)
  130    81           5.6074276237         152.5858629570      B1        B1 (2)
  131    44           5.6326673857         153.2726717981      A1        A1 (1)
  132   112           5.6873108381         154.7595957314      B2        B2 (3)
  133    82           6.0268512411         163.9989598174      B1        B1 (2)
  134   138           6.1626534558         167.6943259472      A2        A2 (4)
  135   113           6.3404428441         172.5322211576      B2        B2 (3)
  136    83           6.5797710101         179.0446716397      B1        B1 (2)
  137   139           6.9432400027         188.9351657517      A2        A2 (4)
  138    45          11.9672012239         325.6441007283      A1        A1 (1)
  139    84          14.8192026920         403.2510061331      B1        B1 (2)


  VSCF finished.

 @CHECKOUT-I, Total execution time (CPU/WALL):       15.74/       1.33 seconds.
--executable xvscf finished with status     0 in        1.34 seconds (walltime).
 --invoking executable--
/home/tsommerfeld/zscale/bin/xvtran
 @GETMEM-I,  Allocated   85830 MB of main memory.
  Full RHF integral transformation
  Transformation of IIII integrals :
  1 pass through the AO integral file was required.
      497548 AO integrals were read.
      997322 MO integrals were written to HF2.
  Transformation of IIJJ integrals :
  1 pass through the AO integral file was required.
     1174161 AO integrals were read.
     2386571 MO integrals were written to HF2.
  Transformation of IJIJ integrals :
  1 pass through the AO integral file was required.
     2041841 AO integrals were read.
     4517471 MO integrals were written to HF2.
  Transformation of IJKL integrals :
  1 pass through the AO integral file was required.
     1766902 AO integrals were read.
     3969808 MO integrals were written to HF2.
  Summary of active molecular orbitals: 
------------------------------------------------------------------------
 
  Index      Eigenvalue    Symmetry    Index      Eigenvalue    Symmetry
------------------------------------------------------------------------
     1       -11.1566996        1        71         3.4956980        2
     2        -0.9683344        1        72         3.5233439        2
     3        -0.4968865        1        73         3.9460265        2
     4        -0.3067383        1        74         4.0382284        2
     5        -0.0452021        1        75         4.2165399        2
     6       -11.1549356        2        76         4.2543227        2
     7        -0.7105420        2        77         4.4201692        2
     8        -0.5898234        3        78         4.4446102        2
     9        -0.4454827        4        79         4.5756427        2
    10         0.2246098        1        80         4.8277660        2
    11         0.2438258        1        81         4.8835876        2
    12         0.4290284        1        82         5.3743451        2
    13         0.4498556        1        83         5.6074276        2
    14         0.5170838        1        84         6.0268512        2
    15         0.5509802        1        85         6.5797710        2
    16         0.6944935        1        86        14.8192027        2
    17         0.7838327        1        87         0.2527994        3
    18         0.9661773        1        88         0.4497010        3
    19         1.0553748        1        89         0.5409700        3
    20         1.1024262        1        90         0.6655632        3
    21         1.1025066        1        91         0.7371102        3
    22         1.2518028        1        92         1.1024779        3
    23         1.2986455        1        93         1.1067840        3
    24         1.3387900        1        94         1.3239541        3
    25         1.5766345        1        95         1.3387272        3
    26         1.9213195        1        96         1.4144589        3
    27         2.3561506        1        97         1.5327046        3
    28         2.4345356        1        98         2.6934450        3
    29         2.6176755        1        99         2.7785021        3
    30         2.8314171        1       100         2.9856385        3
    31         2.9773613        1       101         3.1766187        3
    32         3.1664030        1       102         3.1906386        3
    33         3.1786083        1       103         3.4075554        3
    34         3.2484242        1       104         3.7114759        3
    35         3.6203383        1       105         3.7922617        3
    36         3.6459548        1       106         4.0814592        3
    37         4.0767280        1       107         4.2165391        3
    38         4.1269602        1       108         4.2720163        3
    39         4.2165266        1       109         4.4446093        3
    40         4.2165454        1       110         4.5395460        3
    41         4.2624963        1       111         5.1970832        3
    42         4.3993724        1       112         5.2866583        3
    43         4.4446276        1       113         5.6873108        3
    44         4.7113357        1       114         6.3404428        3
    45         4.9980760        1       115         0.3066654        4
    46         5.0439068        1       116         0.7625885        4
    47         5.3691342        1       117         0.8979189        4
    48         5.6326674        1       118         0.9736104        4
    49        11.9672012        1       119         1.0905140        4
    50         0.2246446        2       120         1.1024262        4
    51         0.2603072        2       121         1.6663685        4
    52         0.4233090        2       122         1.7057477        4
    53         0.4497090        2       123         2.0397022        4
    54         0.6348500        2       124         2.9112381        4
    55         0.6599903        2       125         3.1342857        4
    56         0.7082393        2       126         3.2228540        4
    57         0.8542301        2       127         3.4963501        4
    58         1.1024813        2       128         3.5172073        4
    59         1.2521966        2       129         3.8857246        4
    60         1.3387303        2       130         3.9817613        4
    61         1.3909288        2       131         4.0468108        4
    62         1.4338616        2       132         4.2165266        4
    63         1.5473210        2       133         4.2612371        4
    64         1.6024762        2       134         4.6763841        4
    65         1.8693861        2       135         5.0977467        4
    66         2.6343962        2       136         5.4967314        4
    67         2.8107091        2       137         5.5121415        4
    68         3.2986681        2       138         6.1626535        4
    69         3.3358621        2       139         6.9432400        4
    70         3.4719308        2
------------------------------------------------------------------------
  -11.1566996466638      -0.968334433462427      -0.496886464565242     
 -0.306738309203752      -4.520209869482204E-002  -11.1549356075282     
 -0.710541979716587      -0.589823369011302      -0.445482657111070     
  0.224609804018704       0.243825827917711       0.429028356281670     
  0.449855578564810       0.517083764215413       0.550980202544713     
  0.694493503167905       0.783832699175513       0.966177281363107     
   1.05537483818795        1.10242617802230        1.10250664800884     
   1.25180283879791        1.29864552095257        1.33879004356163     
   1.57663445013043        1.92131951545118        2.35615062373850     
   2.43453561870567        2.61767545358044        2.83141713355483     
   2.97736128934182        3.16640301637422        3.17860825518989     
   3.24842424894994        3.62033834145528        3.64595481634501     
   4.07672804467560        4.12696019518244        4.21652655615288     
   4.21654535817238        4.26249625027625        4.39937238748207     
   4.44462758199486        4.71133574410393        4.99807599449206     
   5.04390684481640        5.36913422413593        5.63266738574119     
   11.9672012238928       0.224644570486753       0.260307211995335     
  0.423309017721616       0.449708988796185       0.634849988821099     
  0.659990326450968       0.708239287526360       0.854230143969380     
   1.10248125177995        1.25219662780056        1.33873031729151     
   1.39092878917239        1.43386159208441        1.54732098566518     
   1.60247621862767        1.86938614855607        2.63439615469356     
   2.81070908370640        3.29866813071466        3.33586213881512     
   3.47193078671417        3.49569800087464        3.52334394160021     
   3.94602647867679        4.03822841514946        4.21653991264714     
   4.25432273199944        4.42016922794467        4.44461022831765     
   4.57564265590435        4.82776600536398        4.88358764414845     
   5.37434505654944        5.60742762372606        6.02685124113788     
   6.57977101008634        14.8192026919543       0.252799390850406     
  0.449701017281502       0.540969963795154       0.665563205767111     
  0.737110175223095        1.10247789309109        1.10678395849528     
   1.32395411410442        1.33872720414611        1.41445889661228     
   1.53270462552519        2.69344501772798        2.77850206116968     
   2.98563853321977        3.17661866921285        3.19063858773825     
   3.40755537155649        3.71147589293068        3.79226167412927     
   4.08145923096173        4.21653914607448        4.27201629384998     
   4.44460931133941        4.53954601770813        5.19708324654165     
   5.28665831413081        5.68731083813230        6.34044284413810     
  0.306665444838681       0.762588487918248       0.897918872491359     
  0.973610429170995        1.09051401739970        1.10242617159045     
   1.66636849454305        1.70574773859539        2.03970224611685     
   2.91123809701649        3.13428572885407        3.22285403459907     
   3.49635013291951        3.51720726798868        3.88572462602997     
   3.98176130033161        4.04681076632011        4.21652655792241     
   4.26123705263415        4.67638414945926        5.09774666634230     
   5.49673139584264        5.51214146006152        6.16265345580317     
   6.94324000269969     
 @CHECKOUT-I, Total execution time (CPU/WALL):       16.77/       1.98 seconds.
--executable xvtran finished with status     0 in        2.00 seconds (walltime).
 --invoking executable--
/home/tsommerfeld/zscale/bin/xintprc
 @GETMEM-I,  Allocated   85830 MB of main memory.
  @GMOIAA-I, Processing MO integrals for spin case AA.
  @GMOIAA-I, Generation of integral list completed.
                      TYPE                NUMBER
                      ----               --------
                      PPPP               9084363
                      PPPH               2501599
                      PPHH                173538
                      PHPH                 97627
                      PHHH                 13713
                      HHHH                   332

                     TOTAL              11871172

  @FORMT2-I, Second-order MP correlation energies:
            ------------------------------------------------
            E(SCF)                  =    -78.546588731853 a.u.
            E2(AA)                  =     -0.037955574012 a.u.
            E2(AB)                  =     -0.319277922551 a.u.
            E2(TOT)                 =     -0.395189070575 a.u.
            Total MP2 energy        =    -78.941777802428 a.u.
            ------------------------------------------------
   Largest T2 amplitudes for spin case AB:
       _       _                 _       _                 _       _
   i   j   a   b             i   j   a   b             i   j   a   b
-----------------------------------------------------------------------------
[  4   4  50  50]-0.08265 [  5   5  11  11]-0.07660 [  5   5  17  17]-0.04749
[  5   5  17  11] 0.04173 [  5   5  11  17] 0.04173 [  5   5  88  88]-0.04091
[  5   5  53  53]-0.04091 [  5   5  13  13]-0.04089 [  4   4  54  50]-0.03671
[  4   4  50  54]-0.03671 [  4   4  14  14]-0.03048 [  4   4  15  15]-0.02680
[  4   3  50  57] 0.02650 [  3   4  57  50] 0.02650 [  4   4  54  54]-0.02623
-----------------------------------------------------------------------------
   Norm of T2AB vector (   345906 symmetry allowed elements):  0.3321935459.
-----------------------------------------------------------------------------
 @CHECKOUT-I, Total execution time (CPU/WALL):        5.66/       2.77 seconds.
--executable xintprc finished with status     0 in        2.79 seconds (walltime).
  calling xvcc 
 --invoking executable--
/home/tsommerfeld/zscale/bin/xvcc
 @GETMEM-I,  Allocated   85830 MB of main memory.
   CCSD(T) energy will be calculated.
   The total correlation energy is -0.395189070575 a.u.
   The total correlation energy is -0.415080471385 a.u.
  Convergence information after     1 iterations: 
  Largest element of residual vector : -0.26975236E-01.
  Largest element of DIIS residual   : -0.26975236E-01.
   The total correlation energy is -0.426244122546 a.u.
  Convergence information after     2 iterations: 
  Largest element of residual vector : -0.12528287E-01.
  Largest element of DIIS residual   : -0.10650892E-01.
   The total correlation energy is -0.429147067596 a.u.
  Convergence information after     3 iterations: 
  Largest element of residual vector : -0.66779543E-02.
  Largest element of DIIS residual   : -0.56141318E-02.
   The total correlation energy is -0.430771149986 a.u.
  Convergence information after     4 iterations: 
  Largest element of residual vector : -0.33798491E-02.
  Largest element of DIIS residual   : -0.19453077E-02.
   The total correlation energy is -0.430944812513 a.u.
  Convergence information after     5 iterations: 
  Largest element of residual vector : -0.98700459E-03.
  Largest element of DIIS residual   : -0.34929811E-03.
   The total correlation energy is -0.430950034677 a.u.
  Convergence information after     6 iterations: 
  Largest element of residual vector :  0.24514251E-03.
  Largest element of DIIS residual   :  0.20068321E-03.
   The total correlation energy is -0.430941210307 a.u.
  Convergence information after     7 iterations: 
  Largest element of residual vector :  0.11501543E-03.
  Largest element of DIIS residual   :  0.77338028E-04.
   The total correlation energy is -0.430937512543 a.u.
  Convergence information after     8 iterations: 
  Largest element of residual vector : -0.71513792E-04.
  Largest element of DIIS residual   :  0.27020486E-04.
   The total correlation energy is -0.430936963003 a.u.
  Convergence information after     9 iterations: 
  Largest element of residual vector :  0.27535920E-04.
  Largest element of DIIS residual   :  0.11952287E-04.
   The total correlation energy is -0.430937305341 a.u.
  Convergence information after    10 iterations: 
  Largest element of residual vector : -0.13189828E-04.
  Largest element of DIIS residual   :  0.46376038E-05.
   The total correlation energy is -0.430937946336 a.u.
  Convergence information after    11 iterations: 
  Largest element of residual vector :  0.45763798E-05.
  Largest element of DIIS residual   : -0.29462337E-05.
   The total correlation energy is -0.430938289209 a.u.
  Convergence information after    12 iterations: 
  Largest element of residual vector : -0.16151583E-05.
  Largest element of DIIS residual   : -0.14443672E-05.
   The total correlation energy is -0.430938571862 a.u.
  Convergence information after    13 iterations: 
  Largest element of residual vector : -0.93994922E-06.
  Largest element of DIIS residual   :  0.73311918E-06.
   The total correlation energy is -0.430938690633 a.u.
  Convergence information after    14 iterations: 
  Largest element of residual vector : -0.71612743E-06.
  Largest element of DIIS residual   : -0.36167350E-06.
   The total correlation energy is -0.430938726891 a.u.
  Convergence information after    15 iterations: 
  Largest element of residual vector :  0.38065202E-06.
  Largest element of DIIS residual   : -0.20990295E-06.
   The total correlation energy is -0.430938742562 a.u.
  Convergence information after    16 iterations: 
  Largest element of residual vector : -0.14212288E-06.
  Largest element of DIIS residual   :  0.75312858E-07.
   The total correlation energy is -0.430938746526 a.u.
  Convergence information after    17 iterations: 
  Largest element of residual vector :  0.76294722E-07.
  Largest element of DIIS residual   :  0.33854267E-07.
  Amplitude equations converged in    17iterations.
   The total correlation energy is -0.430938749439 a.u.
   The CC iterations have converged.

   Largest T1 amplitudes for spin case AA:
   i       a                 i       a                 i       a    
-----------------------------------------------------------------------------
[  5      11    ]-0.02640 [  4      14    ] 0.02408 [  5      17    ]-0.01558
[  4      18    ]-0.01484 [  4      22    ]-0.00979 [  4      28    ]-0.00946
[  5      10    ] 0.00890 [  8      89    ]-0.00791 [  8      90    ] 0.00618
[  3      12    ] 0.00554 [  5      31    ]-0.00493 [  9     121    ]-0.00448
[  8      97    ]-0.00433 [  4      30    ]-0.00395 [  7      56    ] 0.00393
-----------------------------------------------------------------------------
   Norm of T1AA vector (      327 symmetry allowed elements):  0.0494731353.
-----------------------------------------------------------------------------
   Largest T2 amplitudes for spin case AB:
       _       _                 _       _                 _       _
   i   j   a   b             i   j   a   b             i   j   a   b
-----------------------------------------------------------------------------
[  5   5  11  11]-0.13980 [  4   4  50  50]-0.11607 [  5   5  17  11] 0.08261
[  5   5  11  17] 0.08261 [  5   5  17  17]-0.06405 [  5   5  88  88]-0.05420
[  5   5  53  53]-0.05420 [  5   5  13  13]-0.05416 [  4   4  54  50]-0.05095
[  4   4  50  54]-0.05095 [  5   5  11  10] 0.03801 [  5   5  10  11] 0.03801
[  4   4  54  54]-0.02895 [  4   4  15  15]-0.02607 [  4   4  14  14]-0.02557
-----------------------------------------------------------------------------
   Norm of T2AB vector (   345906 symmetry allowed elements):  0.4178936794.
-----------------------------------------------------------------------------
       Summary of iterative solution of CC equations 
      -----------------------------------------------------------
                       Correlation           Total
       Iteration         Energy              Energy
      -----------------------------------------------------------
            0        -0.395189070575     -78.941777802428  DIIS 
            1        -0.415080471385     -78.961669203237  DIIS 
            2        -0.426244122546     -78.972832854399  DIIS 
            3        -0.429147067596     -78.975735799449  DIIS 
            4        -0.430771149986     -78.977359881838  DIIS 
            5        -0.430944812513     -78.977533544366  DIIS 
            6        -0.430950034677     -78.977538766529  DIIS 
            7        -0.430941210307     -78.977529942160  DIIS 
            8        -0.430937512543     -78.977526244396  DIIS 
            9        -0.430936963003     -78.977525694855  DIIS 
           10        -0.430937305341     -78.977526037193  DIIS 
           11        -0.430937946336     -78.977526678188  DIIS 
           12        -0.430938289209     -78.977527021062  DIIS 
           13        -0.430938571862     -78.977527303715  DIIS 
           14        -0.430938690633     -78.977527422486  DIIS 
           15        -0.430938726891     -78.977527458743  DIIS 
           16        -0.430938742562     -78.977527474415  DIIS 
           17        -0.430938749439     -78.977527481291  DIIS 
      -----------------------------------------------------------
      A miracle has come to pass. The CC iterations have converged.
        E(CCSD)           =     -78.977527481291
        E(CCSD + T(CCSD)) =     -78.993339912910
        E(CCSD(T))        =     -78.992919200172
 @CHECKOUT-I, Total execution time (CPU/WALL):      208.65/      17.41 seconds.
--executable xvcc finished with status     0 in       17.43 seconds (walltime).
  The final electronic energy is       -78.992919200171642 a.u. 
  This computation required                           27.89 seconds (walltime).
