CFour on node01
 --invoking executable--
/home/tsommerfeld/zscale/bin/xjoda


   *************************************************************************
         <<<     CCCCCC     CCCCCC   |||     CCCCCC     CCCCCC   >>>
       <<<      CCC        CCC       |||    CCC        CCC         >>>
      <<<      CCC        CCC        |||   CCC        CCC            >>>
    <<<        CCC        CCC        |||   CCC        CCC              >>>
      <<<      CCC        CCC        |||   CCC        CCC            >>>
       <<<      CCC        CCC       |||    CCC        CCC         >>>
         <<<     CCCCCC     CCCCCC   |||     CCCCCC     CCCCCC   >>>
   *************************************************************************

     ****************************************************************
     * CFOUR Coupled-Cluster techniques for Computational Chemistry *
     ****************************************************************
 

   Department of Chemistry                Institut fuer Physikalische Chemie
   University of Florida                  Universitaet Mainz
   Gainesville, FL 32611, USA             D-55099 Mainz, Germany

   Department of Chemistry                Department of Chemistry
   Johns Hopkins University               Southern Methodist University
   Baltimore, MD 21218, USA               Dallas, TX 75275, USA

   Institute of Nanotechnology            Department of Physical Chemistry
   Karlsruhe Inst. of Technology          Eotvos Lorand University
   D-76021 Karlsruhe, Germany             H-1053 Budapest, Hungary

 
                       Version 2.1
 
                     node01                                            
                     Tue May  3 11:36:46 CDT 2022                      
                     integer*8 version is running
 
********************************************************************************
*                          Input from ZMAT file                                *
********************************************************************************
h_ethylene                                                                      
C       0.000000      0.0   -0.664500                                           
C       0.000000      0.0    0.664500                                           
H       0.962348      0.0   -1.159080                                           
H       0.962348      0.0    1.159080                                           
H      -0.962348      0.0   -1.159080                                           
H      -0.962348      0.0    1.159080                                           
H      0.000000      8.733333333333334      0.000000                            
                                                                                
*CFOUR(CALC=CCSD(T)                                                             
#EXCITE=EOMEE                                                                   
#ESTATE_SYM=0/3/0/0                                                             
CC_PROG=VCC                                                                     
CHARGE=-1                                                                       
COORDINATES=CARTESIAN                                                           
BASIS=SPECIAL                                                                   
REFERENCE=RHF                                                                   
MEM_SIZE=90,MEM_UNIT=GB)                                                        
                                                                                
C:cc-pVTZ                                                                       
C:cc-pVTZ                                                                       
H:cc-pVTZ                                                                       
H:cc-pVTZ                                                                       
H:cc-pVTZ                                                                       
H:cc-pVTZ                                                                       
H:aug-cc-pVTZ                                                                   
                                                                                
********************************************************************************
  @GTFLGS-W, Keyword #EXCITE not known and is ignored.
  @GTFLGS-W, Keyword #ESTATE_SYM not known and is ignored.
    -------------------------------------------------------------------
                    CFOUR Control Parameters 
    -------------------------------------------------------------------
        External           Internal           Value            Units
          Name               Name
    -------------------------------------------------------------------
       ABCDTYPE             IABCDT         STANDARD    [  0]    ***   
       ANHARMONIC           IANHAR         OFF         [  0]    ***   
       ANH_ALGORIT          IANALG         STANDARD    [  0]    ***   
       ANH_DERIVAT          IANDER         SECOND      [  1]    ***   
       ANH_MODE             ANHMOD         VIBRATION   [  0]    ***   
       ANH_STEPSIZ          ICUBST             50000          x 10-6  
       ANH_SYMMETR          IANHSM         ABELIAN     [  0]    ***   
       AO_LADDERS           IAOLAD         SINGLEPASS  [  1]    ***   
       AV_SCF               IAVSCF         OFF         [  0]    ***   
       BASIS                IBASIS         SPECIAL     [  0]    ***   
       BOTHVECTORS          BOTHVC         OFF         [  0]    ***   
       BOX_POTENT           IPIAB          OFF         [  0]    ***   
       BREIT                IBREIT         OFF         [  0]    ***   
       BRUCK_CONV           IBRTOL          10D-  4             ***   
       BRUECKNER            IBRKNR         OFF         [  0]    ***   
       BUFFERSIZE           IBUFFS              4096            ***   
       CACHE_RECS           ICHREC             10               ***   
       CALCLEVEL            ICLLVL         CCSD(T)     [ 22]    ***   
       CCORBOPT             ICCORB         OFF         [  0]  x 0.01  
       CC_CONV              ICCCNV          10D-  7             ***   
       CC_EXPORDER          ICCEOR              5               ***   
       CC_EXTRAPOL          ICCEXT         DIIS        [  1]    ***   
       CC_GUESS             ICCGES         MP2         [  0]    ***   
       CC_MAXCYC            ICCCYC            100              cycles 
       CC_PROGRAM           ICCPRO         VCC         [  0]    ***   
       CHARGE               ICHRGE             -1               ***   
       CHOLESKY             ICHOLE         OFF         [  0]    ***   
       CIS_CONV             ICISTL              5               ***   
       COMM_SIZE            IPSIZE            ***               ***   
       CONSTANT             ICONST         OLD         [  1]    ***   
       CONTINUUM            ICONTU         NONE        [  0]    ***   
       CONTRACTION          ICNTYP         GENERAL     [  1]    ***   
       COORDINATES          ICOORD         CARTESIAN   [  1]    ***   
       CPHF_CONVER          ICPHFT          10D- 16             ***   
       CPHF_MAXCYC          ICPHFC             64              cycles 
       CUBIC                ICUBIC         OFF         [  0]    ***   
       CURVILINEAR          ICURVY         OFF         [  0]    ***   
       DBOC                 IDBOC          OFF         [  0]    ***   
       DCT                  IDCT           OFF         [  0]    ***   
       DERIV_LEV            IDRLVL         ZERO        [  0]    ***   
       DEVMEM_SIZE          IDVMEM         *********           MByte  
       DIAG_MRCC            IEOMST          10D-  0             ***   
       DIFF_TYPE            IDIFTY         RELAXED     [  0]    ***   
       DIRECT               IDIRCT         OFF         [  0]    ***   
       DROPMO               IDRPMO      NONE         
       ECP                  IECP           OFF         [  0]    ***   
       EIGENVECTOR          IVEC                1               ***   
       EL_ANHARM            IELANH         OFF         [  0]    ***   
       EOMFOLLOW            IEOMSR         ENERGY      [  0]    ***   
       EOMIP                IEOMIP         OFF         [  0]    ***   
       EOMLEVEL             HBARFM         SAME        [  0]    ***   
       EOM_MRCC             IMRCCE         NEW         [  1]    ***   
       EOM_NONIT            EOMNON         OFF         [  0]    ***   
       EOM_NSING            IEOMSI          10D-  0             ***   
       EOM_NSTATES          IMRCCD         DAVIDSON    [  0]    ***   
       EOM_NTRIP            IEOMTR          10D-  0             ***   
       EOM_ORDER            IEXORD         ENERGY      [  0]    ***   
       EOM_PROPSTA          IEOMST              0               ***   
       ESTATE_CONV          IEXTOL          10D-  5             ***   
       ESTATE_DIAG          IEXDIG         ITERATIVE   [  0]    ***   
       ESTATE_LOCK          IESLOC         ON          [  1]    ***   
       ESTATE_MAXC          IEXMXC             40               ***   
       ESTATE_PROP          IEXPRP         OFF         [  0]    ***   
       EVAL_HESS            IRECAL              0            # of cyc.
       EXCITATION           IEXCIT              0               ***   
       EXCITE               IEXCIT         NONE        [  0]    ***   
       EXTERN_POT           IEXPOT         OFF         [  0]    ***   
       FCGRADNEW            IFCGNW         OFF         [  0]    ***   
       FC_FIELD             IFINFC              0             x 10-6  
       FD_CALTYPE           IFDCAL         GRADONLY    [  0]    ***   
       FD_PROJECT           IFDPRJ         OFF         [  1]    ***   
       FD_STEPSIZE          IDISFD              0            10-4 bohr
       FD_USEGROUP          IFDGRP         FULL        [  0]    ***   
       FILE_RECSIZ          IFLREC              4096           words  
       FINITE_PERT          IFIPER              0             x 10-6  
       FIXGEOM              IFIXGM         OFF         [  0]    ***   
       FOCK                 IFOCK          AO          [  1]    ***   
       FREQ_ALGORI          IVIALG         STANDARD    [  0]    ***   
       FROZEN_CORE          IFROCO         OFF         [  0]    ***   
       GAMMA_ABCD           IGABCD         STORE       [  0]    ***   
       GAMMA_ABCI           IGABCI         STORE       [  0]    ***   
       GENBAS_1             IGNBS1              0               ***   
       GENBAS_2             IGNBS2              0               ***   
       GENBAS_3             IGNBS3              0               ***   
       GENBAS_4             IGNBS4              0               ***   
       GEO_CONV             ICONTL              5              H/bohr 
       GEO_MAXCYC           IOPTCY             50               ***   
       GEO_MAXSTEP          IMXSTP            300            millibohr
       GEO_METHOD           INR            SINGLE_POINT[  5]    ***   
       GIAO                 IGIAO          OFF         [  1]    ***   
       GIMIC                IGIMIC         OFF         [  0]    ***   
       GRID                 IGRID          OFF         [  0]    ***   
       GRID_ALGO            IGALGO         SERIAL      [  0]    ***   
       GUESS                IGUESS         MOREAD      [  0]    ***   
       HBAR                 IHBAR          OFF         [  0]    ***   
       HESS_TYPE            IHESTP         SCF         [  0]    ***   
       HF2_FILE             IHF2Fl         USE         [  1]    ***   
       HFSTABILITY          ISTABL         OFF         [  0]    ***   
       INCORE               INCORE         OFF         [  0]    ***   
       INPUT_MRCC           IMRCC          ON          [  1]    ***   
       INTEGRALS            INTTYP         VMOL        [  1]    ***   
       JODA_PRINT           IJPRNT              0               ***   
       KEYWORD_OUT          IDMPKW         NO          [  0]    ***   
       LINDEP_TOL           ILINDP              8               ***   
       LINEQ_CONV           IZTACN          10D-  7           cycles  
       LINEQ_EXPOR          ILMAXD              5               ***   
       LINEQ_MAXCY          ILMAXC            100               ***   
       LINEQ_TYPE           ILTYPE         DIIS        [  1]    ***   
       LOCK_ORBOCC          ILOCOC         OFF         [  0]    ***   
       MEMORY_SIZE          IMEMSZ         *********           words  
       MEM_UNIT             IMEMU          GB          [  3]    ***   
       MRCC                 IMRCCC         OFF         [  0]    ***   
       MULTIPLICTY          IMULTP              1               ***   
       NACOUPLING           IVCOUP         OFF         [  0]    ***   
       NEGEVAL              IDIE           ABORT       [  0]    ***   
       NEWNORM              INEWNO         OFF         [  0]    ***   
       NON-HF               INONHF         OFF         [  0]    ***   
       NTOP_TAMP            ITOPT2             15               ***   
       NUC_MODEL            INUCMO         POINT       [  0]    ***   
       OCCUPATION           IOCCU   ESTIMATED BY SCF 
       OPEN-SHELL           IOPEN          SPIN-ORBITAL[  0]    ***   
       OPTVIB               IOPTVB         OFF         [  0]    ***   
       ORBITALS             IORBTP         STANDARD    [  0]    ***   
       PARALLEL             IPARAL         ON          [  1]    ***   
       PARA_INT             IPINTS         ON          [  1]    ***   
       PARA_PRINT           IPPRIN              0               ***   
       PERT_ORB             IPTORB         STANDARD    [  0]    ***   
       POINTS               IGRDFD              0               ***   
       PRINT                IPRNT               0               ***   
       PROPS                IPROPS         OFF         [  0]    ***   
       PROP_INTEGR          IINTYP         INTERNAL    [  0]    ***   
       PSI                  IPSI           OFF         [  0]    ***   
       QC_ALG               IQCALG         FLM         [  0]    ***   
       QC_LINALG            IQCLIN         TRIDIAG     [  2]    ***   
       QC_MAXCYC            IQCMAX          10D-100           cycles  
       QC_MAXSCFCY          IQCMSC          10D- 15           cycles  
       QC_RTRUST            IQCRTR          10D-  0           x 10-3  
       QC_SKIPSCF           IQCSKI         OFF         [  0]    ***   
       QC_START             IQCSTA          10D-  1             ***   
       QRHFGUESS            IQGUES         OFF         [  0]    ***   
       QUARTIC              IQUART         OFF         [  0]    ***   
       RAMAN_INT            IRAMIN         OFF         [  0]    ***   
       RAMAN_ORB            IRAMRE         UNRELAXED   [  0]    ***   
       RDO                  IRDOFM         OFF         [  0]    ***   
       REDUCE_REPR          REDREP         Ir          [  0]    ***   
       REFERENCE            IREFNC         RHF         [  0]    ***   
       RELATIVIST           IRELAT         OFF         [  0]    ***   
       RELAX_DENS           IRDENS         OFF         [  0]    ***   
       RESET_FLAGS          IRESET         OFF         [  0]    ***   
       RESTART_CC           ICCRES         OFF         [  0]    ***   
       ROT_EVEC             ROTVEC              0               ***   
       SAVE_INTS            ISVINT         OFF         [  0]    ***   
       SCALE_ON             ISTCRT              0               ***   
       SCF_CONV             ISCFCV          10D-  7             ***   
       SCF_DAMPING          IDAMP               0             x 10-3  
       SCF_EXPORDE          IRPPOR              6               ***   
       SCF_EXPSTAR          IRPPLS              8               ***   
       SCF_EXTRAPO          IRPP           ON          [  1]    ***   
       SCF_MAXCYC           ISCFCY            150              cycles 
       SCF_NOSTOP           ISCFST         OFF         [  0]    ***   
       SCF_PRINT            ISCFPR              0               ***   
       SCF_PROG             ISCFPR         SCF         [  0]    ***   
       SD_FIELD             IFINSD              0             x 10-6  
       SOPERT               IPERSO         OFF         [  0]    ***   
       SPHERICAL            IDFGHI         ON          [  1]    ***   
       SPINORBIT            ISOCAL         OFF         [  0]    ***   
       SPINROTATIO          ISRCON         OFF         [  0]    ***   
       SPIN_FLIP            ISPFLP         OFF         [  0]    ***   
       SPIN_ORBIT           ISPORB         OFF         [  0]    ***   
       SPIN_SCAL            ISCSMP         OFF         [  0]    ***   
       STEEPSCALE           ISTPSC              1000          x 10-3  
       SUBGROUP             ISUBGP         DEFAULT     [  0]    ***   
       SUBGRPAXIS           ISBXYZ         X           [  0]    ***   
       SYMMETRY             ISYM           ON          [  0]    ***   
       SYM_CHECK            ISYMCK         OVERRIDE    [  1]    ***   
       T3_EXTRAPOL          IT3EXT         OFF         [  0]    ***   
       T4_EXTRAPOL          IT4EXP         OFF         [  0]    ***   
       TAMP_SUM             IEVERY              5               ***   
       TESTSUITE            ITESTS         OFF         [  0]    ***   
       THERMOCH             ITHERM         OFF         [  0]    ***   
       TOL_CHOLESK          ITOLCH          10D-  4             ***   
       TRANGRAD             IRESRM         OFF         [  0]    ***   
       TRANS_INV            ITRAIN         USE         [  0]    ***   
       TREAT_PERT           ITREAT         SIMULTANEOUS[  0]    ***   
       TRIP_ALGORI          ITRALG         NORMAL      [  0]    ***   
       UIJ_THRESHO          IUIJTH              1               ***   
       UNITS                IUNITS         ANGSTROM    [  0]    ***   
       UNOS                 IUNOS          OFF         [  0]    ***   
       UPDATE_HESS          IHUPDT         ON          [  1]    ***   
       VIBPHASE             ISETPH         STANDARD    [  0]    ***   
       VIBRATION            IVIB           NO          [  0]    ***   
       VIB_ALGORIT          IGEALG         STANDARD    [  0]    ***   
       VNATORB              IVNORB         OFF         [  0]    ***   
       VTRAN                IVTRAN         FULL/PARTIAL[  0]    ***   
       XFIELD               IXEFLD              0             x 10-6  
       XFORM_TOL            IXFTOL          10D- 11             ***   
       YFIELD               IYEFLD              0             x 10-6  
       ZFIELD               IZEFLD              0             x 10-6  
       ZSCALE_EXP           IZEXPS         OFF         [  0]    ***   
    -------------------------------------------------------------------
  @GETXYZ-I,     7 atoms read from ZMAT.
   Rotational constants (in cm-1): 
          0.1868636568             0.2163075720             0.8536890782
   Rotational constants (in MHz): 
       5602.0322826402          6484.7387781887         25592.9582983936
********************************************************************************
   The full molecular point group is C2v .
   The largest Abelian subgroup of the full molecular point group is C2v .
   The computational point group is C2v .
********************************************************************************


 ----------------------------------------------------------------
         Coordinates used in calculation (QCOMP) 
 ----------------------------------------------------------------
 Z-matrix   Atomic            Coordinates (in bohr)
  Symbol    Number           X              Y              Z
 ----------------------------------------------------------------
     C         6        -1.25572327     0.00000000    -0.57277046
     C         6         1.25572327     0.00000000    -0.57277046
     H         1        -2.19034422     1.81857454    -0.57277046
     H         1         2.19034422     1.81857454    -0.57277046
     H         1        -2.19034422    -1.81857454    -0.57277046
     H         1         2.19034422    -1.81857454    -0.57277046
     H         1         0.00000000     0.00000000    15.93084116
 ----------------------------------------------------------------
 
   Interatomic distance matrix (Angstroms) 
 
                 C             C             H             H             H    
                [ 1]        [ 2]        [ 3]        [ 4]        [ 5]
  C    [ 1]     0.00000
  C    [ 2]     1.32900     0.00000
  H    [ 3]     1.08200     2.06193     0.00000
  H    [ 4]     2.06193     1.08200     2.31816     0.00000
  H    [ 5]     1.08200     2.06193     1.92470     3.01303     0.00000
  H    [ 6]     2.06193     1.08200     3.01303     1.92470     2.31816
  H    [ 7]     8.75858     8.75858     8.86232     8.86232     8.86232
 
                 H             H    
                [ 6]        [ 7]
  H    [ 6]     0.00000
  H    [ 7]     8.86232     0.00000
 rotcon2
   Rotational constants (in cm-1): 
          0.2163075720             0.1868636568             0.8536890782
   Rotational constants (in MHz): 
       6484.7387781887          5602.0322826402         25592.9582983936
  ECPDATA file not present.   Using default ECPDATA. 
  @GTFLGS-W, Keyword #EXCITE not known and is ignored.
  @GTFLGS-W, Keyword #ESTATE_SYM not known and is ignored.
  There are  139 basis functions.
 @GEOPT-W, Archive file not created for single-point calculation.
 @CHECKOUT-I, Total execution time (CPU/WALL):        0.15/       0.17 seconds.
--executable xjoda finished with status     0 in        0.19 seconds (walltime).
 --invoking executable--
/home/tsommerfeld/zscale/bin/xvmol
 SERIAL VERSION OF MOLECULE STARTED
********************************************************************************
                    INPUT FROM MOL FILE
********************************************************************************
INTGRL        1    0    1    0    0    0    0    0    0                         
         *** CFOUR Program System (Release V0.1) ***                            
h_ethylene                                                                      
    3    2 X  Y       0.10E-08              0    0                              
   9999.00      3.00                                                            
          6.00000000    1    4    1    1    1    1                              
C #1  -1.255723272983657   0.000000000000000  -0.572770455449352                
   10    4                                                                      
   8236.00000000000       5.310000000000000E-004  0.000000000000000E+000        
 -1.130000000000000E-004  0.000000000000000E+000                                
   1235.00000000000       4.108000000000000E-003  0.000000000000000E+000        
 -8.780000000000000E-004  0.000000000000000E+000                                
   280.800000000000       2.108700000000000E-002  0.000000000000000E+000        
 -4.540000000000000E-003  0.000000000000000E+000                                
   79.2700000000000       8.185300000000000E-002  0.000000000000000E+000        
 -1.813300000000000E-002  0.000000000000000E+000                                
   25.5900000000000       0.234817000000000       0.000000000000000E+000        
 -5.576000000000000E-002  0.000000000000000E+000                                
   8.99700000000000       0.434401000000000       0.000000000000000E+000        
 -0.126895000000000       0.000000000000000E+000                                
   3.31900000000000       0.346129000000000       0.000000000000000E+000        
 -0.170352000000000       0.000000000000000E+000                                
  0.905900000000000       3.937800000000000E-002   1.00000000000000             
  0.140382000000000       0.000000000000000E+000                                
  0.364300000000000      -8.983000000000000E-003  0.000000000000000E+000        
  0.598684000000000       0.000000000000000E+000                                
  0.128500000000000       2.385000000000000E-003  0.000000000000000E+000        
  0.395389000000000        1.00000000000000                                     
    5    3                                                                      
   18.7100000000000       0.000000000000000E+000  1.403100000000000E-002        
  0.000000000000000E+000                                                        
   4.13300000000000       0.000000000000000E+000  8.686600000000000E-002        
  0.000000000000000E+000                                                        
   1.20000000000000       0.000000000000000E+000  0.290216000000000             
  0.000000000000000E+000                                                        
  0.382700000000000        1.00000000000000       0.501008000000000             
  0.000000000000000E+000                                                        
  0.120900000000000       0.000000000000000E+000  0.343406000000000             
   1.00000000000000                                                             
    2    2                                                                      
   1.09700000000000        1.00000000000000       0.000000000000000E+000        
  0.318000000000000       0.000000000000000E+000   1.00000000000000             
    1    1                                                                      
  0.761000000000000        1.00000000000000                                     
          1.00000000    1    3    1    1    1                                   
H #2  -2.190344215575466   1.818574537711477  -0.572770455449352                
    5    3                                                                      
   33.8700000000000       0.000000000000000E+000  6.068000000000000E-003        
  0.000000000000000E+000                                                        
   5.09500000000000       0.000000000000000E+000  4.530800000000000E-002        
  0.000000000000000E+000                                                        
   1.15900000000000       0.000000000000000E+000  0.202822000000000             
  0.000000000000000E+000                                                        
  0.325800000000000        1.00000000000000       0.503903000000000             
  0.000000000000000E+000                                                        
  0.102700000000000       0.000000000000000E+000  0.383421000000000             
   1.00000000000000                                                             
    2    2                                                                      
   1.40700000000000        1.00000000000000       0.000000000000000E+000        
  0.388000000000000       0.000000000000000E+000   1.00000000000000             
    1    1                                                                      
   1.05700000000000        1.00000000000000                                     
          1.00000000    1    3    1    1    1                                   
H #3   0.000000000000000   0.000000000000000  15.930841158381511                
    6    4                                                                      
   33.8700000000000       0.000000000000000E+000  6.068000000000000E-003        
  0.000000000000000E+000  0.000000000000000E+000                                
   5.09500000000000       0.000000000000000E+000  4.530800000000000E-002        
  0.000000000000000E+000  0.000000000000000E+000                                
   1.15900000000000       0.000000000000000E+000  0.202822000000000             
  0.000000000000000E+000  0.000000000000000E+000                                
  0.325800000000000        1.00000000000000       0.503903000000000             
  0.000000000000000E+000  0.000000000000000E+000                                
  0.102700000000000       0.000000000000000E+000  0.383421000000000             
   1.00000000000000       0.000000000000000E+000                                
  2.526000000000000E-002  0.000000000000000E+000  0.000000000000000E+000        
  0.000000000000000E+000   1.00000000000000                                     
    3    3                                                                      
   1.40700000000000        1.00000000000000       0.000000000000000E+000        
  0.000000000000000E+000                                                        
  0.388000000000000       0.000000000000000E+000   1.00000000000000             
  0.000000000000000E+000                                                        
  0.102000000000000       0.000000000000000E+000  0.000000000000000E+000        
   1.00000000000000                                                             
    2    2                                                                      
   1.05700000000000        1.00000000000000       0.000000000000000E+000        
  0.247000000000000       0.000000000000000E+000   1.00000000000000             
FINISH                                                                          
 
********************************************************************************
 ONE- AND TWO-ELECTRON INTEGRALS OVER SYMMETRY-ADAPTED AOS ARE CALCULATED.

  SPHERICAL HARMONICS ARE USED.
  
  INTEGRALS LESS THAN  0.10E-13 ARE NEGLECTED.

  NUCLEAR REPULSION ENERGY :   34.5530770599 A.U.
  @MOLECU-I, ONE ELECTRON INTEGRALS (CPU/WALL):        0.04/       0.04 SECONDS.
  @TWOEL-I,     447562 INTEGRALS OF SYMMETRY TYPE  I I I I
  @TWOEL-I,    1842033 INTEGRALS OF SYMMETRY TYPE  I J I J
  @TWOEL-I,    1068217 INTEGRALS OF SYMMETRY TYPE  I I J J
  @TWOEL-I,    1608546 INTEGRALS OF SYMMETRY TYPE  I J K L
  @TWOEL-I, TOTAL NUMBER OF 2-E INTEGRALS    4966358.
  @MOLECU-I, TWO ELECTRON INTEGRALS (CPU/WALL):       31.78/       3.65 SECONDS.
 @CHECKOUT-I, Total execution time (CPU/WALL):       31.84/       3.70 seconds.

Running with 12 threads/proc

--executable xvmol finished with status     0 in        3.73 seconds (walltime).
 --invoking executable--
/home/tsommerfeld/zscale/bin/xvmol2ja
 @GETMEM-I,  Allocated   85830 MB of main memory.
 @CHECKOUT-I, Total execution time (CPU/WALL):        0.11/       0.02 seconds.
--executable xvmol2ja finished with status     0 in        0.04 seconds (walltime).
 --invoking executable--
/home/tsommerfeld/zscale/bin/xvscf
  There are  139 functions in the AO basis.

  There are 4 irreducible representations.

       Irrep        # of functions
         1                 45
         2                 39
         3                 29
         4                 26


  Parameters for SCF calculation: 
        SCF reference function:  RHF  
  Maximum number of iterations:  150
     Full symmetry point group: C2v 
     Computational point group: C2v 
        Initial density matrix: MOREAD                 
     SCF convergence tolerance: 10**(- 7)
  DIIS convergence acceleration:  ON
          Latest start for DIIS:   8
                     DIIS order:   6

  Memory information:     823082 words required.
  Fock matrices are constructed from AO integral file.
 @GETMEM-I,  Allocated       6 MB of main memory.
  Initialization and symmetry analysis required      0.001 seconds.

  @INITGES-I, Occupancies from core Hamiltonian:

          Alpha population by irrep:   4    3    1    1
           Beta population by irrep:   4    3    1    1


 total no. of electrons in initial guess :  0.000000000000000E+000
  --------------------------------------------------------------------
  Iteration         Total Energy            Largest Density Difference
  --------------------------------------------------------------------
       0            34.553077059906855              0.0000000000D+00
   current occupation vector 
     4  3  1  1
     4  3  1  1
       1           -51.691969477518001              0.8749618646D+01
   current occupation vector 
     4  3  1  1
     4  3  1  1
       2           -40.823167847721905              0.3170224882D+02
   current occupation vector 
     5  3  1  0
     5  3  1  0
       3           -67.967422560703326              0.3144035403D+02
   current occupation vector 
     4  3  1  1
     4  3  1  1
       4           -42.905694385514067              0.1243469830D+02
   current occupation vector 
     6  2  1  0
     6  2  1  0
       5           -68.626497199589636              0.1243469830D+02
   current occupation vector 
     4  3  1  1
     4  3  1  1
       6           -43.183686383403767              0.1243466624D+02
   current occupation vector 
     6  2  1  0
     6  2  1  0
       7           -68.718498663848450              0.1243466624D+02
   current occupation vector 
     4  3  1  1
     4  3  1  1
       8           -43.221030393080724              0.1243466146D+02
   current occupation vector 
     6  2  1  0
     6  2  1  0
       9           -73.512068020780447              0.1243466152D+02
   current occupation vector 
     4  3  1  1
     4  3  1  1
      10           -75.757414641421349              0.9168712884D+00
   current occupation vector 
     4  3  1  1
     4  3  1  1
      11           -77.540858834060842              0.9023833154D+00
   current occupation vector 
     4  3  1  1
     4  3  1  1
      12           -76.514885454476783              0.2837761796D+01
   current occupation vector 
     5  2  1  1
     5  2  1  1
      13           -78.379528338683315              0.2828073705D+01
   current occupation vector 
     5  2  1  1
     5  2  1  1
      14           -78.422107664512225              0.2669554238D+00
   current occupation vector 
     5  2  1  1
     5  2  1  1
      15           -78.479843292655488              0.2478983314D+00
   current occupation vector 
     5  2  1  1
     5  2  1  1
      16           -78.545101012232507              0.3699440536D+00
   current occupation vector 
     5  2  1  1
     5  2  1  1
      17           -78.546756347867756              0.7598603867D-01
   current occupation vector 
     5  2  1  1
     5  2  1  1
      18           -78.546815682283835              0.2056726263D-01
   current occupation vector 
     5  2  1  1
     5  2  1  1
      19           -78.546815712663687              0.2049176103D-03
   current occupation vector 
     5  2  1  1
     5  2  1  1
      20           -78.546815714651075              0.6272050388D-04
   current occupation vector 
     5  2  1  1
     5  2  1  1
      21           -78.546815714808631              0.1395687803D-04
   current occupation vector 
     5  2  1  1
     5  2  1  1
      22           -78.546815714813519              0.1863016195D-05
   current occupation vector 
     5  2  1  1
     5  2  1  1
      23           -78.546815714813391              0.5422076486D-06
   current occupation vector 
     5  2  1  1
     5  2  1  1
      24           -78.546815714813675              0.1754882378D-06
   current occupation vector 
     5  2  1  1
     5  2  1  1

  SCF has converged.

 Density matrix saved to file den.dat
 total electron number:   18.0000000000000     
     E(SCF)=       -78.546815714813192              0.1266294283D-07


  Final occupancies:

     Alpha population by irrep:   5    2    1    1
      Beta population by irrep:   5    2    1    1


  Eigenvector printing suppressed.

 @PUTMOS-I, Writing converged MOs to NEWMOS. 
 @PUTMOS-I, Symmetry   1 Full Blocks 11 Partial Blocksize   1
 @PUTMOS-I, Symmetry   2 Full Blocks  9 Partial Blocksize   3
 @PUTMOS-I, Symmetry   3 Full Blocks  7 Partial Blocksize   1
 @PUTMOS-I, Symmetry   4 Full Blocks  6 Partial Blocksize   2
 @PUTFOCK-I, Writing converged Fock matrix to NEWFOCK. 
 @PUTFOCK-I, Symmetry   1 Full Blocks 11 Partial Blocksize   1
 @PUTFOCK-I, Symmetry   2 Full Blocks  9 Partial Blocksize   3
 @PUTFOCK-I, Symmetry   3 Full Blocks  7 Partial Blocksize   1
 @PUTFOCK-I, Symmetry   4 Full Blocks  6 Partial Blocksize   2


 
  ORBITAL EIGENVALUES (ALPHA)  (1H = 27.2113834 eV)

       MO #        E(hartree)               E(eV)           FULLSYM    COMPSYM
       ----   --------------------   --------------------   -------   ---------
    1     1         -11.1659837309        -303.8418643404      A1        A1 (1)
    2    46         -11.1642197053        -303.7938627630      B1        B1 (2)
    3     2          -0.9777110600         -26.6048705093      A1        A1 (1)
    4    47          -0.7197926265         -19.5865531288      B1        B1 (2)
    5    85          -0.5991002556         -16.3023467504      B2        B2 (3)
    6     3          -0.5061406012         -13.7727859523      A1        A1 (1)
    7   114          -0.4546857264         -12.3726276263      A2        A2 (4)
    8     4          -0.3162758948          -8.6063046341      A1        A1 (1)
    9     5          -0.0453526224          -1.2341075950      A1        A1 (1)
  +++++++++++++++++++++++++++++++++++++++++++++++++++++++++++++++++++++++++++++
   10    48           0.2151569912           5.8547193778      B1        B1 (2)
   11     6           0.2168899770           5.9018763187      A1        A1 (1)
   12     7           0.2425056525           6.5989142874      A1        A1 (1)
   13    86           0.2442457178           6.6462638705      B2        B2 (3)
   14    49           0.2517766441           6.8511907935      B1        B1 (2)
   15   115           0.2983654237           8.1189359389      A2        A2 (4)
   16    50           0.4145548842          11.2806118941      B1        B1 (2)
   17     8           0.4200347911          11.4297277407      A1        A1 (1)
   18    87           0.4495803861          12.2337042550      E         B2 (3)
   19    51           0.4495844210          12.2338140518      E         B1 (2)
   20     9           0.4496615083          12.2359117021      A1        A1 (1)
   21    10           0.5071979263          13.8015572319      A1        A1 (1)
   22    88           0.5316602402          14.4672106352      B2        B2 (3)
   23    11           0.5404557159          14.7065476949      A1        A1 (1)
   24    52           0.6257415013          17.0272919003      B1        B1 (2)
   25    53           0.6496691363          17.6783959501      B1        B1 (2)
   26    89           0.6566103284          17.8672753903      B2        B2 (3)
   27    12           0.6854997039          18.6533952641      A1        A1 (1)
   28    54           0.6991833429          19.0257460109      B1        B1 (2)
   29    90           0.7276703362          19.8009165063      B2        B2 (3)
   30   116           0.7536275177          20.5072473262      A2        A2 (4)
   31    13           0.7832096330          21.3122176056      A1        A1 (1)
   32    55           0.8451085410          22.9965725249      B1        B1 (2)
   33   117           0.8886522246          24.1814563926      A2        A2 (4)
   34    14           0.9566049485          26.0305440162      A1        A1 (1)
   35   118           0.9642388054          26.2382718219      A2        A2 (4)
   36    15           1.0461995338          28.4685366270      A1        A1 (1)
   37   119           1.0815325093          29.4299957708      A2        A2 (4)
   38    91           1.0974900635          29.8642228953      B2        B2 (3)
   39    16           1.1022923706          29.9949003157      E         A1 (1)
   40   120           1.1022923757          29.9949004538      E         A2 (4)
   41    92           1.1023192306          29.9956312143      E         B2 (3)
   42    56           1.1023208773          29.9956760230      E         B1 (2)
   43    17           1.1023327897          29.9960001746      A1        A1 (1)
   44    18           1.2423623221          33.8063974684      A1        A1 (1)
   45    57           1.2428500662          33.8196696599      B1        B1 (2)
   46    19           1.2892424358          35.0820702153      A1        A1 (1)
   47    93           1.3146269388          35.7728176598      B2        B2 (3)
   48    94           1.3385820522          36.4246694351      E         B2 (3)
   49    58           1.3385836049          36.4247116855      E         B1 (2)
   50    20           1.3386132738          36.4255190181      A1        A1 (1)
   51    59           1.3818421437          37.6018363703      B1        B1 (2)
   52    95           1.4053698530          38.2420578884      B2        B2 (3)
   53    60           1.4244657717          38.7616842532      B1        B1 (2)
   54    96           1.5237040709          41.4620956626      B2        B2 (3)
   55    61           1.5382716070          41.8584984704      B1        B1 (2)
   56    21           1.5674860272          42.6534632616      A1        A1 (1)
   57    62           1.5930544147          43.3492144558      B1        B1 (2)
   58   121           1.6574359983          45.1011264108      A2        A2 (4)
   59   122           1.6963843982          46.1609662526      A2        A2 (4)
   60    63           1.8601474034          50.6171841749      B1        B1 (2)
   61    22           1.9122246438          52.0342779285      A1        A1 (1)
   62   123           2.0305697485          55.2546119468      A2        A2 (4)
   63    23           2.3465686046          63.8533779749      A1        A1 (1)
   64    24           2.4248192787          65.9826870676      A1        A1 (1)
   65    25           2.6082493788          70.9740738487      A1        A1 (1)
   66    64           2.6249332525          71.4280651318      B1        B1 (2)
   67    97           2.6841562642          73.0396052109      B2        B2 (3)
   68    98           2.7691436239          75.3522288400      B2        B2 (3)
   69    65           2.8014731667          76.2319604233      B1        B1 (2)
   70    26           2.8220424862          76.7916800628      A1        A1 (1)
   71   124           2.9019141393          78.9650982374      A2        A2 (4)
   72    99           2.9763527146          80.9906748496      B2        B2 (3)
   73    27           2.9768832188          81.0051106048      A1        A1 (1)
   74   125           3.1250311007          85.0364194180      A2        A2 (4)
   75    28           3.1569574839          85.9051804712      A1        A1 (1)
   76   100           3.1671649237          86.1829390310      B2        B2 (3)
   77    29           3.1693424472          86.2421924576      A1        A1 (1)
   78   101           3.1813559457          86.5690963710      B2        B2 (3)
   79   126           3.2135552300          87.4452834416      A2        A2 (4)
   80    30           3.2390268642          88.1384018458      A1        A1 (1)
   81    66           3.2893158847          89.5068356632      B1        B1 (2)
   82    67           3.3267095677          90.5243695058      B1        B1 (2)
   83   102           3.3983360153          92.4734242349      B2        B2 (3)
   84    68           3.4625903222          94.2218728156      B1        B1 (2)
   85    69           3.4863369386          94.8680510971      B1        B1 (2)
   86   127           3.4869974862          94.8860255114      A2        A2 (4)
   87   128           3.5080548297          95.4590249602      A2        A2 (4)
   88    70           3.5140118255          95.6211230567      B1        B1 (2)
   89    31           3.6109836318          98.2598600558      A1        A1 (1)
   90    32           3.6366900276          98.9593666472      A1        A1 (1)
   91   103           3.7022795459         100.7441481764      B2        B2 (3)
   92   104           3.7831301576         102.9442051693      B2        B2 (3)
   93   129           3.8765238639         105.4855771197      A2        A2 (4)
   94    71           3.9367419707         107.1241951112      B1        B1 (2)
   95   130           3.9725841010         108.0995090600      A2        A2 (4)
   96    72           4.0290294891         109.6354661565      B1        B1 (2)
   97   131           4.0375891851         109.8683873265      A2        A2 (4)
   98    33           4.0675334540         110.6832123091      A1        A1 (1)
   99   105           4.0722764947         110.8122770076      B2        B2 (3)
  100    34           4.1177038694         112.0484187176      A1        A1 (1)
  101    35           4.2163694347         114.7332452435                A1 (1)
  102   132           4.2163694369         114.7332453043                A2 (4)
  103   106           4.2163759291         114.7334219643                B2 (3)
  104    73           4.2163763078         114.7334322714                B1 (2)
  105    36           4.2163789160         114.7335032419                A1 (1)
  106    74           4.2451732725         115.5170375178      B1        B1 (2)
  107   133           4.2520698870         115.7047039398      A2        A2 (4)
  108    37           4.2533122491         115.7385103294      A1        A1 (1)
  109   107           4.2628372101         115.9976976953      B2        B2 (3)
  110    38           4.3901170333         119.4611577642      A1        A1 (1)
  111    75           4.4109638497         120.0284284782      B1        B1 (2)
  112   108           4.4444492094         120.9396114379                B2 (3)
  113    76           4.4444496585         120.9396236586                B1 (2)
  114    39           4.4444582427         120.9398572482                A1 (1)
  115   109           4.5304255245         123.2791459114      B2        B2 (3)
  116    77           4.5665470308         124.2620620686      B1        B1 (2)
  117   134           4.6671554957         126.9997575798      A2        A2 (4)
  118    40           4.7020757776         127.9499867595      A1        A1 (1)
  119    78           4.8184953894         131.1179254508      B1        B1 (2)
  120    79           4.8742167650         132.6341811665      B1        B1 (2)
  121    41           4.9888255383         135.7528444393      A1        A1 (1)
  122    42           5.0347596576         137.0027753696      A1        A1 (1)
  123   135           5.0886038918         138.4679514709      A2        A2 (4)
  124   110           5.1879268712         141.1706671442      B2        B2 (3)
  125   111           5.2774052847         143.6054985603      B2        B2 (3)
  126    43           5.3599192676         145.8508181831      A1        A1 (1)
  127    80           5.3651960548         145.9944068643      B1        B1 (2)
  128   136           5.4874789350         149.3218931988      A2        A2 (4)
  129   137           5.5029720363         149.7434819179      A2        A2 (4)
  130    81           5.5981480938         152.3333541100      B1        B1 (2)
  131    44           5.6234877543         153.0228813280      A1        A1 (1)
  132   112           5.6780928160         154.5087605977      B2        B2 (3)
  133    82           6.0176381671         163.7482593271      B1        B1 (2)
  134   138           6.1534821003         167.4447606755      A2        A2 (4)
  135   113           6.3312530588         172.2821543861      B2        B2 (3)
  136    83           6.5705539465         178.7938625874      B1        B1 (2)
  137   139           6.9340249463         188.6844113185      A2        A2 (4)
  138    45          11.9575655846         325.3819016531      A1        A1 (1)
  139    84          14.8099018555         402.9979175064      B1        B1 (2)


  VSCF finished.

 @CHECKOUT-I, Total execution time (CPU/WALL):       15.23/       1.28 seconds.
--executable xvscf finished with status     0 in        1.30 seconds (walltime).
 --invoking executable--
/home/tsommerfeld/zscale/bin/xvtran
 @GETMEM-I,  Allocated   85830 MB of main memory.
  Full RHF integral transformation
  Transformation of IIII integrals :
  1 pass through the AO integral file was required.
      447562 AO integrals were read.
      996915 MO integrals were written to HF2.
  Transformation of IIJJ integrals :
  1 pass through the AO integral file was required.
     1068217 AO integrals were read.
     2385785 MO integrals were written to HF2.
  Transformation of IJIJ integrals :
  1 pass through the AO integral file was required.
     1842033 AO integrals were read.
     4515698 MO integrals were written to HF2.
  Transformation of IJKL integrals :
  1 pass through the AO integral file was required.
     1608546 AO integrals were read.
     3967779 MO integrals were written to HF2.
  Summary of active molecular orbitals: 
------------------------------------------------------------------------
 
  Index      Eigenvalue    Symmetry    Index      Eigenvalue    Symmetry
------------------------------------------------------------------------
     1       -11.1659837        1        71         3.4863369        2
     2        -0.9777111        1        72         3.5140118        2
     3        -0.5061406        1        73         3.9367420        2
     4        -0.3162759        1        74         4.0290295        2
     5        -0.0453526        1        75         4.2163763        2
     6       -11.1642197        2        76         4.2451733        2
     7        -0.7197926        2        77         4.4109638        2
     8        -0.5991003        3        78         4.4444497        2
     9        -0.4546857        4        79         4.5665470        2
    10         0.2168900        1        80         4.8184954        2
    11         0.2425057        1        81         4.8742168        2
    12         0.4200348        1        82         5.3651961        2
    13         0.4496615        1        83         5.5981481        2
    14         0.5071979        1        84         6.0176382        2
    15         0.5404557        1        85         6.5705539        2
    16         0.6854997        1        86        14.8099019        2
    17         0.7832096        1        87         0.2442457        3
    18         0.9566049        1        88         0.4495804        3
    19         1.0461995        1        89         0.5316602        3
    20         1.1022924        1        90         0.6566103        3
    21         1.1023328        1        91         0.7276703        3
    22         1.2423623        1        92         1.0974901        3
    23         1.2892424        1        93         1.1023192        3
    24         1.3386133        1        94         1.3146269        3
    25         1.5674860        1        95         1.3385821        3
    26         1.9122246        1        96         1.4053699        3
    27         2.3465686        1        97         1.5237041        3
    28         2.4248193        1        98         2.6841563        3
    29         2.6082494        1        99         2.7691436        3
    30         2.8220425        1       100         2.9763527        3
    31         2.9768832        1       101         3.1671649        3
    32         3.1569575        1       102         3.1813559        3
    33         3.1693424        1       103         3.3983360        3
    34         3.2390269        1       104         3.7022795        3
    35         3.6109836        1       105         3.7831302        3
    36         3.6366900        1       106         4.0722765        3
    37         4.0675335        1       107         4.2163759        3
    38         4.1177039        1       108         4.2628372        3
    39         4.2163694        1       109         4.4444492        3
    40         4.2163789        1       110         4.5304255        3
    41         4.2533122        1       111         5.1879269        3
    42         4.3901170        1       112         5.2774053        3
    43         4.4444582        1       113         5.6780928        3
    44         4.7020758        1       114         6.3312531        3
    45         4.9888255        1       115         0.2983654        4
    46         5.0347597        1       116         0.7536275        4
    47         5.3599193        1       117         0.8886522        4
    48         5.6234878        1       118         0.9642388        4
    49        11.9575656        1       119         1.0815325        4
    50         0.2151570        2       120         1.1022924        4
    51         0.2517766        2       121         1.6574360        4
    52         0.4145549        2       122         1.6963844        4
    53         0.4495844        2       123         2.0305697        4
    54         0.6257415        2       124         2.9019141        4
    55         0.6496691        2       125         3.1250311        4
    56         0.6991833        2       126         3.2135552        4
    57         0.8451085        2       127         3.4869975        4
    58         1.1023209        2       128         3.5080548        4
    59         1.2428501        2       129         3.8765239        4
    60         1.3385836        2       130         3.9725841        4
    61         1.3818421        2       131         4.0375892        4
    62         1.4244658        2       132         4.2163694        4
    63         1.5382716        2       133         4.2520699        4
    64         1.5930544        2       134         4.6671555        4
    65         1.8601474        2       135         5.0886039        4
    66         2.6249333        2       136         5.4874789        4
    67         2.8014732        2       137         5.5029720        4
    68         3.2893159        2       138         6.1534821        4
    69         3.3267096        2       139         6.9340249        4
    70         3.4625903        2
------------------------------------------------------------------------
  -11.1659837309263      -0.977711060045803      -0.506140601152619     
 -0.316275894820640      -4.535262235137309E-002  -11.1642197053087     
 -0.719792626521214      -0.599100255607229      -0.454685726351262     
  0.216889976961484       0.242505652519257       0.420034791053065     
  0.449661508281012       0.507197926287101       0.540455715855788     
  0.685499703923788       0.783209632981295       0.956604948507221     
   1.04619953379348        1.10229237061468        1.10233278968702     
   1.24236232210117        1.28924243576895        1.33861327381375     
   1.56748602724855        1.91222464376691        2.34656860462781     
   2.42481927866899        2.60824937877615        2.82204248618894     
   2.97688321883728        3.15695748387498        3.16934244723643     
   3.23902686424419        3.61098363179168        3.63669002757165     
   4.06753345399785        4.11770386938759        4.21636943469564     
   4.21637891596264        4.25331224907231        4.39011703330650     
   4.44445824272988        4.70207577757531        4.98882553833207     
   5.03475965759420        5.35991926757749        5.62348775432092     
   11.9575655845977       0.215156991164528       0.251776644089611     
  0.414554884191907       0.449584421049143       0.625741501267312     
  0.649669136267861       0.699183342911317       0.845108541041711     
   1.10232087733462        1.24285006619492        1.33858360488685     
   1.38184214369276        1.42446577167331        1.53827160696304     
   1.59305441471253        1.86014740341767        2.62493325245028     
   2.80147316667883        3.28931588473301        3.32670956765277     
   3.46259032223814        3.48633693857481        3.51401182553103     
   3.93674197068561        4.02902948905334        4.21637630784252     
   4.24517327251490        4.41096384971868        4.44444965846979     
   4.56654703077841        4.81849538935098        4.87421676497799     
   5.36519605483415        5.59814809378722        6.01763816708678     
   6.57055394645658        14.8099018555019       0.244245717787215     
  0.449580386090164       0.531660240219713       0.656610328393463     
  0.727670336169474        1.09749006348928        1.10231923064414     
   1.31462693880379        1.33858205221369        1.40536985298606     
   1.52370407094389        2.68415626420968        2.76914362391294     
   2.97635271456148        3.16716492374121        3.18135594572709     
   3.39833601532030        3.70227954586113        3.78313015755367     
   4.07227649468303        4.21637592906461        4.26283721008123     
   4.44444920936790        4.53042552446764        5.18792687123079     
   5.27740528474173        5.67809281602817        6.33125305882511     
  0.298365423746408       0.753627517746195       0.888652224591443     
  0.964238805361985        1.08153250932635        1.10229237569125     
   1.65743599830535        1.69638439817876        2.03056974849867     
   2.90191413926459        3.12503110069900        3.21355523003484     
   3.48699748618278        3.50805482973832        3.87652386389662     
   3.97258410095981        4.03758918506531        4.21636943692820     
   4.25206988703733        4.66715549565935        5.08860389181584     
   5.48747893496640        5.50297203625182        6.15348210027151     
   6.93402494628584     
 @CHECKOUT-I, Total execution time (CPU/WALL):       16.21/       1.86 seconds.
--executable xvtran finished with status     0 in        1.88 seconds (walltime).
 --invoking executable--
/home/tsommerfeld/zscale/bin/xintprc
 @GETMEM-I,  Allocated   85830 MB of main memory.
  @GMOIAA-I, Processing MO integrals for spin case AA.
  @GMOIAA-I, Generation of integral list completed.
                      TYPE                NUMBER
                      ----               --------
                      PPPP               9080507
                      PPPH               2500500
                      PPHH                173498
                      PHPH                 97627
                      PHHH                 13713
                      HHHH                   332

                     TOTAL              11866177

  @FORMT2-I, Second-order MP correlation energies:
            ------------------------------------------------
            E(SCF)                  =    -78.546815714813 a.u.
            E2(AA)                  =     -0.037951232449 a.u.
            E2(AB)                  =     -0.319239855728 a.u.
            E2(TOT)                 =     -0.395142320626 a.u.
            Total MP2 energy        =    -78.941958035439 a.u.
            ------------------------------------------------
   Largest T2 amplitudes for spin case AB:
       _       _                 _       _                 _       _
   i   j   a   b             i   j   a   b             i   j   a   b
-----------------------------------------------------------------------------
[  4   4  50  50]-0.08269 [  5   5  11  11]-0.08195 [  5   5  17  17]-0.04762
[  5   5  17  11] 0.04314 [  5   5  11  17] 0.04314 [  5   5  88  88]-0.04090
[  5   5  53  53]-0.04090 [  5   5  13  13]-0.04089 [  4   4  54  50]-0.03706
[  4   4  50  54]-0.03706 [  4   4  14  14]-0.03056 [  4   4  15  15]-0.02689
[  4   4  54  54]-0.02652 [  4   3  50  57] 0.02650 [  3   4  57  50] 0.02650
-----------------------------------------------------------------------------
   Norm of T2AB vector (   345906 symmetry allowed elements):  0.3321499648.
-----------------------------------------------------------------------------
 @CHECKOUT-I, Total execution time (CPU/WALL):        5.02/       2.69 seconds.
--executable xintprc finished with status     0 in        2.72 seconds (walltime).
  calling xvcc 
 --invoking executable--
/home/tsommerfeld/zscale/bin/xvcc
 @GETMEM-I,  Allocated   85830 MB of main memory.
   CCSD(T) energy will be calculated.
   The total correlation energy is -0.395142320626 a.u.
   The total correlation energy is -0.415040967446 a.u.
  Convergence information after     1 iterations: 
  Largest element of residual vector : -0.28752415E-01.
  Largest element of DIIS residual   : -0.28752415E-01.
   The total correlation energy is -0.426201144976 a.u.
  Convergence information after     2 iterations: 
  Largest element of residual vector : -0.13396237E-01.
  Largest element of DIIS residual   : -0.10650868E-01.
   The total correlation energy is -0.429103483965 a.u.
  Convergence information after     3 iterations: 
  Largest element of residual vector : -0.71534174E-02.
  Largest element of DIIS residual   : -0.58514849E-02.
   The total correlation energy is -0.430726390560 a.u.
  Convergence information after     4 iterations: 
  Largest element of residual vector : -0.35141345E-02.
  Largest element of DIIS residual   : -0.21058095E-02.
   The total correlation energy is -0.430899693078 a.u.
  Convergence information after     5 iterations: 
  Largest element of residual vector : -0.10409682E-02.
  Largest element of DIIS residual   : -0.38374934E-03.
   The total correlation energy is -0.430904821334 a.u.
  Convergence information after     6 iterations: 
  Largest element of residual vector :  0.24395155E-03.
  Largest element of DIIS residual   :  0.18595778E-03.
   The total correlation energy is -0.430895351759 a.u.
  Convergence information after     7 iterations: 
  Largest element of residual vector :  0.82216606E-04.
  Largest element of DIIS residual   : -0.42041422E-04.
   The total correlation energy is -0.430892890030 a.u.
  Convergence information after     8 iterations: 
  Largest element of residual vector : -0.35543593E-04.
  Largest element of DIIS residual   : -0.25506529E-04.
   The total correlation energy is -0.430892692937 a.u.
  Convergence information after     9 iterations: 
  Largest element of residual vector :  0.31594773E-04.
  Largest element of DIIS residual   : -0.77053315E-05.
   The total correlation energy is -0.430892765862 a.u.
  Convergence information after    10 iterations: 
  Largest element of residual vector : -0.79919817E-05.
  Largest element of DIIS residual   : -0.39308459E-05.
   The total correlation energy is -0.430893136617 a.u.
  Convergence information after    11 iterations: 
  Largest element of residual vector :  0.42477343E-05.
  Largest element of DIIS residual   : -0.23071247E-05.
   The total correlation energy is -0.430893260094 a.u.
  Convergence information after    12 iterations: 
  Largest element of residual vector : -0.17672634E-05.
  Largest element of DIIS residual   : -0.10755905E-05.
   The total correlation energy is -0.430893482763 a.u.
  Convergence information after    13 iterations: 
  Largest element of residual vector : -0.75126837E-06.
  Largest element of DIIS residual   : -0.43796154E-06.
   The total correlation energy is -0.430893555800 a.u.
  Convergence information after    14 iterations: 
  Largest element of residual vector : -0.30312338E-06.
  Largest element of DIIS residual   : -0.24629856E-06.
   The total correlation energy is -0.430893576909 a.u.
  Convergence information after    15 iterations: 
  Largest element of residual vector :  0.21579861E-06.
  Largest element of DIIS residual   : -0.11784844E-06.
   The total correlation energy is -0.430893583600 a.u.
  Convergence information after    16 iterations: 
  Largest element of residual vector : -0.11450731E-06.
  Largest element of DIIS residual   :  0.43574649E-07.
   The total correlation energy is -0.430893585556 a.u.
  Convergence information after    17 iterations: 
  Largest element of residual vector :  0.48667872E-07.
  Largest element of DIIS residual   : -0.26996940E-07.
  Amplitude equations converged in    17iterations.
   The total correlation energy is -0.430893586997 a.u.
   The CC iterations have converged.

   Largest T1 amplitudes for spin case AA:
   i       a                 i       a                 i       a    
-----------------------------------------------------------------------------
[  5      11    ]-0.02763 [  4      14    ] 0.02429 [  5      17    ]-0.01560
[  4      18    ]-0.01482 [  4      22    ]-0.00980 [  4      28    ]-0.00946
[  8      89    ]-0.00791 [  8      90    ] 0.00618 [  3      12    ] 0.00554
[  5      31    ]-0.00493 [  9     121    ]-0.00447 [  8      97    ]-0.00433
[  7      56    ] 0.00396 [  4      30    ]-0.00395 [  3      16    ]-0.00379
-----------------------------------------------------------------------------
   Norm of T1AA vector (      327 symmetry allowed elements):  0.0494071349.
-----------------------------------------------------------------------------
   Largest T2 amplitudes for spin case AB:
       _       _                 _       _                 _       _
   i   j   a   b             i   j   a   b             i   j   a   b
-----------------------------------------------------------------------------
[  5   5  11  11]-0.14953 [  4   4  50  50]-0.11611 [  5   5  17  11] 0.08554
[  5   5  11  17] 0.08554 [  5   5  17  17]-0.06425 [  5   5  88  88]-0.05420
[  5   5  53  53]-0.05420 [  5   5  13  13]-0.05418 [  4   4  54  50]-0.05143
[  4   4  50  54]-0.05143 [  4   4  54  54]-0.02934 [  4   4  15  15]-0.02624
[  4   4  14  14]-0.02556 [  4   3  50  57] 0.02554 [  3   4  57  50] 0.02554
-----------------------------------------------------------------------------
   Norm of T2AB vector (   345906 symmetry allowed elements):  0.4178373796.
-----------------------------------------------------------------------------
       Summary of iterative solution of CC equations 
      -----------------------------------------------------------
                       Correlation           Total
       Iteration         Energy              Energy
      -----------------------------------------------------------
            0        -0.395142320626     -78.941958035439  DIIS 
            1        -0.415040967446     -78.961856682259  DIIS 
            2        -0.426201144976     -78.973016859789  DIIS 
            3        -0.429103483965     -78.975919198778  DIIS 
            4        -0.430726390560     -78.977542105374  DIIS 
            5        -0.430899693078     -78.977715407891  DIIS 
            6        -0.430904821334     -78.977720536147  DIIS 
            7        -0.430895351759     -78.977711066572  DIIS 
            8        -0.430892890030     -78.977708604844  DIIS 
            9        -0.430892692937     -78.977708407750  DIIS 
           10        -0.430892765862     -78.977708480675  DIIS 
           11        -0.430893136617     -78.977708851430  DIIS 
           12        -0.430893260094     -78.977708974907  DIIS 
           13        -0.430893482763     -78.977709197576  DIIS 
           14        -0.430893555800     -78.977709270614  DIIS 
           15        -0.430893576909     -78.977709291722  DIIS 
           16        -0.430893583600     -78.977709298413  DIIS 
           17        -0.430893586997     -78.977709301810  DIIS 
      -----------------------------------------------------------
      A miracle has come to pass. The CC iterations have converged.
        E(CCSD)           =     -78.977709301810
        E(CCSD + T(CCSD)) =     -78.993512554130
        E(CCSD(T))        =     -78.993092177247
 @CHECKOUT-I, Total execution time (CPU/WALL):      210.06/      17.52 seconds.
--executable xvcc finished with status     0 in       17.55 seconds (walltime).
  The final electronic energy is       -78.993092177247064 a.u. 
  This computation required                           27.43 seconds (walltime).
