CFour on node02
 --invoking executable--
/home/tsommerfeld/zscale/bin/xjoda


   *************************************************************************
         <<<     CCCCCC     CCCCCC   |||     CCCCCC     CCCCCC   >>>
       <<<      CCC        CCC       |||    CCC        CCC         >>>
      <<<      CCC        CCC        |||   CCC        CCC            >>>
    <<<        CCC        CCC        |||   CCC        CCC              >>>
      <<<      CCC        CCC        |||   CCC        CCC            >>>
       <<<      CCC        CCC       |||    CCC        CCC         >>>
         <<<     CCCCCC     CCCCCC   |||     CCCCCC     CCCCCC   >>>
   *************************************************************************

     ****************************************************************
     * CFOUR Coupled-Cluster techniques for Computational Chemistry *
     ****************************************************************
 

   Department of Chemistry                Institut fuer Physikalische Chemie
   University of Florida                  Universitaet Mainz
   Gainesville, FL 32611, USA             D-55099 Mainz, Germany

   Department of Chemistry                Department of Chemistry
   Johns Hopkins University               Southern Methodist University
   Baltimore, MD 21218, USA               Dallas, TX 75275, USA

   Institute of Nanotechnology            Department of Physical Chemistry
   Karlsruhe Inst. of Technology          Eotvos Lorand University
   D-76021 Karlsruhe, Germany             H-1053 Budapest, Hungary

 
                       Version 2.1
 
                     node02                                            
                     Tue Mar 29 15:02:59 CST 2022                      
                     integer*8 version is running
 
********************************************************************************
*                          Input from ZMAT file                                *
********************************************************************************
h_ethylene                                                                      
C       0.000000      0.0   -0.664500                                           
C       0.000000      0.0    0.664500                                           
H       0.962348      0.0   -1.159080                                           
H       0.962348      0.0    1.159080                                           
H      -0.962348      0.0   -1.159080                                           
H      -0.962348      0.0    1.159080                                           
H      0.000000      3.7586206896551726      0.000000                           
                                                                                
*CFOUR(CALC=CCSD                                                                
EXCITE=EOMEE                                                                    
ESTATE_SYM=0/3/0/0                                                              
CC_PROG=VCC                                                                     
CHARGE=-1                                                                       
COORDINATES=CARTESIAN                                                           
SCF_DAMP=500                                                                    
SCF_MAXCYC=300                                                                  
BASIS=SPECIAL                                                                   
REFERENCE=RHF                                                                   
MEM_SIZE=90,MEM_UNIT=GB)                                                        
                                                                                
C:CC-PVDZ                                                                       
C:CC-PVDZ                                                                       
H:CC-PVDZ                                                                       
H:CC-PVDZ                                                                       
H:CC-PVDZ                                                                       
H:CC-PVDZ                                                                       
H:AUG-CC-PVDZ                                                                   
                                                                                
********************************************************************************
    -------------------------------------------------------------------
                    CFOUR Control Parameters 
    -------------------------------------------------------------------
        External           Internal           Value            Units
          Name               Name
    -------------------------------------------------------------------
       ABCDTYPE             IABCDT         STANDARD    [  0]    ***   
       ANHARMONIC           IANHAR         OFF         [  0]    ***   
       ANH_ALGORIT          IANALG         STANDARD    [  0]    ***   
       ANH_DERIVAT          IANDER         SECOND      [  1]    ***   
       ANH_MODE             ANHMOD         VIBRATION   [  0]    ***   
       ANH_STEPSIZ          ICUBST             50000          x 10-6  
       ANH_SYMMETR          IANHSM         ABELIAN     [  0]    ***   
       AO_LADDERS           IAOLAD         SINGLEPASS  [  1]    ***   
       AV_SCF               IAVSCF         OFF         [  0]    ***   
       BASIS                IBASIS         SPECIAL     [  0]    ***   
       BOTHVECTORS          BOTHVC         OFF         [  0]    ***   
       BOX_POTENT           IPIAB          OFF         [  0]    ***   
       BREIT                IBREIT         OFF         [  0]    ***   
       BRUCK_CONV           IBRTOL          10D-  4             ***   
       BRUECKNER            IBRKNR         OFF         [  0]    ***   
       BUFFERSIZE           IBUFFS              4096            ***   
       CACHE_RECS           ICHREC             10               ***   
       CALCLEVEL            ICLLVL         CCSD        [ 10]    ***   
       CCORBOPT             ICCORB         OFF         [  0]  x 0.01  
       CC_CONV              ICCCNV          10D-  7             ***   
       CC_EXPORDER          ICCEOR              5               ***   
       CC_EXTRAPOL          ICCEXT         DIIS        [  1]    ***   
       CC_GUESS             ICCGES         MP2         [  0]    ***   
       CC_MAXCYC            ICCCYC            100              cycles 
       CC_PROGRAM           ICCPRO         VCC         [  0]    ***   
       CHARGE               ICHRGE             -1               ***   
       CHOLESKY             ICHOLE         OFF         [  0]    ***   
       CIS_CONV             ICISTL              5               ***   
       COMM_SIZE            IPSIZE            ***               ***   
       CONSTANT             ICONST         OLD         [  1]    ***   
       CONTINUUM            ICONTU         NONE        [  0]    ***   
       CONTRACTION          ICNTYP         GENERAL     [  1]    ***   
       COORDINATES          ICOORD         CARTESIAN   [  1]    ***   
       CPHF_CONVER          ICPHFT          10D- 16             ***   
       CPHF_MAXCYC          ICPHFC             64              cycles 
       CUBIC                ICUBIC         OFF         [  0]    ***   
       CURVILINEAR          ICURVY         OFF         [  0]    ***   
       DBOC                 IDBOC          OFF         [  0]    ***   
       DCT                  IDCT           OFF         [  0]    ***   
       DERIV_LEV            IDRLVL         ZERO        [  0]    ***   
       DEVMEM_SIZE          IDVMEM         *********           MByte  
       DIAG_MRCC            IEOMST          10D-  0             ***   
       DIFF_TYPE            IDIFTY         RELAXED     [  0]    ***   
       DIRECT               IDIRCT         OFF         [  0]    ***   
       DROPMO               IDRPMO      NONE         
       ECP                  IECP           OFF         [  0]    ***   
       EIGENVECTOR          IVEC                1               ***   
       EL_ANHARM            IELANH         OFF         [  0]    ***   
       EOMFOLLOW            IEOMSR         ENERGY      [  0]    ***   
       EOMIP                IEOMIP         OFF         [  0]    ***   
       EOMLEVEL             HBARFM         SAME        [  0]    ***   
       EOM_MRCC             IMRCCE         NEW         [  1]    ***   
       EOM_NONIT            EOMNON         OFF         [  0]    ***   
       EOM_NSING            IEOMSI          10D-  0             ***   
       EOM_NSTATES          IMRCCD         DAVIDSON    [  0]    ***   
       EOM_NTRIP            IEOMTR          10D-  0             ***   
       EOM_ORDER            IEXORD         ENERGY      [  0]    ***   
       EOM_PROPSTA          IEOMST              0               ***   
       ESTATE_CONV          IEXTOL          10D-  5             ***   
       ESTATE_DIAG          IEXDIG         ITERATIVE   [  0]    ***   
       ESTATE_LOCK          IESLOC         ON          [  1]    ***   
       ESTATE_MAXC          IEXMXC             40               ***   
       ESTATE_PROP          IEXPRP         OFF         [  0]    ***   
       ESTATE_SYM           IEXSYM   0,  3,  0,  0,
       EVAL_HESS            IRECAL              0            # of cyc.
       EXCITATION           IEXCIT              0               ***   
       EXCITE               IEXCIT         EOMEE       [  3]    ***   
       EXTERN_POT           IEXPOT         OFF         [  0]    ***   
       FCGRADNEW            IFCGNW         OFF         [  0]    ***   
       FC_FIELD             IFINFC              0             x 10-6  
       FD_CALTYPE           IFDCAL         GRADONLY    [  0]    ***   
       FD_PROJECT           IFDPRJ         OFF         [  1]    ***   
       FD_STEPSIZE          IDISFD              0            10-4 bohr
       FD_USEGROUP          IFDGRP         FULL        [  0]    ***   
       FILE_RECSIZ          IFLREC              4096           words  
       FINITE_PERT          IFIPER              0             x 10-6  
       FIXGEOM              IFIXGM         OFF         [  0]    ***   
       FOCK                 IFOCK          AO          [  1]    ***   
       FREQ_ALGORI          IVIALG         STANDARD    [  0]    ***   
       FROZEN_CORE          IFROCO         OFF         [  0]    ***   
       GAMMA_ABCD           IGABCD         STORE       [  0]    ***   
       GAMMA_ABCI           IGABCI         STORE       [  0]    ***   
       GENBAS_1             IGNBS1              0               ***   
       GENBAS_2             IGNBS2              0               ***   
       GENBAS_3             IGNBS3              0               ***   
       GENBAS_4             IGNBS4              0               ***   
       GEO_CONV             ICONTL              5              H/bohr 
       GEO_MAXCYC           IOPTCY             50               ***   
       GEO_MAXSTEP          IMXSTP            300            millibohr
       GEO_METHOD           INR            SINGLE_POINT[  5]    ***   
       GIAO                 IGIAO          OFF         [  1]    ***   
       GIMIC                IGIMIC         OFF         [  0]    ***   
       GRID                 IGRID          OFF         [  0]    ***   
       GRID_ALGO            IGALGO         SERIAL      [  0]    ***   
       GUESS                IGUESS         MOREAD      [  0]    ***   
       HBAR                 IHBAR          ON          [  1]    ***   
       HESS_TYPE            IHESTP         SCF         [  0]    ***   
       HF2_FILE             IHF2Fl         USE         [  1]    ***   
       HFSTABILITY          ISTABL         OFF         [  0]    ***   
       INCORE               INCORE         OFF         [  0]    ***   
       INPUT_MRCC           IMRCC          ON          [  1]    ***   
       INTEGRALS            INTTYP         VMOL        [  1]    ***   
       JODA_PRINT           IJPRNT              0               ***   
       KEYWORD_OUT          IDMPKW         NO          [  0]    ***   
       LINDEP_TOL           ILINDP              8               ***   
       LINEQ_CONV           IZTACN          10D-  7           cycles  
       LINEQ_EXPOR          ILMAXD              5               ***   
       LINEQ_MAXCY          ILMAXC            100               ***   
       LINEQ_TYPE           ILTYPE         DIIS        [  1]    ***   
       LOCK_ORBOCC          ILOCOC         OFF         [  0]    ***   
       MEMORY_SIZE          IMEMSZ         *********           words  
       MEM_UNIT             IMEMU          GB          [  3]    ***   
       MRCC                 IMRCCC         OFF         [  0]    ***   
       MULTIPLICTY          IMULTP              1               ***   
       NACOUPLING           IVCOUP         OFF         [  0]    ***   
       NEGEVAL              IDIE           ABORT       [  0]    ***   
       NEWNORM              INEWNO         OFF         [  0]    ***   
       NON-HF               INONHF         OFF         [  0]    ***   
       NTOP_TAMP            ITOPT2             15               ***   
       NUC_MODEL            INUCMO         POINT       [  0]    ***   
       OCCUPATION           IOCCU   ESTIMATED BY SCF 
       OPEN-SHELL           IOPEN          SPIN-ORBITAL[  0]    ***   
       OPTVIB               IOPTVB         OFF         [  0]    ***   
       ORBITALS             IORBTP         STANDARD    [  0]    ***   
       PARALLEL             IPARAL         ON          [  1]    ***   
       PARA_INT             IPINTS         ON          [  1]    ***   
       PARA_PRINT           IPPRIN              0               ***   
       PERT_ORB             IPTORB         STANDARD    [  0]    ***   
       POINTS               IGRDFD              0               ***   
       PRINT                IPRNT               0               ***   
       PROPS                IPROPS         OFF         [  0]    ***   
       PROP_INTEGR          IINTYP         INTERNAL    [  0]    ***   
       PSI                  IPSI           OFF         [  0]    ***   
       QC_ALG               IQCALG         FLM         [  0]    ***   
       QC_LINALG            IQCLIN         TRIDIAG     [  2]    ***   
       QC_MAXCYC            IQCMAX          10D-100           cycles  
       QC_MAXSCFCY          IQCMSC          10D- 15           cycles  
       QC_RTRUST            IQCRTR          10D-  0           x 10-3  
       QC_SKIPSCF           IQCSKI         OFF         [  0]    ***   
       QC_START             IQCSTA          10D-  1             ***   
       QRHFGUESS            IQGUES         OFF         [  0]    ***   
       QUARTIC              IQUART         OFF         [  0]    ***   
       RAMAN_INT            IRAMIN         OFF         [  0]    ***   
       RAMAN_ORB            IRAMRE         UNRELAXED   [  0]    ***   
       RDO                  IRDOFM         OFF         [  0]    ***   
       REDUCE_REPR          REDREP         Ir          [  0]    ***   
       REFERENCE            IREFNC         RHF         [  0]    ***   
       RELATIVIST           IRELAT         OFF         [  0]    ***   
       RELAX_DENS           IRDENS         OFF         [  0]    ***   
       RESET_FLAGS          IRESET         OFF         [  0]    ***   
       RESTART_CC           ICCRES         OFF         [  0]    ***   
       ROT_EVEC             ROTVEC              0               ***   
       SAVE_INTS            ISVINT         OFF         [  0]    ***   
       SCALE_ON             ISTCRT              0               ***   
       SCF_CONV             ISCFCV          10D-  7             ***   
       SCF_DAMPING          IDAMP             500             x 10-3  
       SCF_EXPORDE          IRPPOR              6               ***   
       SCF_EXPSTAR          IRPPLS              8               ***   
       SCF_EXTRAPO          IRPP           ON          [  1]    ***   
       SCF_MAXCYC           ISCFCY            300              cycles 
       SCF_NOSTOP           ISCFST         OFF         [  0]    ***   
       SCF_PRINT            ISCFPR              0               ***   
       SCF_PROG             ISCFPR         SCF         [  0]    ***   
       SD_FIELD             IFINSD              0             x 10-6  
       SOPERT               IPERSO         OFF         [  0]    ***   
       SPHERICAL            IDFGHI         ON          [  1]    ***   
       SPINORBIT            ISOCAL         OFF         [  0]    ***   
       SPINROTATIO          ISRCON         OFF         [  0]    ***   
       SPIN_FLIP            ISPFLP         OFF         [  0]    ***   
       SPIN_ORBIT           ISPORB         OFF         [  0]    ***   
       SPIN_SCAL            ISCSMP         OFF         [  0]    ***   
       STEEPSCALE           ISTPSC              1000          x 10-3  
       SUBGROUP             ISUBGP         DEFAULT     [  0]    ***   
       SUBGRPAXIS           ISBXYZ         X           [  0]    ***   
       SYMMETRY             ISYM           ON          [  0]    ***   
       SYM_CHECK            ISYMCK         OVERRIDE    [  1]    ***   
       T3_EXTRAPOL          IT3EXT         OFF         [  0]    ***   
       T4_EXTRAPOL          IT4EXP         OFF         [  0]    ***   
       TAMP_SUM             IEVERY              5               ***   
       TESTSUITE            ITESTS         OFF         [  0]    ***   
       THERMOCH             ITHERM         OFF         [  0]    ***   
       TOL_CHOLESK          ITOLCH          10D-  4             ***   
       TRANGRAD             IRESRM         OFF         [  0]    ***   
       TRANS_INV            ITRAIN         USE         [  0]    ***   
       TREAT_PERT           ITREAT         SIMULTANEOUS[  0]    ***   
       TRIP_ALGORI          ITRALG         NORMAL      [  0]    ***   
       UIJ_THRESHO          IUIJTH              1               ***   
       UNITS                IUNITS         ANGSTROM    [  0]    ***   
       UNOS                 IUNOS          OFF         [  0]    ***   
       UPDATE_HESS          IHUPDT         ON          [  1]    ***   
       VIBPHASE             ISETPH         STANDARD    [  0]    ***   
       VIBRATION            IVIB           NO          [  0]    ***   
       VIB_ALGORIT          IGEALG         STANDARD    [  0]    ***   
       VNATORB              IVNORB         OFF         [  0]    ***   
       VTRAN                IVTRAN         FULL/PARTIAL[  0]    ***   
       XFIELD               IXEFLD              0             x 10-6  
       XFORM_TOL            IXFTOL          10D- 11             ***   
       YFIELD               IYEFLD              0             x 10-6  
       ZFIELD               IZEFLD              0             x 10-6  
       ZSCALE_EXP           IZEXPS         OFF         [  0]    ***   
    -------------------------------------------------------------------
  @GETXYZ-I,     7 atoms read from ZMAT.
   Rotational constants (in cm-1): 
          0.5665096800             0.8536890782             0.9645562522
   Rotational constants (in MHz): 
      16983.5353246633         25592.9582983936         28916.6730228201
********************************************************************************
   The full molecular point group is C2v .
   The largest Abelian subgroup of the full molecular point group is C2v .
   The computational point group is C2v .
********************************************************************************


 ----------------------------------------------------------------
         Coordinates used in calculation (QCOMP) 
 ----------------------------------------------------------------
 Z-matrix   Atomic            Coordinates (in bohr)
  Symbol    Number           X              Y              Z
 ----------------------------------------------------------------
     C         6         0.00000000    -1.25572327     0.24650690
     C         6         0.00000000     1.25572327     0.24650690
     H         1         1.81857454    -2.19034422     0.24650690
     H         1         1.81857454     2.19034422     0.24650690
     H         1        -1.81857454    -2.19034422     0.24650690
     H         1        -1.81857454     2.19034422     0.24650690
     H         1         0.00000000     0.00000000    -6.85625830
 ----------------------------------------------------------------
 
   Interatomic distance matrix (Angstroms) 
 
                 C             C             H             H             H    
                [ 1]        [ 2]        [ 3]        [ 4]        [ 5]
  C    [ 1]     0.00000
  C    [ 2]     1.32900     0.00000
  H    [ 3]     1.08200     2.06193     0.00000
  H    [ 4]     2.06193     1.08200     2.31816     0.00000
  H    [ 5]     1.08200     2.06193     1.92470     3.01303     0.00000
  H    [ 6]     2.06193     1.08200     3.01303     1.92470     2.31816
  H    [ 7]     3.81691     3.81691     4.04930     4.04930     4.04930
 
                 H             H    
                [ 6]        [ 7]
  H    [ 6]     0.00000
  H    [ 7]     4.04930     0.00000
 rotcon2
   Rotational constants (in cm-1): 
          0.5665096800             0.9645562522             0.8536890782
   Rotational constants (in MHz): 
      16983.5353246633         28916.6730228201         25592.9582983936
  ECPDATA file not present.   Using default ECPDATA. 
  There are   57 basis functions.
 @GEOPT-W, Archive file not created for single-point calculation.
 @CHECKOUT-I, Total execution time (CPU/WALL):        0.12/       0.13 seconds.
--executable xjoda finished with status     0 in        0.15 seconds (walltime).
 --invoking executable--
/home/tsommerfeld/zscale/bin/xvmol
 SERIAL VERSION OF MOLECULE STARTED
********************************************************************************
                    INPUT FROM MOL FILE
********************************************************************************
INTGRL        1    0    1    0    0    0    0    0    0                         
         *** CFOUR Program System (Release V0.1) ***                            
h_ethylene                                                                      
    3    2 X  Y       0.10E-08              0    0                              
   9999.00      3.00                                                            
          6.00000000    1    3    1    1    1                                   
C #1   0.000000000000000  -1.255723272983657   0.246506895146010                
    9    3                                                                      
   6665.00000000000       6.920000000000000E-004 -1.460000000000000E-004        
  0.000000000000000E+000                                                        
   1000.00000000000       5.329000000000000E-003 -1.154000000000000E-003        
  0.000000000000000E+000                                                        
   228.000000000000       2.707700000000000E-002 -5.725000000000000E-003        
  0.000000000000000E+000                                                        
   64.7100000000000       0.101718000000000      -2.331200000000000E-002        
  0.000000000000000E+000                                                        
   21.0600000000000       0.274740000000000      -6.395500000000000E-002        
  0.000000000000000E+000                                                        
   7.49500000000000       0.448564000000000      -0.149981000000000             
  0.000000000000000E+000                                                        
   2.79700000000000       0.285074000000000      -0.127262000000000             
  0.000000000000000E+000                                                        
  0.521500000000000       1.520400000000000E-002  0.544529000000000             
  0.000000000000000E+000                                                        
  0.159600000000000      -3.191000000000000E-003  0.580496000000000             
   1.00000000000000                                                             
    4    2                                                                      
   9.43900000000000       3.810900000000000E-002  0.000000000000000E+000        
   2.00200000000000       0.209480000000000       0.000000000000000E+000        
  0.545600000000000       0.508557000000000       0.000000000000000E+000        
  0.151700000000000       0.468842000000000        1.00000000000000             
    1    1                                                                      
  0.550000000000000        1.00000000000000                                     
          1.00000000    1    2    1    1                                        
H #2   1.818574537711477  -2.190344215575466   0.246506895146010                
    4    2                                                                      
   13.0100000000000       1.968500000000000E-002  0.000000000000000E+000        
   1.96200000000000       0.137977000000000       0.000000000000000E+000        
  0.444600000000000       0.478148000000000       0.000000000000000E+000        
  0.122000000000000       0.501240000000000        1.00000000000000             
    1    1                                                                      
  0.727000000000000        1.00000000000000                                     
          1.00000000    1    2    1    1                                        
H #3   0.000000000000000   0.000000000000000  -6.856258303225524                
    5    3                                                                      
   13.0100000000000       1.968500000000000E-002  0.000000000000000E+000        
  0.000000000000000E+000                                                        
   1.96200000000000       0.137977000000000       0.000000000000000E+000        
  0.000000000000000E+000                                                        
  0.444600000000000       0.478148000000000       0.000000000000000E+000        
  0.000000000000000E+000                                                        
  0.122000000000000       0.501240000000000        1.00000000000000             
  0.000000000000000E+000                                                        
  2.974000000000000E-002  0.000000000000000E+000  0.000000000000000E+000        
   1.00000000000000                                                             
    2    2                                                                      
  0.727000000000000        1.00000000000000       0.000000000000000E+000        
  0.141000000000000       0.000000000000000E+000   1.00000000000000             
FINISH                                                                          
 
********************************************************************************
 ONE- AND TWO-ELECTRON INTEGRALS OVER SYMMETRY-ADAPTED AOS ARE CALCULATED.

  SPHERICAL HARMONICS ARE USED.
  
  INTEGRALS LESS THAN  0.10E-13 ARE NEGLECTED.

  NUCLEAR REPULSION ENERGY :   35.7756331362 A.U.
  @MOLECU-I, ONE ELECTRON INTEGRALS (CPU/WALL):        0.01/       0.01 SECONDS.
  @TWOEL-I,      29527 INTEGRALS OF SYMMETRY TYPE  I I I I
  @TWOEL-I,     102049 INTEGRALS OF SYMMETRY TYPE  I J I J
  @TWOEL-I,      58011 INTEGRALS OF SYMMETRY TYPE  I I J J
  @TWOEL-I,      75311 INTEGRALS OF SYMMETRY TYPE  I J K L
  @TWOEL-I, TOTAL NUMBER OF 2-E INTEGRALS     264898.
  @MOLECU-I, TWO ELECTRON INTEGRALS (CPU/WALL):        0.22/       0.23 SECONDS.
 @CHECKOUT-I, Total execution time (CPU/WALL):        0.24/       0.25 seconds.

Running with 8 threads/proc

--executable xvmol finished with status     0 in        0.27 seconds (walltime).
 --invoking executable--
/home/tsommerfeld/zscale/bin/xvmol2ja
 @GETMEM-I,  Allocated   85830 MB of main memory.
 @CHECKOUT-I, Total execution time (CPU/WALL):        0.02/       0.01 seconds.
--executable xvmol2ja finished with status     0 in        0.03 seconds (walltime).
 --invoking executable--
/home/tsommerfeld/zscale/bin/xvscf
  There are   57 functions in the AO basis.

  There are 4 irreducible representations.

       Irrep        # of functions
         1                 20
         2                 11
         3                 17
         4                  9


  Parameters for SCF calculation: 
        SCF reference function:  RHF  
  Maximum number of iterations:  300
     Full symmetry point group: C2v 
     Computational point group: C2v 
        Initial density matrix: MOREAD                 
     SCF convergence tolerance: 10**(- 7)
  DIIS convergence acceleration:  ON
          Latest start for DIIS:   8
                     DIIS order:   6

  Memory information:     156410 words required.
  Fock matrices are constructed from AO integral file.
 @GETMEM-I,  Allocated       1 MB of main memory.
  Initialization and symmetry analysis required      0.001 seconds.

  @INITGES-I, Occupancies from core Hamiltonian:

          Alpha population by irrep:   3    1    4    1
           Beta population by irrep:   3    1    4    1


 total no. of electrons in initial guess :  0.000000000000000E+000
  --------------------------------------------------------------------
  Iteration         Total Energy            Largest Density Difference
  --------------------------------------------------------------------
       0            35.775633136154283              0.0000000000D+00
   current occupation vector 
     3  1  4  1
     3  1  4  1
  applying damping factor of   0.500000000000000     
       1           -39.286780563514085              0.8823182665D+01
   current occupation vector 
     3  1  4  1
     3  1  4  1
  applying damping factor of   0.500000000000000     
       2           -60.701417200640975              0.3200465016D+01
   current occupation vector 
     4  1  3  1
     4  1  3  1
  applying damping factor of   0.500000000000000     
       3           -69.776385165972428              0.2682313519D+01
   current occupation vector 
     5  1  2  1
     5  1  2  1
  applying damping factor of   0.500000000000000     
       4           -74.160713370382155              0.1424717916D+01
   current occupation vector 
     5  1  2  1
     5  1  2  1
  applying damping factor of   0.500000000000000     
       5           -76.333077445521411              0.7381367106D+00
   current occupation vector 
     5  1  2  1
     5  1  2  1
  applying damping factor of   0.500000000000000     
       6           -77.420269805404146              0.3790720911D+00
   current occupation vector 
     5  1  2  1
     5  1  2  1
  applying damping factor of   0.500000000000000     
       7           -77.966065668582189              0.2485346914D+00
   current occupation vector 
     5  1  2  1
     5  1  2  1
       8           -78.516188674614909              0.1330042970D+00
   current occupation vector 
     5  1  2  1
     5  1  2  1
       9           -78.516190685881256              0.2341447951D-02
   current occupation vector 
     5  1  2  1
     5  1  2  1
      10           -78.516190875063657              0.4661096808D-03
   current occupation vector 
     5  1  2  1
     5  1  2  1
      11           -78.516190883270582              0.5827151715D-04
   current occupation vector 
     5  1  2  1
     5  1  2  1
      12           -78.516190883570161              0.1184269843D-04
   current occupation vector 
     5  1  2  1
     5  1  2  1
      13           -78.516190883594049              0.3658217916D-05
   current occupation vector 
     5  1  2  1
     5  1  2  1
      14           -78.516190883595200              0.7736691395D-06
   current occupation vector 
     5  1  2  1
     5  1  2  1
      15           -78.516190883594845              0.1564933121D-06
   current occupation vector 
     5  1  2  1
     5  1  2  1

  SCF has converged.

 Density matrix saved to file den.dat
 total electron number:   18.0000000000000     
     E(SCF)=       -78.516190883595286              0.4188651292D-07


  Final occupancies:

     Alpha population by irrep:   5    1    2    1
      Beta population by irrep:   5    1    2    1


  Eigenvector printing suppressed.

 @PUTMOS-I, Writing converged MOs to NEWMOS. 
 @PUTMOS-I, Symmetry   1 Full Blocks  5 Partial Blocksize   0
 @PUTMOS-I, Symmetry   2 Full Blocks  2 Partial Blocksize   3
 @PUTMOS-I, Symmetry   3 Full Blocks  4 Partial Blocksize   1
 @PUTMOS-I, Symmetry   4 Full Blocks  2 Partial Blocksize   1
 @PUTFOCK-I, Writing converged Fock matrix to NEWFOCK. 
 @PUTFOCK-I, Symmetry   1 Full Blocks  5 Partial Blocksize   0
 @PUTFOCK-I, Symmetry   2 Full Blocks  2 Partial Blocksize   3
 @PUTFOCK-I, Symmetry   3 Full Blocks  4 Partial Blocksize   1
 @PUTFOCK-I, Symmetry   4 Full Blocks  2 Partial Blocksize   1


 
  ORBITAL EIGENVALUES (ALPHA)  (1H = 27.2113834 eV)

       MO #        E(hartree)               E(eV)           FULLSYM    COMPSYM
       ----   --------------------   --------------------   -------   ---------
    1     1         -11.1032304141        -302.1342597767      A1        A1 (1)
    2    32         -11.1015218622        -302.0877677160      B2        B2 (3)
    3     2          -0.9071520425         -24.6848620310      A1        A1 (1)
    4    33          -0.6502729552         -17.6948266997      B2        B2 (3)
    5    21          -0.5280679551         -14.3694595880      B1        B1 (2)
    6     3          -0.4347962394         -11.8314071723      A1        A1 (1)
    7    49          -0.3847496641         -10.4695706223      A2        A2 (4)
    8     4          -0.2423284557          -6.5940925170      A1        A1 (1)
    9     5          -0.0392939602          -1.0692430173      A1        A1 (1)
  +++++++++++++++++++++++++++++++++++++++++++++++++++++++++++++++++++++++++++++
   10     6           0.2857148116           7.7746952822      A1        A1 (1)
   11    34           0.3021478453           8.2218608616      B2        B2 (3)
   12     7           0.3326376823           9.0515315071      A1        A1 (1)
   13    22           0.3473772029           9.4526142517      B1        B1 (2)
   14    35           0.3643827492           9.9153586921      B2        B2 (3)
   15    50           0.4190258740          11.4022737122      A2        A2 (4)
   16     8           0.5563299218          15.1385067978      A1        A1 (1)
   17    23           0.5626524225          15.3105507897      B1        B1 (2)
   18    36           0.5627131490          15.3122032410      B2        B2 (3)
   19    37           0.5690963606          15.4858992611      B2        B2 (3)
   20     9           0.6865068749          18.6808017792      A1        A1 (1)
   21    24           0.7839483846          21.3323200603      B1        B1 (2)
   22    10           0.8171037162          22.2345224981      A1        A1 (1)
   23    11           0.9030128190          24.5722280326      A1        A1 (1)
   24    38           0.9198821980          25.0312671729      B2        B2 (3)
   25    39           0.9489942695          25.8234469111      B2        B2 (3)
   26    25           0.9913861358          26.9769882374      B1        B1 (2)
   27    51           1.0647289318          28.9727471811      A2        A2 (4)
   28    12           1.0880223092          29.6065922025      A1        A1 (1)
   29    40           1.0920169764          29.7152926235      B2        B2 (3)
   30    13           1.1532670770          31.3819925958      A1        A1 (1)
   31    26           1.2478188544          33.9548772599      B1        B1 (2)
   32    41           1.3676147264          37.2146886636      B2        B2 (3)
   33    52           1.4162969464          38.5393992173      A2        A2 (4)
   34    14           1.4209774977          38.6667634937      A1        A1 (1)
   35    53           1.4740274901          40.1103271742      A2        A2 (4)
   36    15           1.7260586675          46.9684441715      A1        A1 (1)
   37    54           1.7418849632          47.3990995727      A2        A2 (4)
   38    27           1.8183763695          49.4805365553      B1        B1 (2)
   39    42           1.9586370087          53.2972225863      B2        B2 (3)
   40    43           2.0053134406          54.5673528703      B2        B2 (3)
   41    16           2.0491736386          55.7608495342      A1        A1 (1)
   42    17           2.0607769693          56.0765922138      A1        A1 (1)
   43    28           2.1152761358          57.5595899276      B1        B1 (2)
   44    29           2.1471972296          58.4282070488      B1        B1 (2)
   45    30           2.1499257911          58.5024549823      B1        B1 (2)
   46    44           2.1524913545          58.5722675138      B2        B2 (3)
   47    18           2.1858902843          59.4810985954      A1        A1 (1)
   48    45           2.2994074578          62.5700579278      B2        B2 (3)
   49    46           2.3960545974          65.1999602960      B2        B2 (3)
   50    55           2.5450384857          69.2540180013      A2        A2 (4)
   51    19           2.5454484978          69.2651749993      A1        A1 (1)
   52    56           2.6163839641          71.1954271699      A2        A2 (4)
   53    47           2.6594945352          72.3685254471      B2        B2 (3)
   54    31           2.9166749593          79.3667605700      B1        B1 (2)
   55    20           2.9186892870          79.4215732137      A1        A1 (1)
   56    48           3.3588730577          91.3995825657      B2        B2 (3)
   57    57           3.4680892947          94.3715074641      A2        A2 (4)


  VSCF finished.

 @CHECKOUT-I, Total execution time (CPU/WALL):        0.23/       0.09 seconds.
--executable xvscf finished with status     0 in        0.11 seconds (walltime).
 --invoking executable--
/home/tsommerfeld/zscale/bin/xvtran
 @GETMEM-I,  Allocated   85830 MB of main memory.
  Full RHF integral transformation
  Transformation of IIII integrals :
  1 pass through the AO integral file was required.
       29527 AO integrals were read.
       37182 MO integrals were written to HF2.
  Transformation of IIJJ integrals :
  1 pass through the AO integral file was required.
       58011 AO integrals were read.
       75393 MO integrals were written to HF2.
  Transformation of IJIJ integrals :
  1 pass through the AO integral file was required.
      102049 AO integrals were read.
      132879 MO integrals were written to HF2.
  Transformation of IJKL integrals :
  1 pass through the AO integral file was required.
       75311 AO integrals were read.
      100980 MO integrals were written to HF2.
  Summary of active molecular orbitals: 
------------------------------------------------------------------------
 
  Index      Eigenvalue    Symmetry    Index      Eigenvalue    Symmetry
------------------------------------------------------------------------
     1       -11.1032304        1        30         1.8183764        2
     2        -0.9071520        1        31         2.1152761        2
     3        -0.4347962        1        32         2.1471972        2
     4        -0.2423285        1        33         2.1499258        2
     5        -0.0392940        1        34         2.9166750        2
     6        -0.5280680        2        35         0.3021478        3
     7       -11.1015219        3        36         0.3643827        3
     8        -0.6502730        3        37         0.5627131        3
     9        -0.3847497        4        38         0.5690964        3
    10         0.2857148        1        39         0.9198822        3
    11         0.3326377        1        40         0.9489943        3
    12         0.5563299        1        41         1.0920170        3
    13         0.6865069        1        42         1.3676147        3
    14         0.8171037        1        43         1.9586370        3
    15         0.9030128        1        44         2.0053134        3
    16         1.0880223        1        45         2.1524914        3
    17         1.1532671        1        46         2.2994075        3
    18         1.4209775        1        47         2.3960546        3
    19         1.7260587        1        48         2.6594945        3
    20         2.0491736        1        49         3.3588731        3
    21         2.0607770        1        50         0.4190259        4
    22         2.1858903        1        51         1.0647289        4
    23         2.5454485        1        52         1.4162969        4
    24         2.9186893        1        53         1.4740275        4
    25         0.3473772        2        54         1.7418850        4
    26         0.5626524        2        55         2.5450385        4
    27         0.7839484        2        56         2.6163840        4
    28         0.9913861        2        57         3.4680893        4
    29         1.2478189        2
------------------------------------------------------------------------
  -11.1032304141037      -0.907152042517625      -0.434796239441904     
 -0.242328455706709      -3.929396023680935E-002 -0.528067955118172     
  -11.1015218622063      -0.650272955241851      -0.384749664078204     
  0.285714811626818       0.332637682326487       0.556329921757198     
  0.686506874884993       0.817103716165114       0.903012818986893     
   1.08802230916593        1.15326707703579        1.42097749773713     
   1.72605866747242        2.04917363864083        2.06077696930948     
   2.18589028426265        2.54544849782731        2.91868928698930     
  0.347377202867818       0.562652422503214       0.783948384641400     
  0.991386135753223        1.24781885436683        1.81837636947573     
   2.11527613578198        2.14719722955371        2.14992579106959     
   2.91667495927514       0.302147845288937       0.364382749174920     
  0.562713148974756       0.569096360645398       0.919882198010111     
  0.948994269476380        1.09201697637636        1.36761472640264     
   1.95863700874229        2.00531344063617        2.15249135454767     
   2.29940745782798        2.39605459735650        2.65949453518537     
   3.35887305772662       0.419025874009939        1.06472893183085     
   1.41629694642212        1.47402749006133        1.74188496321205     
   2.54503848566999        2.61638396414218        3.46808929472059     
 @CHECKOUT-I, Total execution time (CPU/WALL):        0.35/       0.07 seconds.
--executable xvtran finished with status     0 in        0.08 seconds (walltime).
 --invoking executable--
/home/tsommerfeld/zscale/bin/xintprc
 @GETMEM-I,  Allocated   85830 MB of main memory.
  Processing integrals for CCSD calculation.
  @GMOIAA-I, Processing MO integrals for spin case AA.
  @GMOIAA-I, Generation of integral list completed.
                      TYPE                NUMBER
                      ----               --------
                      PPPP                174781
                      PPPH                128448
                      PPHH                 24003
                      PHPH                 13755
                      PHHH                  5115
                      HHHH                   332

                     TOTAL                346434

  @FORMT2-I, Second-order MP correlation energies:
            ------------------------------------------------
            E(SCF)                  =    -78.516190883595 a.u.
            E2(AA)                  =     -0.031360315174 a.u.
            E2(AB)                  =     -0.244387447974 a.u.
            E2(TOT)                 =     -0.307108078322 a.u.
            Total MP2 energy        =    -78.823298961917 a.u.
            ------------------------------------------------
   Largest T2 amplitudes for spin case AB:
       _       _                 _       _                 _       _
   i   j   a   b             i   j   a   b             i   j   a   b
-----------------------------------------------------------------------------
[  4   4  35  35]-0.09158 [  5   5  10  10]-0.08042 [  5   5  26  26]-0.04469
[  5   5  12  12]-0.04045 [  5   5  37  37]-0.03846 [  4   4  40  35] 0.02901
[  4   4  35  40] 0.02901 [  5   5  16  16]-0.02896 [  5   5  11  10] 0.02874
[  5   5  10  11] 0.02874 [  5   5  16  10] 0.02863 [  5   5  10  16] 0.02863
[  3   4  41  35] 0.02661 [  4   3  35  41] 0.02661 [  4   4  14  14]-0.02598
-----------------------------------------------------------------------------
   Norm of T2AB vector (    47574 symmetry allowed elements):  0.3159806675.
-----------------------------------------------------------------------------
 @CHECKOUT-I, Total execution time (CPU/WALL):        0.41/       0.10 seconds.
--executable xintprc finished with status     0 in        0.11 seconds (walltime).
  calling xvcc 
 --invoking executable--
/home/tsommerfeld/zscale/bin/xvcc
 @GETMEM-I,  Allocated   85830 MB of main memory.
   CCSD energy will be calculated.
   The total correlation energy is -0.307108078322 a.u.
   The total correlation energy is -0.332917647161 a.u.
  Convergence information after     1 iterations: 
  Largest element of residual vector : -0.31458686E-01.
  Largest element of DIIS residual   : -0.31458686E-01.
   The total correlation energy is -0.342954394537 a.u.
  Convergence information after     2 iterations: 
  Largest element of residual vector : -0.14829672E-01.
  Largest element of DIIS residual   : -0.10391661E-01.
   The total correlation energy is -0.347067004665 a.u.
  Convergence information after     3 iterations: 
  Largest element of residual vector : -0.52162598E-02.
  Largest element of DIIS residual   : -0.43589121E-02.
   The total correlation energy is -0.348129402701 a.u.
  Convergence information after     4 iterations: 
  Largest element of residual vector : -0.23762027E-02.
  Largest element of DIIS residual   : -0.12785485E-02.
   The total correlation energy is -0.348313576391 a.u.
  Convergence information after     5 iterations: 
  Largest element of residual vector : -0.63685267E-03.
  Largest element of DIIS residual   : -0.31577756E-03.
   The total correlation energy is -0.348310074080 a.u.
  Convergence information after     6 iterations: 
  Largest element of residual vector : -0.19651017E-03.
  Largest element of DIIS residual   :  0.18152271E-03.
   The total correlation energy is -0.348300336993 a.u.
  Convergence information after     7 iterations: 
  Largest element of residual vector :  0.87385284E-04.
  Largest element of DIIS residual   : -0.50676915E-04.
   The total correlation energy is -0.348293266319 a.u.
  Convergence information after     8 iterations: 
  Largest element of residual vector :  0.33863036E-04.
  Largest element of DIIS residual   : -0.19055777E-04.
   The total correlation energy is -0.348292536073 a.u.
  Convergence information after     9 iterations: 
  Largest element of residual vector : -0.12783684E-04.
  Largest element of DIIS residual   : -0.10433753E-04.
   The total correlation energy is -0.348292954114 a.u.
  Convergence information after    10 iterations: 
  Largest element of residual vector : -0.51650367E-05.
  Largest element of DIIS residual   : -0.50153704E-05.
   The total correlation energy is -0.348293509853 a.u.
  Convergence information after    11 iterations: 
  Largest element of residual vector : -0.32438936E-05.
  Largest element of DIIS residual   : -0.24082057E-05.
   The total correlation energy is -0.348293922821 a.u.
  Convergence information after    12 iterations: 
  Largest element of residual vector : -0.13508642E-05.
  Largest element of DIIS residual   : -0.82015666E-06.
   The total correlation energy is -0.348294108968 a.u.
  Convergence information after    13 iterations: 
  Largest element of residual vector : -0.55546533E-06.
  Largest element of DIIS residual   : -0.38368138E-06.
   The total correlation energy is -0.348294133556 a.u.
  Convergence information after    14 iterations: 
  Largest element of residual vector : -0.21349024E-06.
  Largest element of DIIS residual   :  0.17072916E-06.
   The total correlation energy is -0.348294128998 a.u.
  Convergence information after    15 iterations: 
  Largest element of residual vector : -0.98072602E-07.
  Largest element of DIIS residual   :  0.89457705E-07.
  Amplitude equations converged in    15iterations.
   The total correlation energy is -0.348294122206 a.u.
   The CC iterations have converged.

   Largest T1 amplitudes for spin case AA:
   i       a                 i       a                 i       a    
-----------------------------------------------------------------------------
[  5      10    ]-0.02389 [  4      14    ]-0.01692 [  4      18    ] 0.01603
[  4      15    ] 0.01438 [  5      16    ]-0.01215 [  5      17    ] 0.00864
[  4      12    ] 0.00827 [  6      27    ]-0.00621 [  4      21    ] 0.00577
[  3      13    ]-0.00478 [  9      56    ] 0.00447 [  9      50    ]-0.00441
[  3      23    ] 0.00402 [  6      30    ] 0.00399 [  3      19    ]-0.00374
-----------------------------------------------------------------------------
   Norm of T1AA vector (      123 symmetry allowed elements):  0.0441863047.
-----------------------------------------------------------------------------
   Largest T2 amplitudes for spin case AB:
       _       _                 _       _                 _       _
   i   j   a   b             i   j   a   b             i   j   a   b
-----------------------------------------------------------------------------
[  5   5  10  10]-0.14783 [  4   4  35  35]-0.13437 [  5   5  26  26]-0.06282
[  5   5  12  12]-0.05647 [  5   5  16  10] 0.05438 [  5   5  10  16] 0.05438
[  5   5  37  37]-0.05393 [  5   5  11  10] 0.05242 [  5   5  10  11] 0.05242
[  4   4  40  35] 0.04016 [  4   4  35  40] 0.04016 [  5   5  16  16]-0.03328
[  5   5  17  10]-0.03036 [  5   5  10  17]-0.03036 [  4   3  35  41] 0.02489
-----------------------------------------------------------------------------
   Norm of T2AB vector (    47574 symmetry allowed elements):  0.4109679506.
-----------------------------------------------------------------------------
       Summary of iterative solution of CC equations 
      -----------------------------------------------------------
                       Correlation           Total
       Iteration         Energy              Energy
      -----------------------------------------------------------
            0        -0.307108078322     -78.823298961917  DIIS 
            1        -0.332917647161     -78.849108530756  DIIS 
            2        -0.342954394537     -78.859145278132  DIIS 
            3        -0.347067004665     -78.863257888260  DIIS 
            4        -0.348129402701     -78.864320286296  DIIS 
            5        -0.348313576391     -78.864504459986  DIIS 
            6        -0.348310074080     -78.864500957675  DIIS 
            7        -0.348300336993     -78.864491220589  DIIS 
            8        -0.348293266319     -78.864484149915  DIIS 
            9        -0.348292536073     -78.864483419669  DIIS 
           10        -0.348292954114     -78.864483837710  DIIS 
           11        -0.348293509853     -78.864484393448  DIIS 
           12        -0.348293922821     -78.864484806416  DIIS 
           13        -0.348294108968     -78.864484992563  DIIS 
           14        -0.348294133556     -78.864485017151  DIIS 
           15        -0.348294122206     -78.864485005801  DIIS 
      -----------------------------------------------------------
      A miracle has come to pass. The CC iterations have converged.
      The reference energy is       -78.51619088359529 a.u.
      The correlation energy is      -0.34829412220596 a.u.
      The total energy is           -78.86448500580124 a.u.
 @CHECKOUT-I, Total execution time (CPU/WALL):        5.29/       0.67 seconds.
--executable xvcc finished with status     0 in        0.69 seconds (walltime).
 --invoking executable--
/home/tsommerfeld/zscale/bin/xlambda
 @GETMEM-I,  Allocated   85830 MB of main memory.
 Hbar is calculated for a CCSD wave function.
 Calculation of Hbar completed.
 @CHECKOUT-I, Total execution time (CPU/WALL):        0.87/       0.12 seconds.
--executable xlambda finished with status     0 in        0.14 seconds (walltime).
 --invoking executable--
/home/tsommerfeld/zscale/bin/xvee
 @GETMEM-I,  Allocated   85830 MB of main memory.
  cc2 and ccprog  F                     0
  EOMEE-CCSD excitation energies will be evaluated.
  @SETMET-I, VPROP property integrals are used.
  @SETMET-I, A total of   3 target states will be studied.
  Summary of active alpha molecular orbitals:
------------------------------------------------------------------------------
Orbital      Sym   Eigenvalue  <xx>     <yy>     <zz>     <xy>     <xz>     <yz>
        SCF
  #  position
------------------------------------------------------------------------------
   1      1    1     -11.1032   0.000    0.000    0.000    0.000    0.000    0.000
   2      3    1      -0.9072   0.000    0.000    0.000    0.000    0.000    0.000
   3      6    1      -0.4348   0.000    0.000    0.000    0.000    0.000    0.000
   4      8    1      -0.2423   0.000    0.000    0.000    0.000    0.000    0.000
   5      9    1      -0.0393   0.000    0.000    0.000    0.000    0.000    0.000
   6      5    2      -0.5281   0.000    0.000    0.000    0.000    0.000    0.000
   7      2    3     -11.1015   0.000    0.000    0.000    0.000    0.000    0.000
   8      4    3      -0.6503   0.000    0.000    0.000    0.000    0.000    0.000
   9      7    4      -0.3847   0.000    0.000    0.000    0.000    0.000    0.000
  10     10    1       0.2857   0.000    0.000    0.000    0.000    0.000    0.000
  11     12    1       0.3326   0.000    0.000    0.000    0.000    0.000    0.000
  12     16    1       0.5563   0.000    0.000    0.000    0.000    0.000    0.000
  13     20    1       0.6865   0.000    0.000    0.000    0.000    0.000    0.000
  14     22    1       0.8171   0.000    0.000    0.000    0.000    0.000    0.000
  15     23    1       0.9030   0.000    0.000    0.000    0.000    0.000    0.000
  16     28    1       1.0880   0.000    0.000    0.000    0.000    0.000    0.000
  17     30    1       1.1533   0.000    0.000    0.000    0.000    0.000    0.000
  18     34    1       1.4210   0.000    0.000    0.000    0.000    0.000    0.000
  19     36    1       1.7261   0.000    0.000    0.000    0.000    0.000    0.000
  20     41    1       2.0492   0.000    0.000    0.000    0.000    0.000    0.000
  21     42    1       2.0608   0.000    0.000    0.000    0.000    0.000    0.000
  22     47    1       2.1859   0.000    0.000    0.000    0.000    0.000    0.000
  23     51    1       2.5454   0.000    0.000    0.000    0.000    0.000    0.000
  24     55    1       2.9187   0.000    0.000    0.000    0.000    0.000    0.000
  25     13    2       0.3474   0.000    0.000    0.000    0.000    0.000    0.000
  26     17    2       0.5627   0.000    0.000    0.000    0.000    0.000    0.000
  27     21    2       0.7839   0.000    0.000    0.000    0.000    0.000    0.000
  28     26    2       0.9914   0.000    0.000    0.000    0.000    0.000    0.000
  29     31    2       1.2478   0.000    0.000    0.000    0.000    0.000    0.000
  30     38    2       1.8184   0.000    0.000    0.000    0.000    0.000    0.000
  31     43    2       2.1153   0.000    0.000    0.000    0.000    0.000    0.000
  32     44    2       2.1472   0.000    0.000    0.000    0.000    0.000    0.000
  33     45    2       2.1499   0.000    0.000    0.000    0.000    0.000    0.000
  34     54    2       2.9167   0.000    0.000    0.000    0.000    0.000    0.000
  35     11    3       0.3021   0.000    0.000    0.000    0.000    0.000    0.000
  36     14    3       0.3644   0.000    0.000    0.000    0.000    0.000    0.000
  37     18    3       0.5627   0.000    0.000    0.000    0.000    0.000    0.000
  38     19    3       0.5691   0.000    0.000    0.000    0.000    0.000    0.000
  39     24    3       0.9199   0.000    0.000    0.000    0.000    0.000    0.000
  40     25    3       0.9490   0.000    0.000    0.000    0.000    0.000    0.000
  41     29    3       1.0920   0.000    0.000    0.000    0.000    0.000    0.000
  42     32    3       1.3676   0.000    0.000    0.000    0.000    0.000    0.000
  43     39    3       1.9586   0.000    0.000    0.000    0.000    0.000    0.000
  44     40    3       2.0053   0.000    0.000    0.000    0.000    0.000    0.000
  45     46    3       2.1525   0.000    0.000    0.000    0.000    0.000    0.000
  46     48    3       2.2994   0.000    0.000    0.000    0.000    0.000    0.000
  47     49    3       2.3961   0.000    0.000    0.000    0.000    0.000    0.000
  48     53    3       2.6595   0.000    0.000    0.000    0.000    0.000    0.000
  49     56    3       3.3589   0.000    0.000    0.000    0.000    0.000    0.000
  50     15    4       0.4190   0.000    0.000    0.000    0.000    0.000    0.000
  51     27    4       1.0647   0.000    0.000    0.000    0.000    0.000    0.000
  52     33    4       1.4163   0.000    0.000    0.000    0.000    0.000    0.000
  53     35    4       1.4740   0.000    0.000    0.000    0.000    0.000    0.000
  54     37    4       1.7419   0.000    0.000    0.000    0.000    0.000    0.000
  55     50    4       2.5450   0.000    0.000    0.000    0.000    0.000    0.000
  56     52    4       2.6164   0.000    0.000    0.000    0.000    0.000    0.000
  57     57    4       3.4681   0.000    0.000    0.000    0.000    0.000    0.000
------------------------------------------------------------------------------
  @DRVTDA-I, Roots obtained by Davidson method.
  calling tda davidson                       6                     2
  after tda davidson                      6                     6
                     3                     3
  kroot is                      3
__________________________________________________________________________
    Tamm-Dancoff (CIS) Excitation Energies and Transition Moments

                Excitation         Transition Dipole         Oscillator
 Root  Symmetry  Energy         x           y           z     Strength
__________________________________________________________________________
   1       2    0.26399      0.0000      0.0000      0.0000  .00000000D+00
__________________________________________________________________________
 
__________________________________________________________________________
  TDA excitation ergy:             0.263992292945 a.u.    7.1836 eV
  Total TDA electronic energy:   -78.252198590650 a.u.
 
  Dominant contributions: 
  SCF eigenvalue ordering used in list below. 
--------------------------------------------------------------------------------
    I    j    A    b
--------------------------------------------------------------------------------
    9    0   13    0  -0.9923024102 AA  
    8    0   13    0  -0.1110640378 AA  
    9    0   17    0   0.0380297269 AA  
    8    0   26    0  -0.0195809698 AA  
    7    0   11    0   0.0160390446 AA  
    8    0   21    0   0.0149855438 AA  
    6    0   13    0   0.0116650938 AA  
    9    0   26    0  -0.0110640749 AA  
    7    0   14    0   0.0108939244 AA  
    9    0   21    0   0.0095520698 AA  
    5    0   12    0   0.0076822960 AA  
    8    0   17    0  -0.0051032201 AA  
    5    0   10    0   0.0040309203 AA  
    4    0   15    0   0.0038951437 AA  
    7    0   19    0  -0.0034576552 AA  
--------------------------------------------------------------------------------
   2       2    0.33819      0.0000      0.0000      0.0000  .00000000D+00
__________________________________________________________________________
 
__________________________________________________________________________
  TDA excitation ergy:             0.338185423067 a.u.    9.2025 eV
  Total TDA electronic energy:   -78.178005460529 a.u.
 
  Dominant contributions: 
  SCF eigenvalue ordering used in list below. 
--------------------------------------------------------------------------------
    I    j    A    b
--------------------------------------------------------------------------------
    8    0   13    0  -0.9627555379 AA  
    7    0   11    0   0.1854328435 AA  
    9    0   13    0   0.1145961700 AA  
    8    0   26    0  -0.1121577007 AA  
    8    0   21    0   0.1046049727 AA  
    8    0   17    0  -0.0276954673 AA  
    7    0   25    0  -0.0203263562 AA  
    9    0   17    0  -0.0114006518 AA  
    9    0   21    0   0.0100659994 AA  
    8    0   43    0   0.0097723141 AA  
    9    0   26    0  -0.0092342479 AA  
    5    0   34    0   0.0083799463 AA  
    8    0   38    0  -0.0083230987 AA  
    7    0   24    0  -0.0080797432 AA  
    7    0   18    0  -0.0078537869 AA  
--------------------------------------------------------------------------------
   3       2    0.36541      0.0000      0.0000      0.0000  .00000000D+00
__________________________________________________________________________
 
__________________________________________________________________________
  TDA excitation ergy:             0.365412646479 a.u.    9.9434 eV
  Total TDA electronic energy:   -78.150778237117 a.u.
 
  Dominant contributions: 
  SCF eigenvalue ordering used in list below. 
--------------------------------------------------------------------------------
    I    j    A    b
--------------------------------------------------------------------------------
    7    0   11    0  -0.9702933582 AA  
    8    0   13    0  -0.1860252727 AA  
    9    0   17    0  -0.0922889963 AA  
    7    0   25    0   0.0901499893 AA  
    5    0   34    0  -0.0410703363 AA  
    7    0   18    0   0.0373876357 AA  
    7    0   24    0   0.0351552653 AA  
    7    0   14    0  -0.0266492329 AA  
    8    0   26    0  -0.0229835016 AA  
    5    0   22    0   0.0207196610 AA  
    7    0   19    0  -0.0163375071 AA  
    5    0   23    0  -0.0151130547 AA  
    5    0   16    0  -0.0146923339 AA  
    5    0   42    0  -0.0130894146 AA  
    4    0   33    0   0.0120713702 AA  
--------------------------------------------------------------------------------
__________________________________________________________________________
  @DOEOMEE-I, Excitation energies computed by the EOMEE-CCSD/CCSD-LR method.
  @DOEOMEE-I, right-hand eigenvectors will be computed.
  Beginning symmetry block   2.   3 roots requested.
  @DOEOMEE-I, Matrix dimension for diagonalization:    45852
  Creating initial guess for root
________________________________________________________________________
            Subspace          Eigenvalue           
 Iteration  Dimension   (a.u.)         (eV)       Overlap      Residual
________________________________________________________________________
  @NEWGES-I, Using TDA initial guess.
  1   1  0.3150528768D+00  0.8573024622D+01  0.0000000000D+00  0.1378447974D+01
  2   2  0.2364760675D+00  0.6434840937D+01  0.9380917459D+00  0.1879447973D+00
  3   3  0.2259390023D+00  0.6148112816D+01  0.9868262369D+00  0.4827282918D-01
  4   4  0.2243989385D+00  0.6106205549D+01  0.9989097791D+00  0.2545616657D-01
  5   5  0.2240981880D+00  0.6098021713D+01  0.9995090961D+00  0.7100496180D-02
  6   6  0.2240555857D+00  0.6096862446D+01  0.9999197359D+00  0.4159939777D-02
  L-O-C-K-I-N-G O-N R-O-O-T 
  7   7  0.2240646949D+00  0.6097110320D+01  0.9999905494D+00  0.9388482402D-03
  8   8  0.2240640195D+00  0.6097091940D+01  0.9999995553D+00  0.5937200019D-03
  9   9  0.2240624210D+00  0.6097048444D+01  0.9999996615D+00  0.1661734047D-03
 10  10  0.2240624421D+00  0.6097049017D+01  0.9999999664D+00  0.1325248858D-03
 11  11  0.2240625501D+00  0.6097051957D+01  0.9999999891D+00  0.2998341761D-04
 12  12  0.2240625775D+00  0.6097052703D+01  0.9999999994D+00  0.9867703067D-05
  Converged eigenvalue:   0.224062577540460       a.u.
   Total EOMEE-CCSD electronic energy      -78.640422428260777 a.u.
  Converged eigenvector 
  SCF eigenvalue ordering used in list below. 
--------------------------------------------------------------------------------
    I    j    A    b
--------------------------------------------------------------------------------
    9    0   13    0   0.6514408903 AA  
    9    9   13   10   0.2186478555 ABAB
    9    9   10   13   0.2186478555 ABAB
    9    9   13   28  -0.0729180477 ABAB
    9    9   28   13  -0.0729180477 ABAB
    9    9   13   12  -0.0711371718 ABAB
    9    9   12   13  -0.0711371718 ABAB
    9    9   13   30   0.0412040359 ABAB
    9    9   30   13   0.0412040359 ABAB
    9    8   15   11  -0.0325525737 ABAB
    8    9   11   15  -0.0325525737 ABAB
    9    9   13   16  -0.0325281445 ABAB
    9    9   16   13  -0.0325281445 ABAB
    9    0   26    0   0.0271459520 AA  
    8    0   13    0   0.0220539270 AA  
--------------------------------------------------------------------------------
  Converged eigenvector, normalized to one 
  SCF eigenvalue ordering used in list below. 
--------------------------------------------------------------------------------
    I    j    A    b
--------------------------------------------------------------------------------
    9    0   13    0   0.6514408903 AA  
    9    9   13   10   0.2186478555 ABAB
    9    9   10   13   0.2186478555 ABAB
    9    9   13   28  -0.0729180477 ABAB
    9    9   28   13  -0.0729180477 ABAB
    9    9   13   12  -0.0711371718 ABAB
    9    9   12   13  -0.0711371718 ABAB
    9    9   13   30   0.0412040359 ABAB
    9    9   30   13   0.0412040359 ABAB
    9    8   15   11  -0.0325525737 ABAB
    8    9   11   15  -0.0325525737 ABAB
    9    9   13   16  -0.0325281445 ABAB
    9    9   16   13  -0.0325281445 ABAB
    9    0   26    0   0.0271459520 AA  
    8    0   13    0   0.0220539270 AA  
--------------------------------------------------------------------------------

  Eigenvector is saved on CCRE_2_1  

  Adding new vector to expansion space.
  Guess for next eigenvalue   0.338185423066546     
 13  13  0.3438431023D+00  0.9356446487D+01  0.6328739488D+00  0.1204169622D+00
 14  14  0.3394792889D+00  0.9237701087D+01  0.9891646386D+00  0.3956219170D-01
 15  15  0.3390159558D+00  0.9225093152D+01  0.9993535742D+00  0.1900570165D-01
 16  16  0.3389665859D+00  0.9223749729D+01  0.9998513426D+00  0.5554724909D-02
  L-O-C-K-I-N-G O-N R-O-O-T 
 17  17  0.3389617958D+00  0.9223619385D+01  0.9999487721D+00  0.1538711522D-02
 18  18  0.3389613372D+00  0.9223606905D+01  0.9999949669D+00  0.6735966678D-03
 19  19  0.3389614447D+00  0.9223609830D+01  0.9999996746D+00  0.1663901236D-03
 20  20  0.3389616926D+00  0.9223616575D+01  0.9999999858D+00  0.8407319486D-04
 21  21  0.3389617954D+00  0.9223619371D+01  0.9999999951D+00  0.3506332871D-04
 22  22  0.3389617239D+00  0.9223617426D+01  0.9999999990D+00  0.1778509904D-04
 23  23  0.3389617152D+00  0.9223617191D+01  0.9999999998D+00  0.6848352595D-05
  Converged eigenvalue:   0.338961715226248       a.u.
   Total EOMEE-CCSD electronic energy      -78.525523290574995 a.u.
  Converged eigenvector 
  SCF eigenvalue ordering used in list below. 
--------------------------------------------------------------------------------
    I    j    A    b
--------------------------------------------------------------------------------
    7    0   11    0  -0.5165953188 AA  
    8    0   13    0   0.4363090584 AA  
    5    8   11   11  -0.0728278815 ABAB
    8    5   11   11  -0.0728278815 ABAB
    7    0   25    0   0.0594123040 AA  
    8    0   21    0  -0.0509392719 AA  
    8    0   26    0   0.0504169825 AA  
    8    8   15   11  -0.0373129104 ABAB
    8    8   11   15  -0.0373129104 ABAB
    7    4   24   11   0.0258139398 ABAB
    4    7   11   24   0.0258139398 ABAB
    5    8   13   13   0.0247183626 ABAB
    8    5   13   13   0.0247183626 ABAB
    7    5   21   11  -0.0241191709 ABAB
    5    7   11   21  -0.0241191709 ABAB
--------------------------------------------------------------------------------
  Converged eigenvector, normalized to one 
  SCF eigenvalue ordering used in list below. 
--------------------------------------------------------------------------------
    I    j    A    b
--------------------------------------------------------------------------------
    7    0   11    0  -0.5165953188 AA  
    8    0   13    0   0.4363090584 AA  
    5    8   11   11  -0.0728278815 ABAB
    8    5   11   11  -0.0728278815 ABAB
    7    0   25    0   0.0594123040 AA  
    8    0   21    0  -0.0509392719 AA  
    8    0   26    0   0.0504169825 AA  
    8    8   15   11  -0.0373129104 ABAB
    8    8   11   15  -0.0373129104 ABAB
    7    4   24   11   0.0258139398 ABAB
    4    7   11   24   0.0258139398 ABAB
    5    8   13   13   0.0247183626 ABAB
    8    5   13   13   0.0247183626 ABAB
    7    5   21   11  -0.0241191709 ABAB
    5    7   11   21  -0.0241191709 ABAB
--------------------------------------------------------------------------------

  Eigenvector is saved on CCRE_2_2  

  Adding new vector to expansion space.
  Guess for next eigenvalue   0.365412646478515     
 24  24  0.3537405595D+00  0.9625769988D+01  0.5520964267D+00  0.5000822037D-01
 25  25  0.3521733220D+00  0.9583123289D+01  0.9989241378D+00  0.1452143495D-01
 26  26  0.3520090422D+00  0.9578653007D+01  0.9999102000D+00  0.3277474646D-02
  L-O-C-K-I-N-G O-N R-O-O-T 
 27  27  0.3519992588D+00  0.9578386788D+01  0.9999947012D+00  0.1290577370D-02
 28  28  0.3519998649D+00  0.9578403281D+01  0.9999993479D+00  0.3828131796D-03
 29  29  0.3519996227D+00  0.9578396690D+01  0.9999998924D+00  0.1557831429D-03
 30  30  0.3519996868D+00  0.9578398435D+01  0.9999999789D+00  0.4948435553D-04
 31  31  0.3519997557D+00  0.9578400310D+01  0.9999999975D+00  0.2512612493D-04
 32  32  0.3519997410D+00  0.9578399910D+01  0.9999999996D+00  0.8309900711D-05
  Converged eigenvalue:   0.351999741032969       a.u.
   Total EOMEE-CCSD electronic energy      -78.512485264768273 a.u.
  Converged eigenvector 
  SCF eigenvalue ordering used in list below. 
--------------------------------------------------------------------------------
    I    j    A    b
--------------------------------------------------------------------------------
    8    0   13    0   0.5229456694 AA  
    7    0   11    0   0.4357398547 AA  
    8    0   26    0   0.0594769865 AA  
    5    8   11   11   0.0569139401 ABAB
    8    5   11   11   0.0569139401 ABAB
    7    0   25    0  -0.0460299597 AA  
    8    0   21    0  -0.0400253497 AA  
    8    8   15   11  -0.0350516557 ABAB
    8    8   11   15  -0.0350516557 ABAB
    5    8   13   13   0.0297878841 ABAB
    8    5   13   13   0.0297878841 ABAB
    4    8   14   13   0.0225253489 ABAB
    8    4   13   14   0.0225253489 ABAB
    7    4   24   11  -0.0217579328 ABAB
    4    7   11   24  -0.0217579328 ABAB
--------------------------------------------------------------------------------
  Converged eigenvector, normalized to one 
  SCF eigenvalue ordering used in list below. 
--------------------------------------------------------------------------------
    I    j    A    b
--------------------------------------------------------------------------------
    8    0   13    0   0.5229456694 AA  
    7    0   11    0   0.4357398547 AA  
    8    0   26    0   0.0594769865 AA  
    5    8   11   11   0.0569139401 ABAB
    8    5   11   11   0.0569139401 ABAB
    7    0   25    0  -0.0460299597 AA  
    8    0   21    0  -0.0400253497 AA  
    8    8   15   11  -0.0350516557 ABAB
    8    8   11   15  -0.0350516557 ABAB
    5    8   13   13   0.0297878841 ABAB
    8    5   13   13   0.0297878841 ABAB
    4    8   14   13   0.0225253489 ABAB
    8    4   13   14   0.0225253489 ABAB
    7    4   24   11  -0.0217579328 ABAB
    4    7   11   24  -0.0217579328 ABAB
--------------------------------------------------------------------------------

  Eigenvector is saved on CCRE_2_3  

  Solution of   3 roots required   32 iterations.
 @CHECKOUT-I, Total execution time (CPU/WALL):       18.22/       2.29 seconds.
--executable xvee finished with status     0 in        2.31 seconds (walltime).
  The final electronic energy is       -78.512485264768273 a.u. 
  This computation required                            3.91 seconds (walltime).
