CFour on node02
 --invoking executable--
/home/tsommerfeld/zscale/bin/xjoda


   *************************************************************************
         <<<     CCCCCC     CCCCCC   |||     CCCCCC     CCCCCC   >>>
       <<<      CCC        CCC       |||    CCC        CCC         >>>
      <<<      CCC        CCC        |||   CCC        CCC            >>>
    <<<        CCC        CCC        |||   CCC        CCC              >>>
      <<<      CCC        CCC        |||   CCC        CCC            >>>
       <<<      CCC        CCC       |||    CCC        CCC         >>>
         <<<     CCCCCC     CCCCCC   |||     CCCCCC     CCCCCC   >>>
   *************************************************************************

     ****************************************************************
     * CFOUR Coupled-Cluster techniques for Computational Chemistry *
     ****************************************************************
 

   Department of Chemistry                Institut fuer Physikalische Chemie
   University of Florida                  Universitaet Mainz
   Gainesville, FL 32611, USA             D-55099 Mainz, Germany

   Department of Chemistry                Department of Chemistry
   Johns Hopkins University               Southern Methodist University
   Baltimore, MD 21218, USA               Dallas, TX 75275, USA

   Institute of Nanotechnology            Department of Physical Chemistry
   Karlsruhe Inst. of Technology          Eotvos Lorand University
   D-76021 Karlsruhe, Germany             H-1053 Budapest, Hungary

 
                       Version 2.1
 
                     node02                                            
                     Tue Mar 29 16:03:58 CST 2022                      
                     integer*8 version is running
 
********************************************************************************
*                          Input from ZMAT file                                *
********************************************************************************
h_ethylene                                                                      
C       0.000000      0.0   -0.664500                                           
C       0.000000      0.0    0.664500                                           
H       0.962348      0.0   -1.159080                                           
H       0.962348      0.0    1.159080                                           
H      -0.962348      0.0   -1.159080                                           
H      -0.962348      0.0    1.159080                                           
H      0.000000      1.9545454545454546      0.000000                           
                                                                                
*CFOUR(CALC=CCSD                                                                
EXCITE=EOMEE                                                                    
ESTATE_SYM=0/3/0/0                                                              
CC_PROG=VCC                                                                     
CHARGE=-1                                                                       
COORDINATES=CARTESIAN                                                           
BASIS=SPECIAL                                                                   
REFERENCE=RHF                                                                   
MEM_SIZE=90,MEM_UNIT=GB)                                                        
                                                                                
C:CC-PVDZ                                                                       
C:CC-PVDZ                                                                       
H:CC-PVDZ                                                                       
H:CC-PVDZ                                                                       
H:CC-PVDZ                                                                       
H:CC-PVDZ                                                                       
H:AUG-CC-PVDZ                                                                   
                                                                                
********************************************************************************
    -------------------------------------------------------------------
                    CFOUR Control Parameters 
    -------------------------------------------------------------------
        External           Internal           Value            Units
          Name               Name
    -------------------------------------------------------------------
       ABCDTYPE             IABCDT         STANDARD    [  0]    ***   
       ANHARMONIC           IANHAR         OFF         [  0]    ***   
       ANH_ALGORIT          IANALG         STANDARD    [  0]    ***   
       ANH_DERIVAT          IANDER         SECOND      [  1]    ***   
       ANH_MODE             ANHMOD         VIBRATION   [  0]    ***   
       ANH_STEPSIZ          ICUBST             50000          x 10-6  
       ANH_SYMMETR          IANHSM         ABELIAN     [  0]    ***   
       AO_LADDERS           IAOLAD         SINGLEPASS  [  1]    ***   
       AV_SCF               IAVSCF         OFF         [  0]    ***   
       BASIS                IBASIS         SPECIAL     [  0]    ***   
       BOTHVECTORS          BOTHVC         OFF         [  0]    ***   
       BOX_POTENT           IPIAB          OFF         [  0]    ***   
       BREIT                IBREIT         OFF         [  0]    ***   
       BRUCK_CONV           IBRTOL          10D-  4             ***   
       BRUECKNER            IBRKNR         OFF         [  0]    ***   
       BUFFERSIZE           IBUFFS              4096            ***   
       CACHE_RECS           ICHREC             10               ***   
       CALCLEVEL            ICLLVL         CCSD        [ 10]    ***   
       CCORBOPT             ICCORB         OFF         [  0]  x 0.01  
       CC_CONV              ICCCNV          10D-  7             ***   
       CC_EXPORDER          ICCEOR              5               ***   
       CC_EXTRAPOL          ICCEXT         DIIS        [  1]    ***   
       CC_GUESS             ICCGES         MP2         [  0]    ***   
       CC_MAXCYC            ICCCYC            100              cycles 
       CC_PROGRAM           ICCPRO         VCC         [  0]    ***   
       CHARGE               ICHRGE             -1               ***   
       CHOLESKY             ICHOLE         OFF         [  0]    ***   
       CIS_CONV             ICISTL              5               ***   
       COMM_SIZE            IPSIZE            ***               ***   
       CONSTANT             ICONST         OLD         [  1]    ***   
       CONTINUUM            ICONTU         NONE        [  0]    ***   
       CONTRACTION          ICNTYP         GENERAL     [  1]    ***   
       COORDINATES          ICOORD         CARTESIAN   [  1]    ***   
       CPHF_CONVER          ICPHFT          10D- 16             ***   
       CPHF_MAXCYC          ICPHFC             64              cycles 
       CUBIC                ICUBIC         OFF         [  0]    ***   
       CURVILINEAR          ICURVY         OFF         [  0]    ***   
       DBOC                 IDBOC          OFF         [  0]    ***   
       DCT                  IDCT           OFF         [  0]    ***   
       DERIV_LEV            IDRLVL         ZERO        [  0]    ***   
       DEVMEM_SIZE          IDVMEM         *********           MByte  
       DIAG_MRCC            IEOMST          10D-  0             ***   
       DIFF_TYPE            IDIFTY         RELAXED     [  0]    ***   
       DIRECT               IDIRCT         OFF         [  0]    ***   
       DROPMO               IDRPMO      NONE         
       ECP                  IECP           OFF         [  0]    ***   
       EIGENVECTOR          IVEC                1               ***   
       EL_ANHARM            IELANH         OFF         [  0]    ***   
       EOMFOLLOW            IEOMSR         ENERGY      [  0]    ***   
       EOMIP                IEOMIP         OFF         [  0]    ***   
       EOMLEVEL             HBARFM         SAME        [  0]    ***   
       EOM_MRCC             IMRCCE         NEW         [  1]    ***   
       EOM_NONIT            EOMNON         OFF         [  0]    ***   
       EOM_NSING            IEOMSI          10D-  0             ***   
       EOM_NSTATES          IMRCCD         DAVIDSON    [  0]    ***   
       EOM_NTRIP            IEOMTR          10D-  0             ***   
       EOM_ORDER            IEXORD         ENERGY      [  0]    ***   
       EOM_PROPSTA          IEOMST              0               ***   
       ESTATE_CONV          IEXTOL          10D-  5             ***   
       ESTATE_DIAG          IEXDIG         ITERATIVE   [  0]    ***   
       ESTATE_LOCK          IESLOC         ON          [  1]    ***   
       ESTATE_MAXC          IEXMXC             40               ***   
       ESTATE_PROP          IEXPRP         OFF         [  0]    ***   
       ESTATE_SYM           IEXSYM   0,  3,  0,  0,
       EVAL_HESS            IRECAL              0            # of cyc.
       EXCITATION           IEXCIT              0               ***   
       EXCITE               IEXCIT         EOMEE       [  3]    ***   
       EXTERN_POT           IEXPOT         OFF         [  0]    ***   
       FCGRADNEW            IFCGNW         OFF         [  0]    ***   
       FC_FIELD             IFINFC              0             x 10-6  
       FD_CALTYPE           IFDCAL         GRADONLY    [  0]    ***   
       FD_PROJECT           IFDPRJ         OFF         [  1]    ***   
       FD_STEPSIZE          IDISFD              0            10-4 bohr
       FD_USEGROUP          IFDGRP         FULL        [  0]    ***   
       FILE_RECSIZ          IFLREC              4096           words  
       FINITE_PERT          IFIPER              0             x 10-6  
       FIXGEOM              IFIXGM         OFF         [  0]    ***   
       FOCK                 IFOCK          AO          [  1]    ***   
       FREQ_ALGORI          IVIALG         STANDARD    [  0]    ***   
       FROZEN_CORE          IFROCO         OFF         [  0]    ***   
       GAMMA_ABCD           IGABCD         STORE       [  0]    ***   
       GAMMA_ABCI           IGABCI         STORE       [  0]    ***   
       GENBAS_1             IGNBS1              0               ***   
       GENBAS_2             IGNBS2              0               ***   
       GENBAS_3             IGNBS3              0               ***   
       GENBAS_4             IGNBS4              0               ***   
       GEO_CONV             ICONTL              5              H/bohr 
       GEO_MAXCYC           IOPTCY             50               ***   
       GEO_MAXSTEP          IMXSTP            300            millibohr
       GEO_METHOD           INR            SINGLE_POINT[  5]    ***   
       GIAO                 IGIAO          OFF         [  1]    ***   
       GIMIC                IGIMIC         OFF         [  0]    ***   
       GRID                 IGRID          OFF         [  0]    ***   
       GRID_ALGO            IGALGO         SERIAL      [  0]    ***   
       GUESS                IGUESS         MOREAD      [  0]    ***   
       HBAR                 IHBAR          ON          [  1]    ***   
       HESS_TYPE            IHESTP         SCF         [  0]    ***   
       HF2_FILE             IHF2Fl         USE         [  1]    ***   
       HFSTABILITY          ISTABL         OFF         [  0]    ***   
       INCORE               INCORE         OFF         [  0]    ***   
       INPUT_MRCC           IMRCC          ON          [  1]    ***   
       INTEGRALS            INTTYP         VMOL        [  1]    ***   
       JODA_PRINT           IJPRNT              0               ***   
       KEYWORD_OUT          IDMPKW         NO          [  0]    ***   
       LINDEP_TOL           ILINDP              8               ***   
       LINEQ_CONV           IZTACN          10D-  7           cycles  
       LINEQ_EXPOR          ILMAXD              5               ***   
       LINEQ_MAXCY          ILMAXC            100               ***   
       LINEQ_TYPE           ILTYPE         DIIS        [  1]    ***   
       LOCK_ORBOCC          ILOCOC         OFF         [  0]    ***   
       MEMORY_SIZE          IMEMSZ         *********           words  
       MEM_UNIT             IMEMU          GB          [  3]    ***   
       MRCC                 IMRCCC         OFF         [  0]    ***   
       MULTIPLICTY          IMULTP              1               ***   
       NACOUPLING           IVCOUP         OFF         [  0]    ***   
       NEGEVAL              IDIE           ABORT       [  0]    ***   
       NEWNORM              INEWNO         OFF         [  0]    ***   
       NON-HF               INONHF         OFF         [  0]    ***   
       NTOP_TAMP            ITOPT2             15               ***   
       NUC_MODEL            INUCMO         POINT       [  0]    ***   
       OCCUPATION           IOCCU   ESTIMATED BY SCF 
       OPEN-SHELL           IOPEN          SPIN-ORBITAL[  0]    ***   
       OPTVIB               IOPTVB         OFF         [  0]    ***   
       ORBITALS             IORBTP         STANDARD    [  0]    ***   
       PARALLEL             IPARAL         ON          [  1]    ***   
       PARA_INT             IPINTS         ON          [  1]    ***   
       PARA_PRINT           IPPRIN              0               ***   
       PERT_ORB             IPTORB         STANDARD    [  0]    ***   
       POINTS               IGRDFD              0               ***   
       PRINT                IPRNT               0               ***   
       PROPS                IPROPS         OFF         [  0]    ***   
       PROP_INTEGR          IINTYP         INTERNAL    [  0]    ***   
       PSI                  IPSI           OFF         [  0]    ***   
       QC_ALG               IQCALG         FLM         [  0]    ***   
       QC_LINALG            IQCLIN         TRIDIAG     [  2]    ***   
       QC_MAXCYC            IQCMAX          10D-100           cycles  
       QC_MAXSCFCY          IQCMSC          10D- 15           cycles  
       QC_RTRUST            IQCRTR          10D-  0           x 10-3  
       QC_SKIPSCF           IQCSKI         OFF         [  0]    ***   
       QC_START             IQCSTA          10D-  1             ***   
       QRHFGUESS            IQGUES         OFF         [  0]    ***   
       QUARTIC              IQUART         OFF         [  0]    ***   
       RAMAN_INT            IRAMIN         OFF         [  0]    ***   
       RAMAN_ORB            IRAMRE         UNRELAXED   [  0]    ***   
       RDO                  IRDOFM         OFF         [  0]    ***   
       REDUCE_REPR          REDREP         Ir          [  0]    ***   
       REFERENCE            IREFNC         RHF         [  0]    ***   
       RELATIVIST           IRELAT         OFF         [  0]    ***   
       RELAX_DENS           IRDENS         OFF         [  0]    ***   
       RESET_FLAGS          IRESET         OFF         [  0]    ***   
       RESTART_CC           ICCRES         OFF         [  0]    ***   
       ROT_EVEC             ROTVEC              0               ***   
       SAVE_INTS            ISVINT         OFF         [  0]    ***   
       SCALE_ON             ISTCRT              0               ***   
       SCF_CONV             ISCFCV          10D-  7             ***   
       SCF_DAMPING          IDAMP               0             x 10-3  
       SCF_EXPORDE          IRPPOR              6               ***   
       SCF_EXPSTAR          IRPPLS              8               ***   
       SCF_EXTRAPO          IRPP           ON          [  1]    ***   
       SCF_MAXCYC           ISCFCY            150              cycles 
       SCF_NOSTOP           ISCFST         OFF         [  0]    ***   
       SCF_PRINT            ISCFPR              0               ***   
       SCF_PROG             ISCFPR         SCF         [  0]    ***   
       SD_FIELD             IFINSD              0             x 10-6  
       SOPERT               IPERSO         OFF         [  0]    ***   
       SPHERICAL            IDFGHI         ON          [  1]    ***   
       SPINORBIT            ISOCAL         OFF         [  0]    ***   
       SPINROTATIO          ISRCON         OFF         [  0]    ***   
       SPIN_FLIP            ISPFLP         OFF         [  0]    ***   
       SPIN_ORBIT           ISPORB         OFF         [  0]    ***   
       SPIN_SCAL            ISCSMP         OFF         [  0]    ***   
       STEEPSCALE           ISTPSC              1000          x 10-3  
       SUBGROUP             ISUBGP         DEFAULT     [  0]    ***   
       SUBGRPAXIS           ISBXYZ         X           [  0]    ***   
       SYMMETRY             ISYM           ON          [  0]    ***   
       SYM_CHECK            ISYMCK         OVERRIDE    [  1]    ***   
       T3_EXTRAPOL          IT3EXT         OFF         [  0]    ***   
       T4_EXTRAPOL          IT4EXP         OFF         [  0]    ***   
       TAMP_SUM             IEVERY              5               ***   
       TESTSUITE            ITESTS         OFF         [  0]    ***   
       THERMOCH             ITHERM         OFF         [  0]    ***   
       TOL_CHOLESK          ITOLCH          10D-  4             ***   
       TRANGRAD             IRESRM         OFF         [  0]    ***   
       TRANS_INV            ITRAIN         USE         [  0]    ***   
       TREAT_PERT           ITREAT         SIMULTANEOUS[  0]    ***   
       TRIP_ALGORI          ITRALG         NORMAL      [  0]    ***   
       UIJ_THRESHO          IUIJTH              1               ***   
       UNITS                IUNITS         ANGSTROM    [  0]    ***   
       UNOS                 IUNOS          OFF         [  0]    ***   
       UPDATE_HESS          IHUPDT         ON          [  1]    ***   
       VIBPHASE             ISETPH         STANDARD    [  0]    ***   
       VIBRATION            IVIB           NO          [  0]    ***   
       VIB_ALGORIT          IGEALG         STANDARD    [  0]    ***   
       VNATORB              IVNORB         OFF         [  0]    ***   
       VTRAN                IVTRAN         FULL/PARTIAL[  0]    ***   
       XFIELD               IXEFLD              0             x 10-6  
       XFORM_TOL            IXFTOL          10D- 11             ***   
       YFIELD               IYEFLD              0             x 10-6  
       ZFIELD               IZEFLD              0             x 10-6  
       ZSCALE_EXP           IZEXPS         OFF         [  0]    ***   
    -------------------------------------------------------------------
  @GETXYZ-I,     7 atoms read from ZMAT.
   Rotational constants (in cm-1): 
          0.8536890782             0.8544213071             2.2627809919
   Rotational constants (in MHz): 
      25592.9582983935         25614.9099709144         67836.4770521377
********************************************************************************
   The full molecular point group is C2v .
   The largest Abelian subgroup of the full molecular point group is C2v .
   The computational point group is C2v .
********************************************************************************


 ----------------------------------------------------------------
         Coordinates used in calculation (QCOMP) 
 ----------------------------------------------------------------
 Z-matrix   Atomic            Coordinates (in bohr)
  Symbol    Number           X              Y              Z
 ----------------------------------------------------------------
     C         6        -1.25572327     0.00000000    -0.12818770
     C         6         1.25572327     0.00000000    -0.12818770
     H         1        -2.19034422     1.81857454    -0.12818770
     H         1         2.19034422     1.81857454    -0.12818770
     H         1        -2.19034422    -1.81857454    -0.12818770
     H         1         2.19034422    -1.81857454    -0.12818770
     H         1         0.00000000     0.00000000     3.56536868
 ----------------------------------------------------------------
 
   Interatomic distance matrix (Angstroms) 
 
                 C             C             H             H             H    
                [ 1]        [ 2]        [ 3]        [ 4]        [ 5]
  C    [ 1]     0.00000
  C    [ 2]     1.32900     0.00000
  H    [ 3]     1.08200     2.06193     0.00000
  H    [ 4]     2.06193     1.08200     2.31816     0.00000
  H    [ 5]     1.08200     2.06193     1.92470     3.01303     0.00000
  H    [ 6]     2.06193     1.08200     3.01303     1.92470     2.31816
  H    [ 7]     2.06442     2.06442     2.46776     2.46776     2.46776
 
                 H             H    
                [ 6]        [ 7]
  H    [ 6]     0.00000
  H    [ 7]     2.46776     0.00000
 rotcon2
   Rotational constants (in cm-1): 
          2.2627809919             0.8544213071             0.8536890782
   Rotational constants (in MHz): 
      67836.4770521377         25614.9099709144         25592.9582983935
  ECPDATA file not present.   Using default ECPDATA. 
  There are   57 basis functions.
 @GEOPT-W, Archive file not created for single-point calculation.
 @CHECKOUT-I, Total execution time (CPU/WALL):        0.15/       0.16 seconds.
--executable xjoda finished with status     0 in        0.18 seconds (walltime).
 --invoking executable--
/home/tsommerfeld/zscale/bin/xvmol
 SERIAL VERSION OF MOLECULE STARTED
********************************************************************************
                    INPUT FROM MOL FILE
********************************************************************************
INTGRL        1    0    1    0    0    0    0    0    0                         
         *** CFOUR Program System (Release V0.1) ***                            
h_ethylene                                                                      
    3    2 X  Y       0.10E-08              0    0                              
   9999.00      3.00                                                            
          6.00000000    1    3    1    1    1                                   
C #1  -1.255723272983657   0.000000000000000  -0.128187697350740                
    9    3                                                                      
   6665.00000000000       6.920000000000000E-004 -1.460000000000000E-004        
  0.000000000000000E+000                                                        
   1000.00000000000       5.329000000000000E-003 -1.154000000000000E-003        
  0.000000000000000E+000                                                        
   228.000000000000       2.707700000000000E-002 -5.725000000000000E-003        
  0.000000000000000E+000                                                        
   64.7100000000000       0.101718000000000      -2.331200000000000E-002        
  0.000000000000000E+000                                                        
   21.0600000000000       0.274740000000000      -6.395500000000000E-002        
  0.000000000000000E+000                                                        
   7.49500000000000       0.448564000000000      -0.149981000000000             
  0.000000000000000E+000                                                        
   2.79700000000000       0.285074000000000      -0.127262000000000             
  0.000000000000000E+000                                                        
  0.521500000000000       1.520400000000000E-002  0.544529000000000             
  0.000000000000000E+000                                                        
  0.159600000000000      -3.191000000000000E-003  0.580496000000000             
   1.00000000000000                                                             
    4    2                                                                      
   9.43900000000000       3.810900000000000E-002  0.000000000000000E+000        
   2.00200000000000       0.209480000000000       0.000000000000000E+000        
  0.545600000000000       0.508557000000000       0.000000000000000E+000        
  0.151700000000000       0.468842000000000        1.00000000000000             
    1    1                                                                      
  0.550000000000000        1.00000000000000                                     
          1.00000000    1    2    1    1                                        
H #2  -2.190344215575466   1.818574537711477  -0.128187697350740                
    4    2                                                                      
   13.0100000000000       1.968500000000000E-002  0.000000000000000E+000        
   1.96200000000000       0.137977000000000       0.000000000000000E+000        
  0.444600000000000       0.478148000000000       0.000000000000000E+000        
  0.122000000000000       0.501240000000000        1.00000000000000             
    1    1                                                                      
  0.727000000000000        1.00000000000000                                     
          1.00000000    1    2    1    1                                        
H #3   0.000000000000000   0.000000000000000   3.565368683954223                
    5    3                                                                      
   13.0100000000000       1.968500000000000E-002  0.000000000000000E+000        
  0.000000000000000E+000                                                        
   1.96200000000000       0.137977000000000       0.000000000000000E+000        
  0.000000000000000E+000                                                        
  0.444600000000000       0.478148000000000       0.000000000000000E+000        
  0.000000000000000E+000                                                        
  0.122000000000000       0.501240000000000        1.00000000000000             
  0.000000000000000E+000                                                        
  2.974000000000000E-002  0.000000000000000E+000  0.000000000000000E+000        
   1.00000000000000                                                             
    2    2                                                                      
  0.727000000000000        1.00000000000000       0.000000000000000E+000        
  0.141000000000000       0.000000000000000E+000   1.00000000000000             
FINISH                                                                          
 
********************************************************************************
 ONE- AND TWO-ELECTRON INTEGRALS OVER SYMMETRY-ADAPTED AOS ARE CALCULATED.

  SPHERICAL HARMONICS ARE USED.
  
  INTEGRALS LESS THAN  0.10E-13 ARE NEGLECTED.

  NUCLEAR REPULSION ENERGY :   37.5229541215 A.U.
  @MOLECU-I, ONE ELECTRON INTEGRALS (CPU/WALL):        0.01/       0.01 SECONDS.
  @TWOEL-I,      29572 INTEGRALS OF SYMMETRY TYPE  I I I I
  @TWOEL-I,     102291 INTEGRALS OF SYMMETRY TYPE  I J I J
  @TWOEL-I,      58089 INTEGRALS OF SYMMETRY TYPE  I I J J
  @TWOEL-I,      75480 INTEGRALS OF SYMMETRY TYPE  I J K L
  @TWOEL-I, TOTAL NUMBER OF 2-E INTEGRALS     265432.
  @MOLECU-I, TWO ELECTRON INTEGRALS (CPU/WALL):        0.22/       0.23 SECONDS.
 @CHECKOUT-I, Total execution time (CPU/WALL):        0.24/       0.25 seconds.

Running with 8 threads/proc

--executable xvmol finished with status     0 in        0.27 seconds (walltime).
 --invoking executable--
/home/tsommerfeld/zscale/bin/xvmol2ja
 @GETMEM-I,  Allocated   85830 MB of main memory.
 @CHECKOUT-I, Total execution time (CPU/WALL):        0.02/       0.01 seconds.
--executable xvmol2ja finished with status     0 in        0.03 seconds (walltime).
 --invoking executable--
/home/tsommerfeld/zscale/bin/xvscf
  There are   57 functions in the AO basis.

  There are 4 irreducible representations.

       Irrep        # of functions
         1                 20
         2                 17
         3                 11
         4                  9


  Parameters for SCF calculation: 
        SCF reference function:  RHF  
  Maximum number of iterations:  150
     Full symmetry point group: C2v 
     Computational point group: C2v 
        Initial density matrix: MOREAD                 
     SCF convergence tolerance: 10**(- 7)
  DIIS convergence acceleration:  ON
          Latest start for DIIS:   8
                     DIIS order:   6

  Memory information:     156410 words required.
  Fock matrices are constructed from AO integral file.
 @GETMEM-I,  Allocated       1 MB of main memory.
  Initialization and symmetry analysis required      0.002 seconds.

  @INITGES-I, Occupancies from core Hamiltonian:

          Alpha population by irrep:   3    4    1    1
           Beta population by irrep:   3    4    1    1


 total no. of electrons in initial guess :  0.000000000000000E+000
  --------------------------------------------------------------------
  Iteration         Total Energy            Largest Density Difference
  --------------------------------------------------------------------
       0            37.522954121485647              0.0000000000D+00
   current occupation vector 
     3  4  1  1
     3  4  1  1
       1           -61.364827813797611              0.8900806714D+01
   current occupation vector 
     3  4  1  1
     3  4  1  1
       2           -63.816695767865404              0.8703382635D+01
   current occupation vector 
     4  3  1  1
     4  3  1  1
       3           -71.033228081145097              0.5947044214D+01
   current occupation vector 
     4  3  1  1
     4  3  1  1
       4           -68.166804281670409              0.5551524994D+01
   current occupation vector 
     4  3  1  1
     4  3  1  1
       5           -72.531612145721937              0.5551456970D+01
   current occupation vector 
     4  3  1  1
     4  3  1  1
       6           -69.468778908185243              0.5426135686D+01
   current occupation vector 
     4  3  1  1
     4  3  1  1
       7           -73.031799293500427              0.5426079575D+01
   current occupation vector 
     4  3  1  1
     4  3  1  1
       8           -69.907784828337270              0.5379818751D+01
   current occupation vector 
     4  3  1  1
     4  3  1  1
       9           -77.654491007540713              0.5379514120D+01
   current occupation vector 
     4  3  1  1
     4  3  1  1
      10           -78.123949937222562              0.3916402157D+00
   current occupation vector 
     4  3  1  1
     4  3  1  1
      11           -78.178397763543956              0.1823575939D+00
   current occupation vector 
     4  3  1  1
     4  3  1  1
      12           -78.180692910335722              0.2595228948D-01
   current occupation vector 
     4  3  1  1
     4  3  1  1
      13           -78.181430005119722              0.1549451388D-01
   current occupation vector 
     4  3  1  1
     4  3  1  1
      14           -78.181493535181829              0.7701892688D-02
   current occupation vector 
     4  3  1  1
     4  3  1  1
      15           -78.181497764891077              0.2097361344D-02
   current occupation vector 
     4  3  1  1
     4  3  1  1
      16           -78.181498759083411              0.1104262722D-02
   current occupation vector 
     4  3  1  1
     4  3  1  1
      17           -78.181498789869693              0.2375974799D-03
   current occupation vector 
     4  3  1  1
     4  3  1  1
      18           -78.181498798086125              0.1774056657D-03
   current occupation vector 
     4  3  1  1
     4  3  1  1
      19           -78.181498799883059              0.8958216107D-04
   current occupation vector 
     4  3  1  1
     4  3  1  1
      20           -78.181498800060922              0.2876650584D-04
   current occupation vector 
     4  3  1  1
     4  3  1  1
      21           -78.181498800067516              0.4875579162D-05
   current occupation vector 
     4  3  1  1
     4  3  1  1
      22           -78.181498800068340              0.2985636228D-05
   current occupation vector 
     4  3  1  1
     4  3  1  1
      23           -78.181498800068397              0.3590821995D-06
   current occupation vector 
     4  3  1  1
     4  3  1  1
      24           -78.181498800068624              0.2784317298D-06
   current occupation vector 
     4  3  1  1
     4  3  1  1

  SCF has converged.

 Density matrix saved to file den.dat
 total electron number:   18.0000000000000     
     E(SCF)=       -78.181498800068312              0.2090121834D-07


  Final occupancies:

     Alpha population by irrep:   4    3    1    1
      Beta population by irrep:   4    3    1    1


  Eigenvector printing suppressed.

 @PUTMOS-I, Writing converged MOs to NEWMOS. 
 @PUTMOS-I, Symmetry   1 Full Blocks  5 Partial Blocksize   0
 @PUTMOS-I, Symmetry   2 Full Blocks  4 Partial Blocksize   1
 @PUTMOS-I, Symmetry   3 Full Blocks  2 Partial Blocksize   3
 @PUTMOS-I, Symmetry   4 Full Blocks  2 Partial Blocksize   1
 @PUTFOCK-I, Writing converged Fock matrix to NEWFOCK. 
 @PUTFOCK-I, Symmetry   1 Full Blocks  5 Partial Blocksize   0
 @PUTFOCK-I, Symmetry   2 Full Blocks  4 Partial Blocksize   1
 @PUTFOCK-I, Symmetry   3 Full Blocks  2 Partial Blocksize   3
 @PUTFOCK-I, Symmetry   4 Full Blocks  2 Partial Blocksize   1


 
  ORBITAL EIGENVALUES (ALPHA)  (1H = 27.2113834 eV)

       MO #        E(hartree)               E(eV)           FULLSYM    COMPSYM
       ----   --------------------   --------------------   -------   ---------
    1     1         -10.9500337038        -297.9655653567      A1        A1 (1)
    2    21         -10.9487201111        -297.9298206811      B1        B1 (2)
    3     2          -0.7704866788         -20.9660084207      A1        A1 (1)
    4    22          -0.5112140449         -13.9108413749      B1        B1 (2)
    5    38          -0.3906341636         -10.6296959944      B2        B2 (3)
    6     3          -0.2940069535          -8.0003359345      A1        A1 (1)
    7    49          -0.2457283952          -6.6866095738      A2        A2 (4)
    8     4          -0.1736601782          -4.7255336914      A1        A1 (1)
    9    23           0.1350530866           3.6749813183      B1        B1 (2)
  +++++++++++++++++++++++++++++++++++++++++++++++++++++++++++++++++++++++++++++
   10     5           0.1985115961           5.4017751502      A1        A1 (1)
   11     6           0.2777065566           7.5567795855      A1        A1 (1)
   12    39           0.4286659171          11.6645926216      B2        B2 (3)
   13     7           0.4354617638          11.8495170096      A1        A1 (1)
   14    24           0.4520218666          12.3001403172      B1        B1 (2)
   15    50           0.5021809899          13.6650394528      A2        A2 (4)
   16    40           0.5291430022          14.3987131060      B2        B2 (3)
   17    25           0.5777650669          15.7217867501      B1        B1 (2)
   18     8           0.6208709097          16.8947563663      A1        A1 (1)
   19    26           0.6878545149          18.7174729277      B1        B1 (2)
   20     9           0.8080281495          21.9875637750      A1        A1 (1)
   21    41           0.9252273064          25.1767149667      B2        B2 (3)
   22    10           0.9403268965          25.5875957011      A1        A1 (1)
   23    27           1.0373179218          28.2268556765      B1        B1 (2)
   24    11           1.0733368030          29.2069792643      A1        A1 (1)
   25    42           1.1076574062          30.1408903560      B2        B2 (3)
   26    28           1.1251908381          30.6179992941      B1        B1 (2)
   27    12           1.1691604959          31.8144745106      A1        A1 (1)
   28    51           1.1903377817          32.3907377547      A2        A2 (4)
   29    29           1.2374436758          33.6725542989      B1        B1 (2)
   30    43           1.4336738918          39.0122499403      B2        B2 (3)
   31    13           1.4750285242          40.1375666992      A1        A1 (1)
   32    52           1.5435308771          42.0016104852      A2        A2 (4)
   33    30           1.5462133795          42.0746050868      B1        B1 (2)
   34    14           1.5521801326          42.2369686945      A1        A1 (1)
   35    53           1.5924313528          43.3322600780      A2        A2 (4)
   36    15           1.8149732764          49.3879336860      A1        A1 (1)
   37    54           1.8717396554          50.9326253888      A2        A2 (4)
   38    44           1.9640118439          53.4434792867      B2        B2 (3)
   39    31           1.9821856436          53.9380135188      B1        B1 (2)
   40    45           2.0260273070          55.1310058307      B2        B2 (3)
   41    32           2.1507686695          58.5253908705      B1        B1 (2)
   42    16           2.1557888581          58.6619971459      A1        A1 (1)
   43    17           2.1926196670          59.6642144083      A1        A1 (1)
   44    33           2.2074885412          60.0688170446      B1        B1 (2)
   45    46           2.2476618125          61.1619873347      B2        B2 (3)
   46    47           2.3064865203          62.7626890108      B2        B2 (3)
   47    18           2.3700346717          64.4919221223      A1        A1 (1)
   48    34           2.4535422974          66.7642801422      B1        B1 (2)
   49    35           2.5483054805          69.3429174510      B1        B1 (2)
   50    55           2.6794675776          72.9120195620      A2        A2 (4)
   51    19           2.6918477212          73.2489003966      A1        A1 (1)
   52    56           2.7487564170          74.7974647373      A2        A2 (4)
   53    36           2.8063775963          76.3654167374      B1        B1 (2)
   54    20           3.0557143176          83.1502138566      A1        A1 (1)
   55    48           3.0573168137          83.1938199918      B2        B2 (3)
   56    37           3.5244867067          95.9061590643      B1        B1 (2)
   57    57           3.6067419716          98.1444386149      A2        A2 (4)


  VSCF finished.

 @CHECKOUT-I, Total execution time (CPU/WALL):        0.26/       0.12 seconds.
--executable xvscf finished with status     0 in        0.13 seconds (walltime).
 --invoking executable--
/home/tsommerfeld/zscale/bin/xvtran
 @GETMEM-I,  Allocated   85830 MB of main memory.
  Full RHF integral transformation
  Transformation of IIII integrals :
  1 pass through the AO integral file was required.
       29572 AO integrals were read.
       37182 MO integrals were written to HF2.
  Transformation of IIJJ integrals :
  1 pass through the AO integral file was required.
       58089 AO integrals were read.
       75393 MO integrals were written to HF2.
  Transformation of IJIJ integrals :
  1 pass through the AO integral file was required.
      102291 AO integrals were read.
      132879 MO integrals were written to HF2.
  Transformation of IJKL integrals :
  1 pass through the AO integral file was required.
       75480 AO integrals were read.
      100980 MO integrals were written to HF2.
  Summary of active molecular orbitals: 
------------------------------------------------------------------------
 
  Index      Eigenvalue    Symmetry    Index      Eigenvalue    Symmetry
------------------------------------------------------------------------
     1       -10.9500337        1        30         1.1251908        2
     2        -0.7704867        1        31         1.2374437        2
     3        -0.2940070        1        32         1.5462134        2
     4        -0.1736602        1        33         1.9821856        2
     5       -10.9487201        2        34         2.1507687        2
     6        -0.5112140        2        35         2.2074885        2
     7         0.1350531        2        36         2.4535423        2
     8        -0.3906342        3        37         2.5483055        2
     9        -0.2457284        4        38         2.8063776        2
    10         0.1985116        1        39         3.5244867        2
    11         0.2777066        1        40         0.4286659        3
    12         0.4354618        1        41         0.5291430        3
    13         0.6208709        1        42         0.9252273        3
    14         0.8080281        1        43         1.1076574        3
    15         0.9403269        1        44         1.4336739        3
    16         1.0733368        1        45         1.9640118        3
    17         1.1691605        1        46         2.0260273        3
    18         1.4750285        1        47         2.2476618        3
    19         1.5521801        1        48         2.3064865        3
    20         1.8149733        1        49         3.0573168        3
    21         2.1557889        1        50         0.5021810        4
    22         2.1926197        1        51         1.1903378        4
    23         2.3700347        1        52         1.5435309        4
    24         2.6918477        1        53         1.5924314        4
    25         3.0557143        1        54         1.8717397        4
    26         0.4520219        2        55         2.6794676        4
    27         0.5777651        2        56         2.7487564        4
    28         0.6878545        2        57         3.6067420        4
    29         1.0373179        2
------------------------------------------------------------------------
  -10.9500337037871      -0.770486678773192      -0.294006953520572     
 -0.173660178239965       -10.9487201110526      -0.511214044888372     
  0.135053086581987      -0.390634163581544      -0.245728395189060     
  0.198511596078181       0.277706556644477       0.435461763756831     
  0.620870909720864       0.808028149535693       0.940326896468177     
   1.07333680302097        1.16916049591848        1.47502852424634     
   1.55218013261652        1.81497327644284        2.15578885805323     
   2.19261966697045        2.37003467167642        2.69184772122235     
   3.05571431758045       0.452021866598177       0.577765066884383     
  0.687854514874562        1.03731792175346        1.12519083811585     
   1.23744367582971        1.54621337946206        1.98218564362971     
   2.15076866950160        2.20748854115846        2.45354229738103     
   2.54830548052877        2.80637759627307        3.52448670670171     
  0.428665917130763       0.529143002187537       0.925227306405420     
   1.10765740620197        1.43367389179793        1.96401184390733     
   2.02602730703756        2.24766181254348        2.30648652029847     
   3.05731681366068       0.502180989914484        1.19033778174908     
   1.54353087705111        1.59243135275336        1.87173965542507     
   2.67946757760164        2.74875641704105        3.60674197163095     
 @CHECKOUT-I, Total execution time (CPU/WALL):        0.54/       0.09 seconds.
--executable xvtran finished with status     0 in        0.11 seconds (walltime).
 --invoking executable--
/home/tsommerfeld/zscale/bin/xintprc
 @GETMEM-I,  Allocated   85830 MB of main memory.
  Processing integrals for CCSD calculation.
  @GMOIAA-I, Processing MO integrals for spin case AA.
  @GMOIAA-I, Generation of integral list completed.
                      TYPE                NUMBER
                      ----               --------
                      PPPP                174812
                      PPPH                128480
                      PPHH                 23996
                      PHPH                 13708
                      PHHH                  5120
                      HHHH                   318

                     TOTAL                346434

  @FORMT2-I, Second-order MP correlation energies:
            ------------------------------------------------
            E(SCF)                  =    -78.181498800068 a.u.
            E2(AA)                  =     -0.041061779066 a.u.
            E2(AB)                  =     -0.282754652500 a.u.
            E2(TOT)                 =     -0.364878210632 a.u.
            Total MP2 energy        =    -78.546377010700 a.u.
            ------------------------------------------------
   Largest T2 amplitudes for spin case AB:
       _       _                 _       _                 _       _
   i   j   a   b             i   j   a   b             i   j   a   b
-----------------------------------------------------------------------------
[  7   7  10  10]-0.14413 [  7   7  11  10]-0.09670 [  7   7  10  11]-0.09670
[  4   4  11  11]-0.09456 [  7   7  11  11]-0.08662 [  4   4  11  10]-0.06034
[  4   4  10  11]-0.06034 [  4   4  10  10]-0.05438 [  7   4  27  11]-0.04775
[  4   7  11  27]-0.04775 [  7   7  27  27]-0.04384 [  7   4  27  10]-0.03984
[  4   7  10  27]-0.03984 [  7   7  29  29]-0.02682 [  3   3  31  31]-0.02263
-----------------------------------------------------------------------------
   Norm of T2AB vector (    47560 symmetry allowed elements):  0.4158747549.
-----------------------------------------------------------------------------
 @CHECKOUT-I, Total execution time (CPU/WALL):        0.41/       0.09 seconds.
--executable xintprc finished with status     0 in        0.11 seconds (walltime).
  calling xvcc 
 --invoking executable--
/home/tsommerfeld/zscale/bin/xvcc
 @GETMEM-I,  Allocated   85830 MB of main memory.
   CCSD energy will be calculated.
   The total correlation energy is -0.364878210632 a.u.
   The total correlation energy is -0.382896026333 a.u.
  Convergence information after     1 iterations: 
  Largest element of residual vector : -0.18081944E+00.
  Largest element of DIIS residual   : -0.18081944E+00.
   The total correlation energy is -0.407765936579 a.u.
  Convergence information after     2 iterations: 
  Largest element of residual vector : -0.33571748E+00.
  Largest element of DIIS residual   : -0.38600254E-01.
   The total correlation energy is -0.384800327510 a.u.
  Convergence information after     3 iterations: 
  Largest element of residual vector : -0.99633285E-01.
  Largest element of DIIS residual   : -0.41314714E-01.
   The total correlation energy is -0.378364607475 a.u.
  Convergence information after     4 iterations: 
  Largest element of residual vector : -0.30057551E-01.
  Largest element of DIIS residual   : -0.26778438E-01.
   The total correlation energy is -0.386423201443 a.u.
  Convergence information after     5 iterations: 
  Largest element of residual vector : -0.32317913E-01.
  Largest element of DIIS residual   : -0.23430039E-01.
   The total correlation energy is -0.385914574312 a.u.
  Convergence information after     6 iterations: 
  Largest element of residual vector : -0.25491548E-01.
  Largest element of DIIS residual   : -0.23851810E-01.
   The total correlation energy is -0.386883839835 a.u.
  Convergence information after     7 iterations: 
  Largest element of residual vector : -0.24160150E-01.
  Largest element of DIIS residual   : -0.15355282E-01.
   The total correlation energy is -0.388567183401 a.u.
  Convergence information after     8 iterations: 
  Largest element of residual vector : -0.21602923E-01.
  Largest element of DIIS residual   : -0.13820598E-01.
   The total correlation energy is -0.390771790709 a.u.
  Convergence information after     9 iterations: 
  Largest element of residual vector : -0.17444526E-01.
  Largest element of DIIS residual   : -0.13221947E-01.
   The total correlation energy is -0.391932596473 a.u.
  Convergence information after    10 iterations: 
  Largest element of residual vector : -0.82507418E-02.
  Largest element of DIIS residual   : -0.55356645E-02.
   The total correlation energy is -0.391686030219 a.u.
  Convergence information after    11 iterations: 
  Largest element of residual vector :  0.93355930E-02.
  Largest element of DIIS residual   : -0.41246496E-02.
   The total correlation energy is -0.392809144297 a.u.
  Convergence information after    12 iterations: 
  Largest element of residual vector :  0.48276831E-02.
  Largest element of DIIS residual   : -0.39633426E-02.
   The total correlation energy is -0.392715618531 a.u.
  Convergence information after    13 iterations: 
  Largest element of residual vector :  0.48962934E-02.
  Largest element of DIIS residual   : -0.40609430E-02.
   The total correlation energy is -0.392437264359 a.u.
  Convergence information after    14 iterations: 
  Largest element of residual vector :  0.36549404E-02.
  Largest element of DIIS residual   : -0.36803214E-02.
   The total correlation energy is -0.392203740503 a.u.
  Convergence information after    15 iterations: 
  Largest element of residual vector :  0.42572567E-02.
  Largest element of DIIS residual   : -0.33064180E-02.
   The total correlation energy is -0.392182048999 a.u.
  Convergence information after    16 iterations: 
  Largest element of residual vector :  0.50204884E-02.
  Largest element of DIIS residual   : -0.32764310E-02.
   The total correlation energy is -0.392146959806 a.u.
  Convergence information after    17 iterations: 
  Largest element of residual vector :  0.49488162E-02.
  Largest element of DIIS residual   : -0.33042162E-02.
   The total correlation energy is -0.392192375032 a.u.
  Convergence information after    18 iterations: 
  Largest element of residual vector :  0.54768917E-02.
  Largest element of DIIS residual   :  0.27373070E-02.
   The total correlation energy is -0.392130721136 a.u.
  Convergence information after    19 iterations: 
  Largest element of residual vector :  0.50042245E-02.
  Largest element of DIIS residual   :  0.27497348E-02.
   The total correlation energy is -0.393162749278 a.u.
  Convergence information after    20 iterations: 
  Largest element of residual vector :  0.19046234E-02.
  Largest element of DIIS residual   :  0.50100350E-03.
   The total correlation energy is -0.393087878660 a.u.
  Convergence information after    21 iterations: 
  Largest element of residual vector : -0.10431746E-02.
  Largest element of DIIS residual   : -0.47540623E-03.
   The total correlation energy is -0.393256040024 a.u.
  Convergence information after    22 iterations: 
  Largest element of residual vector :  0.34279979E-03.
  Largest element of DIIS residual   : -0.18607405E-03.
   The total correlation energy is -0.393187703997 a.u.
  Convergence information after    23 iterations: 
  Largest element of residual vector : -0.29245259E-03.
  Largest element of DIIS residual   : -0.82849388E-04.
   The total correlation energy is -0.393219549911 a.u.
  Convergence information after    24 iterations: 
  Largest element of residual vector : -0.54796094E-04.
  Largest element of DIIS residual   : -0.58196432E-04.
   The total correlation energy is -0.393220172653 a.u.
  Convergence information after    25 iterations: 
  Largest element of residual vector : -0.36339801E-04.
  Largest element of DIIS residual   : -0.38161531E-04.
   The total correlation energy is -0.393225290944 a.u.
  Convergence information after    26 iterations: 
  Largest element of residual vector : -0.29893262E-04.
  Largest element of DIIS residual   : -0.22055561E-04.
   The total correlation energy is -0.393226315224 a.u.
  Convergence information after    27 iterations: 
  Largest element of residual vector : -0.24937512E-04.
  Largest element of DIIS residual   : -0.17186690E-04.
   The total correlation energy is -0.393227074167 a.u.
  Convergence information after    28 iterations: 
  Largest element of residual vector : -0.34609550E-04.
  Largest element of DIIS residual   :  0.11144440E-04.
   The total correlation energy is -0.393227137344 a.u.
  Convergence information after    29 iterations: 
  Largest element of residual vector : -0.34013109E-04.
  Largest element of DIIS residual   : -0.14762880E-04.
   The total correlation energy is -0.393227647689 a.u.
  Convergence information after    30 iterations: 
  Largest element of residual vector : -0.98396914E-05.
  Largest element of DIIS residual   :  0.86783323E-05.
   The total correlation energy is -0.393227565031 a.u.
  Convergence information after    31 iterations: 
  Largest element of residual vector :  0.67349546E-05.
  Largest element of DIIS residual   :  0.55655959E-05.
   The total correlation energy is -0.393227795087 a.u.
  Convergence information after    32 iterations: 
  Largest element of residual vector :  0.37919431E-05.
  Largest element of DIIS residual   :  0.29005448E-05.
   The total correlation energy is -0.393227834040 a.u.
  Convergence information after    33 iterations: 
  Largest element of residual vector : -0.21065924E-05.
  Largest element of DIIS residual   :  0.21083158E-05.
   The total correlation energy is -0.393227950685 a.u.
  Convergence information after    34 iterations: 
  Largest element of residual vector : -0.32133993E-05.
  Largest element of DIIS residual   : -0.25204881E-05.
   The total correlation energy is -0.393228014858 a.u.
  Convergence information after    35 iterations: 
  Largest element of residual vector : -0.33545937E-05.
  Largest element of DIIS residual   : -0.26744396E-05.
   The total correlation energy is -0.393227974640 a.u.
  Convergence information after    36 iterations: 
  Largest element of residual vector : -0.30225000E-05.
  Largest element of DIIS residual   :  0.18859107E-05.
   The total correlation energy is -0.393227851238 a.u.
  Convergence information after    37 iterations: 
  Largest element of residual vector : -0.38036829E-05.
  Largest element of DIIS residual   : -0.15862853E-05.
   The total correlation energy is -0.393227756707 a.u.
  Convergence information after    38 iterations: 
  Largest element of residual vector : -0.41059899E-05.
  Largest element of DIIS residual   :  0.18238327E-05.
   The total correlation energy is -0.393227820431 a.u.
  Convergence information after    39 iterations: 
  Largest element of residual vector : -0.40208854E-05.
  Largest element of DIIS residual   :  0.17324424E-05.
   The total correlation energy is -0.393227585156 a.u.
  Convergence information after    40 iterations: 
  Largest element of residual vector : -0.15296265E-05.
  Largest element of DIIS residual   :  0.14097579E-05.
   The total correlation energy is -0.393227483133 a.u.
  Convergence information after    41 iterations: 
  Largest element of residual vector : -0.13394042E-05.
  Largest element of DIIS residual   : -0.90315067E-06.
   The total correlation energy is -0.393227310470 a.u.
  Convergence information after    42 iterations: 
  Largest element of residual vector :  0.60309881E-06.
  Largest element of DIIS residual   : -0.61576176E-06.
   The total correlation energy is -0.393227334558 a.u.
  Convergence information after    43 iterations: 
  Largest element of residual vector : -0.46146708E-06.
  Largest element of DIIS residual   :  0.28918958E-06.
   The total correlation energy is -0.393227333691 a.u.
  Convergence information after    44 iterations: 
  Largest element of residual vector : -0.29478395E-06.
  Largest element of DIIS residual   : -0.22163165E-06.
   The total correlation energy is -0.393227361257 a.u.
  Convergence information after    45 iterations: 
  Largest element of residual vector : -0.17049374E-06.
  Largest element of DIIS residual   : -0.13216375E-06.
   The total correlation energy is -0.393227363983 a.u.
  Convergence information after    46 iterations: 
  Largest element of residual vector : -0.10635064E-06.
  Largest element of DIIS residual   :  0.83426020E-07.
   The total correlation energy is -0.393227358625 a.u.
  Convergence information after    47 iterations: 
  Largest element of residual vector :  0.11427221E-06.
  Largest element of DIIS residual   :  0.78212841E-07.
   The total correlation energy is -0.393227350908 a.u.
  Convergence information after    48 iterations: 
  Largest element of residual vector :  0.90802673E-07.
  Largest element of DIIS residual   :  0.68416499E-07.
  Amplitude equations converged in    48iterations.
   The total correlation energy is -0.393227348720 a.u.
   The CC iterations have converged.

   Largest T1 amplitudes for spin case AA:
   i       a                 i       a                 i       a    
-----------------------------------------------------------------------------
[  4      11    ] 0.08988 [  7      26    ] 0.07736 [  4      10    ]-0.05143
[  7      30    ]-0.04282 [  4      16    ] 0.02703 [  4      12    ] 0.02574
[  3      11    ]-0.01442 [  2      11    ]-0.01381 [  2      10    ]-0.01356
[  7      27    ]-0.01289 [  7      29    ]-0.01178 [  7      33    ] 0.00760
[  3      14    ]-0.00688 [  6      27    ] 0.00677 [  7      32    ] 0.00667
-----------------------------------------------------------------------------
   Norm of T1AA vector (      124 symmetry allowed elements):  0.1471570461.
-----------------------------------------------------------------------------
   Largest T2 amplitudes for spin case AB:
       _       _                 _       _                 _       _
   i   j   a   b             i   j   a   b             i   j   a   b
-----------------------------------------------------------------------------
[  7   7  11  11]-0.73365 [  7   7  10  10] 0.48008 [  7   7  12  10]-0.20986
[  7   7  10  12]-0.20986 [  7   7  12  11]-0.19468 [  7   7  11  12]-0.19468
[  4   4  10  10]-0.12809 [  7   7  13  11] 0.10809 [  7   7  11  13] 0.10809
[  4   4  11  10]-0.10042 [  4   4  10  11]-0.10042 [  7   4  27  11]-0.08959
[  4   7  11  27]-0.08959 [  4   4  11  11]-0.07644 [  7   7  16  11] 0.06369
-----------------------------------------------------------------------------
   Norm of T2AB vector (    47560 symmetry allowed elements):  1.0894034530.
-----------------------------------------------------------------------------
       Summary of iterative solution of CC equations 
      -----------------------------------------------------------
                       Correlation           Total
       Iteration         Energy              Energy
      -----------------------------------------------------------
            0        -0.364878210632     -78.546377010700  DIIS 
            1        -0.382896026333     -78.564394826402  DIIS 
            2        -0.407765936579     -78.589264736647  DIIS 
            3        -0.384800327510     -78.566299127579  DIIS 
            4        -0.378364607475     -78.559863407543  DIIS 
            5        -0.386423201443     -78.567922001511  DIIS 
            6        -0.385914574312     -78.567413374380  DIIS 
            7        -0.386883839835     -78.568382639903  DIIS 
            8        -0.388567183401     -78.570065983469  DIIS 
            9        -0.390771790709     -78.572270590777  DIIS 
           10        -0.391932596473     -78.573431396541  DIIS 
           11        -0.391686030219     -78.573184830287  DIIS 
           12        -0.392809144297     -78.574307944365  DIIS 
           13        -0.392715618531     -78.574214418600  DIIS 
           14        -0.392437264359     -78.573936064428  DIIS 
           15        -0.392203740503     -78.573702540571  DIIS 
           16        -0.392182048999     -78.573680849067  DIIS 
           17        -0.392146959806     -78.573645759874  DIIS 
           18        -0.392192375032     -78.573691175100  DIIS 
           19        -0.392130721136     -78.573629521204  DIIS 
           20        -0.393162749278     -78.574661549346  DIIS 
           21        -0.393087878660     -78.574586678728  DIIS 
           22        -0.393256040024     -78.574754840092  DIIS 
           23        -0.393187703997     -78.574686504066  DIIS 
           24        -0.393219549911     -78.574718349979  DIIS 
           25        -0.393220172653     -78.574718972721  DIIS 
           26        -0.393225290944     -78.574724091012  DIIS 
           27        -0.393226315224     -78.574725115293  DIIS 
           28        -0.393227074167     -78.574725874235  DIIS 
           29        -0.393227137344     -78.574725937412  DIIS 
           30        -0.393227647689     -78.574726447757  DIIS 
           31        -0.393227565031     -78.574726365099  DIIS 
           32        -0.393227795087     -78.574726595156  DIIS 
           33        -0.393227834040     -78.574726634109  DIIS 
           34        -0.393227950685     -78.574726750754  DIIS 
           35        -0.393228014858     -78.574726814926  DIIS 
           36        -0.393227974640     -78.574726774709  DIIS 
           37        -0.393227851238     -78.574726651306  DIIS 
           38        -0.393227756707     -78.574726556775  DIIS 
           39        -0.393227820431     -78.574726620499  DIIS 
           40        -0.393227585156     -78.574726385224  DIIS 
           41        -0.393227483133     -78.574726283201  DIIS 
           42        -0.393227310470     -78.574726110539  DIIS 
           43        -0.393227334558     -78.574726134626  DIIS 
           44        -0.393227333691     -78.574726133759  DIIS 
           45        -0.393227361257     -78.574726161325  DIIS 
           46        -0.393227363983     -78.574726164051  DIIS 
           47        -0.393227358625     -78.574726158693  DIIS 
           48        -0.393227348720     -78.574726148788  DIIS 
      -----------------------------------------------------------
      A miracle has come to pass. The CC iterations have converged.
      The reference energy is       -78.18149880006831 a.u.
      The correlation energy is      -0.39322734871966 a.u.
      The total energy is           -78.57472614878797 a.u.
 @CHECKOUT-I, Total execution time (CPU/WALL):       15.60/       1.96 seconds.
--executable xvcc finished with status     0 in        1.98 seconds (walltime).
 --invoking executable--
/home/tsommerfeld/zscale/bin/xlambda
 @GETMEM-I,  Allocated   85830 MB of main memory.
 Hbar is calculated for a CCSD wave function.
 Calculation of Hbar completed.
 @CHECKOUT-I, Total execution time (CPU/WALL):        0.82/       0.11 seconds.
--executable xlambda finished with status     0 in        0.13 seconds (walltime).
 --invoking executable--
/home/tsommerfeld/zscale/bin/xvee
 @GETMEM-I,  Allocated   85830 MB of main memory.
  cc2 and ccprog  F                     0
  EOMEE-CCSD excitation energies will be evaluated.
  @SETMET-I, VPROP property integrals are used.
  @SETMET-I, A total of   3 target states will be studied.
  Summary of active alpha molecular orbitals:
------------------------------------------------------------------------------
Orbital      Sym   Eigenvalue  <xx>     <yy>     <zz>     <xy>     <xz>     <yz>
        SCF
  #  position
------------------------------------------------------------------------------
   1      1    1     -10.9500   0.000    0.000    0.000    0.000    0.000    0.000
   2      3    1      -0.7705   0.000    0.000    0.000    0.000    0.000    0.000
   3      6    1      -0.2940   0.000    0.000    0.000    0.000    0.000    0.000
   4      8    1      -0.1737   0.000    0.000    0.000    0.000    0.000    0.000
   5      2    2     -10.9487   0.000    0.000    0.000    0.000    0.000    0.000
   6      4    2      -0.5112   0.000    0.000    0.000    0.000    0.000    0.000
   7      9    2       0.1351   0.000    0.000    0.000    0.000    0.000    0.000
   8      5    3      -0.3906   0.000    0.000    0.000    0.000    0.000    0.000
   9      7    4      -0.2457   0.000    0.000    0.000    0.000    0.000    0.000
  10     10    1       0.1985   0.000    0.000    0.000    0.000    0.000    0.000
  11     11    1       0.2777   0.000    0.000    0.000    0.000    0.000    0.000
  12     13    1       0.4355   0.000    0.000    0.000    0.000    0.000    0.000
  13     18    1       0.6209   0.000    0.000    0.000    0.000    0.000    0.000
  14     20    1       0.8080   0.000    0.000    0.000    0.000    0.000    0.000
  15     22    1       0.9403   0.000    0.000    0.000    0.000    0.000    0.000
  16     24    1       1.0733   0.000    0.000    0.000    0.000    0.000    0.000
  17     27    1       1.1692   0.000    0.000    0.000    0.000    0.000    0.000
  18     31    1       1.4750   0.000    0.000    0.000    0.000    0.000    0.000
  19     34    1       1.5522   0.000    0.000    0.000    0.000    0.000    0.000
  20     36    1       1.8150   0.000    0.000    0.000    0.000    0.000    0.000
  21     42    1       2.1558   0.000    0.000    0.000    0.000    0.000    0.000
  22     43    1       2.1926   0.000    0.000    0.000    0.000    0.000    0.000
  23     47    1       2.3700   0.000    0.000    0.000    0.000    0.000    0.000
  24     51    1       2.6918   0.000    0.000    0.000    0.000    0.000    0.000
  25     54    1       3.0557   0.000    0.000    0.000    0.000    0.000    0.000
  26     14    2       0.4520   0.000    0.000    0.000    0.000    0.000    0.000
  27     17    2       0.5778   0.000    0.000    0.000    0.000    0.000    0.000
  28     19    2       0.6879   0.000    0.000    0.000    0.000    0.000    0.000
  29     23    2       1.0373   0.000    0.000    0.000    0.000    0.000    0.000
  30     26    2       1.1252   0.000    0.000    0.000    0.000    0.000    0.000
  31     29    2       1.2374   0.000    0.000    0.000    0.000    0.000    0.000
  32     33    2       1.5462   0.000    0.000    0.000    0.000    0.000    0.000
  33     39    2       1.9822   0.000    0.000    0.000    0.000    0.000    0.000
  34     41    2       2.1508   0.000    0.000    0.000    0.000    0.000    0.000
  35     44    2       2.2075   0.000    0.000    0.000    0.000    0.000    0.000
  36     48    2       2.4535   0.000    0.000    0.000    0.000    0.000    0.000
  37     49    2       2.5483   0.000    0.000    0.000    0.000    0.000    0.000
  38     53    2       2.8064   0.000    0.000    0.000    0.000    0.000    0.000
  39     56    2       3.5245   0.000    0.000    0.000    0.000    0.000    0.000
  40     12    3       0.4287   0.000    0.000    0.000    0.000    0.000    0.000
  41     16    3       0.5291   0.000    0.000    0.000    0.000    0.000    0.000
  42     21    3       0.9252   0.000    0.000    0.000    0.000    0.000    0.000
  43     25    3       1.1077   0.000    0.000    0.000    0.000    0.000    0.000
  44     30    3       1.4337   0.000    0.000    0.000    0.000    0.000    0.000
  45     38    3       1.9640   0.000    0.000    0.000    0.000    0.000    0.000
  46     40    3       2.0260   0.000    0.000    0.000    0.000    0.000    0.000
  47     45    3       2.2477   0.000    0.000    0.000    0.000    0.000    0.000
  48     46    3       2.3065   0.000    0.000    0.000    0.000    0.000    0.000
  49     55    3       3.0573   0.000    0.000    0.000    0.000    0.000    0.000
  50     15    4       0.5022   0.000    0.000    0.000    0.000    0.000    0.000
  51     28    4       1.1903   0.000    0.000    0.000    0.000    0.000    0.000
  52     32    4       1.5435   0.000    0.000    0.000    0.000    0.000    0.000
  53     35    4       1.5924   0.000    0.000    0.000    0.000    0.000    0.000
  54     37    4       1.8717   0.000    0.000    0.000    0.000    0.000    0.000
  55     50    4       2.6795   0.000    0.000    0.000    0.000    0.000    0.000
  56     52    4       2.7488   0.000    0.000    0.000    0.000    0.000    0.000
  57     57    4       3.6067   0.000    0.000    0.000    0.000    0.000    0.000
------------------------------------------------------------------------------
  @DRVTDA-I, Roots obtained by Davidson method.
  calling tda davidson                       6                     2
  after tda davidson                      6                     6
                     3                     3
  kroot is                      3
__________________________________________________________________________
    Tamm-Dancoff (CIS) Excitation Energies and Transition Moments

                Excitation         Transition Dipole         Oscillator
 Root  Symmetry  Energy         x           y           z     Strength
__________________________________________________________________________
   1       2   -0.13692      0.0000      0.0000      0.0000  .00000000D+00
__________________________________________________________________________
 
__________________________________________________________________________
  TDA excitation ergy:            -0.136919700122 a.u.   -3.7258 eV
  Total TDA electronic energy:   -78.318418500190 a.u.
 
  Dominant contributions: 
  SCF eigenvalue ordering used in list below. 
--------------------------------------------------------------------------------
    I    j    A    b
--------------------------------------------------------------------------------
    9    0   10    0  -0.8550579538 AA  
    9    0   11    0  -0.5014235733 AA  
    9    0   13    0   0.0607315382 AA  
    6    0   29    0  -0.0443248948 AA  
    9    0   18    0   0.0386716629 AA  
    4    0   13    0   0.0334836252 AA  
    6    0   19    0  -0.0330575329 AA  
    5    0   15    0   0.0297092310 AA  
    9    0   22    0   0.0281067640 AA  
    9    0   31    0  -0.0270642393 AA  
    7    0   21    0   0.0260437164 AA  
    9    0   34    0   0.0256622694 AA  
    5    0   28    0   0.0198690657 AA  
    7    0   12    0   0.0192349754 AA  
    3    0   14    0   0.0192113268 AA  
--------------------------------------------------------------------------------
   2       2   -0.04198      0.0000      0.0000      0.0000  .00000000D+00
__________________________________________________________________________
 
__________________________________________________________________________
  TDA excitation ergy:            -0.041979868099 a.u.   -1.1423 eV
  Total TDA electronic energy:   -78.223478668167 a.u.
 
  Dominant contributions: 
  SCF eigenvalue ordering used in list below. 
--------------------------------------------------------------------------------
    I    j    A    b
--------------------------------------------------------------------------------
    9    0   11    0  -0.8532346625 AA  
    9    0   10    0   0.5005871443 AA  
    9    0   13    0  -0.1132994937 AA  
    9    0   18    0   0.0644826854 AA  
    9    0   20    0  -0.0313783168 AA  
    4    0   11    0   0.0222549573 AA  
    8    0   14    0   0.0201162745 AA  
    9    0   22    0   0.0182533305 AA  
    6    0   29    0  -0.0166771036 AA  
    9    0   27    0   0.0165971088 AA  
    6    0   19    0  -0.0155447944 AA  
    7    0   21    0   0.0130210109 AA  
    9    0   24    0  -0.0108427945 AA  
    5    0   15    0   0.0107142994 AA  
    9    0   31    0  -0.0106119372 AA  
--------------------------------------------------------------------------------
   3       2    0.06977      0.0000      0.0000      0.0000  .00000000D+00
__________________________________________________________________________
 
__________________________________________________________________________
  TDA excitation ergy:             0.069772875663 a.u.    1.8986 eV
  Total TDA electronic energy:   -78.111725924405 a.u.
 
  Dominant contributions: 
  SCF eigenvalue ordering used in list below. 
--------------------------------------------------------------------------------
    I    j    A    b
--------------------------------------------------------------------------------
    9    0   13    0  -0.9855494394 AA  
    9    0   10    0  -0.1109078694 AA  
    8    0   14    0   0.0685826177 AA  
    9    0   11    0   0.0676691721 AA  
    9    0   27    0   0.0571661157 AA  
    9    0   20    0   0.0307004234 AA  
    8    0   19    0  -0.0267367702 AA  
    9    0   31    0   0.0251949072 AA  
    8    0   29    0  -0.0220292618 AA  
    9    0   34    0   0.0153236349 AA  
    4    0   10    0   0.0143584750 AA  
    8    0   17    0  -0.0088891576 AA  
    7    0   30    0   0.0080899385 AA  
    9    0   24    0   0.0074986899 AA  
    8    0   33    0  -0.0069777903 AA  
--------------------------------------------------------------------------------
__________________________________________________________________________
  @DOEOMEE-I, Excitation energies computed by the EOMEE-CCSD/CCSD-LR method.
  @DOEOMEE-I, right-hand eigenvectors will be computed.
  Beginning symmetry block   2.   3 roots requested.
  @DOEOMEE-I, Matrix dimension for diagonalization:    47674
  Creating initial guess for root
________________________________________________________________________
            Subspace          Eigenvalue           
 Iteration  Dimension   (a.u.)         (eV)       Overlap      Residual
________________________________________________________________________
  @NEWGES-I, Using TDA initial guess.
  1   1 -0.1410186960D-01 -0.3837313803D+00  0.0000000000D+00  0.1535110180D+01
  2   2 -0.9383873589D-01 -0.2553481820D+01  0.9327077265D+00  0.4775750610D+00
  3   3 -0.1171695584D+00 -0.3188345777D+01  0.9717710323D+00  0.1320152814D+00
  4   4 -0.1230914620D+00 -0.3349488966D+01  0.9966847342D+00  0.3428773406D-01
  5   5 -0.1243292691D+00 -0.3383171408D+01  0.9993008818D+00  0.9716581843D-02
  6   6 -0.1243132679D+00 -0.3382735996D+01  0.9999352477D+00  0.3316082458D-02
  7   7 -0.1243457424D+00 -0.3383619669D+01  0.9999916075D+00  0.1727265088D-02
  L-O-C-K-I-N-G O-N R-O-O-T 
  8   8 -0.1243497465D+00 -0.3383728629D+01  0.9999965681D+00  0.6823927226D-03
  9   9 -0.1243408296D+00 -0.3383485986D+01  0.9999991282D+00  0.1992933712D-03
 10  10 -0.1243394207D+00 -0.3383447649D+01  0.9999999578D+00  0.8117465804D-04
 11  11 -0.1243396328D+00 -0.3383453420D+01  0.9999999939D+00  0.2403134002D-04
 12  12 -0.1243396472D+00 -0.3383453811D+01  0.9999999995D+00  0.9103267487D-05
  Converged eigenvalue:  -0.124339647171524       a.u.
   Total EOMEE-CCSD electronic energy      -78.699065795959498 a.u.
  Converged eigenvector 
  SCF eigenvalue ordering used in list below. 
--------------------------------------------------------------------------------
    I    j    A    b
--------------------------------------------------------------------------------
    9    0   10    0  -0.5650536049 AA  
    9    0   11    0  -0.3062566363 AA  
    9    8   10   11   0.1445140856 ABAB
    8    9   11   10   0.1445140856 ABAB
    9    8   11   11   0.1347775947 ABAB
    8    9   11   11   0.1347775947 ABAB
    9    8   11   10   0.1050598682 ABAB
    8    9   10   11   0.1050598682 ABAB
    9    8   10   10   0.0973894145 ABAB
    8    9   10   10   0.0973894145 ABAB
    9    0   13    0   0.0494553764 AA  
    9    9   17   10   0.0430764995 ABAB
    9    9   10   17   0.0430764995 ABAB
    9    9   14   10   0.0414440612 ABAB
    9    9   10   14   0.0414440612 ABAB
--------------------------------------------------------------------------------
  Converged eigenvector, normalized to one 
  SCF eigenvalue ordering used in list below. 
--------------------------------------------------------------------------------
    I    j    A    b
--------------------------------------------------------------------------------
    9    0   10    0  -0.5650536049 AA  
    9    0   11    0  -0.3062566363 AA  
    9    8   10   11   0.1445140856 ABAB
    8    9   11   10   0.1445140856 ABAB
    9    8   11   11   0.1347775947 ABAB
    8    9   11   11   0.1347775947 ABAB
    9    8   11   10   0.1050598682 ABAB
    8    9   10   11   0.1050598682 ABAB
    9    8   10   10   0.0973894145 ABAB
    8    9   10   10   0.0973894145 ABAB
    9    0   13    0   0.0494553764 AA  
    9    9   17   10   0.0430764995 ABAB
    9    9   10   17   0.0430764995 ABAB
    9    9   14   10   0.0414440612 ABAB
    9    9   10   14   0.0414440612 ABAB
--------------------------------------------------------------------------------

  Eigenvector is saved on CCRE_2_1  

  Adding new vector to expansion space.
  Guess for next eigenvalue  -4.197986809910564E-002
 13  13 -0.4577914753D-01 -0.1245713935D+01  0.6929835063D+00  0.7956540600D-01
 14  14 -0.4816075877D-01 -0.1310520872D+01  0.9979846622D+00  0.1804886467D-01
 15  15 -0.4827495088D-01 -0.1313628197D+01  0.9997811860D+00  0.7565803094D-02
 The phase angle is:  -0.632796837626905     
 Cr.Cr.  0.943746244267039     
 Ci.Ci.  5.625375573296090E-002
 16  16 -0.4839194403D-01 -0.1316811742D+01  0.9999603169D+00  0.2561564824D-02
 17  17 -0.4836708764D-01 -0.1316135366D+01  0.9999951505D+00  0.8471388021D-03
 18  18 -0.4837526041D-01 -0.1316357758D+01  0.9999995586D+00  0.2355499637D-03
  L-O-C-K-I-N-G O-N R-O-O-T 
 19  19 -0.4837333454D-01 -0.1316305352D+01  0.9999999661D+00  0.7098349124D-04
 20  20 -0.4837376788D-01 -0.1316317144D+01  0.9999999970D+00  0.1854930332D-04
 The phase angle is:  -0.336775901463299     
 Cr.Cr.  0.334123132153762     
 Ci.Ci.  0.665876867846238     
 21  21 -0.4837361784D-01 -0.1316313061D+01  0.9999999998D+00  0.4867404524D-05
  Converged eigenvalue:  -4.837361783762127E-002  a.u.
   Total EOMEE-CCSD electronic energy      -78.623099766625600 a.u.
  Converged eigenvector 
  SCF eigenvalue ordering used in list below. 
--------------------------------------------------------------------------------
    I    j    A    b
--------------------------------------------------------------------------------
    9    0   11    0   0.5292516410 AA  
    9    0   10    0  -0.3745639688 AA  
    9    8   11   11  -0.2053311884 ABAB
    8    9   11   11  -0.2053311884 ABAB
    9    8   10   10   0.0729617284 ABAB
    8    9   10   10   0.0729617284 ABAB
    9    9   14   11  -0.0586420475 ABAB
    9    9   11   14  -0.0586420475 ABAB
    9    0   13    0   0.0466039765 AA  
    9    9   17   11  -0.0431473991 ABAB
    9    9   11   17  -0.0431473991 ABAB
    9    0   18    0  -0.0408892139 AA  
    9    9   17   10   0.0361111447 ABAB
    9    9   10   17   0.0361111447 ABAB
    9    8   22   11   0.0331160486 ABAB
--------------------------------------------------------------------------------
  Converged eigenvector, normalized to one 
  SCF eigenvalue ordering used in list below. 
--------------------------------------------------------------------------------
    I    j    A    b
--------------------------------------------------------------------------------
    9    0   11    0   0.5292516410 AA  
    9    0   10    0  -0.3745639688 AA  
    9    8   11   11  -0.2053311884 ABAB
    8    9   11   11  -0.2053311884 ABAB
    9    8   10   10   0.0729617284 ABAB
    8    9   10   10   0.0729617284 ABAB
    9    9   14   11  -0.0586420475 ABAB
    9    9   11   14  -0.0586420475 ABAB
    9    0   13    0   0.0466039765 AA  
    9    9   17   11  -0.0431473991 ABAB
    9    9   11   17  -0.0431473991 ABAB
    9    0   18    0  -0.0408892139 AA  
    9    9   17   10   0.0361111447 ABAB
    9    9   10   17   0.0361111447 ABAB
    9    8   22   11   0.0331160486 ABAB
--------------------------------------------------------------------------------

  Eigenvector is saved on CCRE_2_2  

  Adding new vector to expansion space.
  Guess for next eigenvalue   6.977287566328001E-002
 22  22  0.9079844932D-01  0.2470751417D+01  0.7667341557D+00  0.2700849726D+00
 23  23  0.6641915182D-01  0.1807357005D+01  0.9514510871D+00  0.7348760003D-01
 The phase angle is:   0.592115772785158     
 Cr.Cr.  0.993589465600910     
 Ci.Ci.  6.410534399089471E-003
 24  24  0.6467891260D-01  0.1760002689D+01  0.9978488006D+00  0.2328155313D-01
 25  25  0.6433324581D-01  0.1750596617D+01  0.9997639664D+00  0.6450132526D-02
  L-O-C-K-I-N-G O-N R-O-O-T 
 26  26  0.6433387265D-01  0.1750613674D+01  0.9999729707D+00  0.1653197750D-02
 27  27  0.6432686832D-01  0.1750423077D+01  0.9999973880D+00  0.5963255017D-03
 28  28  0.6433230879D-01  0.1750571119D+01  0.9999997284D+00  0.1958528046D-03
 29  29  0.6433332559D-01  0.1750598788D+01  0.9999999769D+00  0.5202418351D-04
 30  30  0.6433346058D-01  0.1750602461D+01  0.9999999985D+00  0.1931364762D-04
 31  31  0.6433357113D-01  0.1750605469D+01  0.9999999998D+00  0.6357324026D-05
  Converged eigenvalue:   6.433357112570405E-002  a.u.
   Total EOMEE-CCSD electronic energy      -78.510392577662273 a.u.
  Converged eigenvector 
  SCF eigenvalue ordering used in list below. 
--------------------------------------------------------------------------------
    I    j    A    b
--------------------------------------------------------------------------------
    9    0   13    0   0.5384664614 AA  
    9    9   14   11  -0.3161790859 ABAB
    9    9   11   14  -0.3161790859 ABAB
    9    9   14   10  -0.2578363267 ABAB
    9    9   10   14  -0.2578363267 ABAB
    9    8   10   10  -0.0556116953 ABAB
    8    9   10   10  -0.0556116953 ABAB
    9    0   27    0  -0.0451049487 AA  
    9    9   14   18   0.0415176776 ABAB
    9    9   18   14   0.0415176776 ABAB
    9    8   11   13  -0.0381059640 ABAB
    8    9   13   11  -0.0381059640 ABAB
    9    9   14   13  -0.0368612395 ABAB
    9    9   13   14  -0.0368612395 ABAB
    9    9   17   11   0.0357735225 ABAB
--------------------------------------------------------------------------------
  Converged eigenvector, normalized to one 
  SCF eigenvalue ordering used in list below. 
--------------------------------------------------------------------------------
    I    j    A    b
--------------------------------------------------------------------------------
    9    0   13    0   0.5384664614 AA  
    9    9   14   11  -0.3161790859 ABAB
    9    9   11   14  -0.3161790859 ABAB
    9    9   14   10  -0.2578363267 ABAB
    9    9   10   14  -0.2578363267 ABAB
    9    8   10   10  -0.0556116953 ABAB
    8    9   10   10  -0.0556116953 ABAB
    9    0   27    0  -0.0451049487 AA  
    9    9   14   18   0.0415176776 ABAB
    9    9   18   14   0.0415176776 ABAB
    9    8   11   13  -0.0381059640 ABAB
    8    9   13   11  -0.0381059640 ABAB
    9    9   14   13  -0.0368612395 ABAB
    9    9   13   14  -0.0368612395 ABAB
    9    9   17   11   0.0357735225 ABAB
--------------------------------------------------------------------------------

  Eigenvector is saved on CCRE_2_3  

  Solution of   3 roots required   31 iterations.
 @CHECKOUT-I, Total execution time (CPU/WALL):       18.24/       2.29 seconds.
--executable xvee finished with status     0 in        2.31 seconds (walltime).
  The final electronic energy is       -78.510392577662273 a.u. 
  This computation required                            5.27 seconds (walltime).
