CFour on node02
 --invoking executable--
/home/tsommerfeld/zscale/bin/xjoda


   *************************************************************************
         <<<     CCCCCC     CCCCCC   |||     CCCCCC     CCCCCC   >>>
       <<<      CCC        CCC       |||    CCC        CCC         >>>
      <<<      CCC        CCC        |||   CCC        CCC            >>>
    <<<        CCC        CCC        |||   CCC        CCC              >>>
      <<<      CCC        CCC        |||   CCC        CCC            >>>
       <<<      CCC        CCC       |||    CCC        CCC         >>>
         <<<     CCCCCC     CCCCCC   |||     CCCCCC     CCCCCC   >>>
   *************************************************************************

     ****************************************************************
     * CFOUR Coupled-Cluster techniques for Computational Chemistry *
     ****************************************************************
 

   Department of Chemistry                Institut fuer Physikalische Chemie
   University of Florida                  Universitaet Mainz
   Gainesville, FL 32611, USA             D-55099 Mainz, Germany

   Department of Chemistry                Department of Chemistry
   Johns Hopkins University               Southern Methodist University
   Baltimore, MD 21218, USA               Dallas, TX 75275, USA

   Institute of Nanotechnology            Department of Physical Chemistry
   Karlsruhe Inst. of Technology          Eotvos Lorand University
   D-76021 Karlsruhe, Germany             H-1053 Budapest, Hungary

 
                       Version 2.1
 
                     node02                                            
                     Tue Mar 29 15:03:21 CST 2022                      
                     integer*8 version is running
 
********************************************************************************
*                          Input from ZMAT file                                *
********************************************************************************
h_ethylene                                                                      
C       0.000000      0.0   -0.664500                                           
C       0.000000      0.0    0.664500                                           
H       0.962348      0.0   -1.159080                                           
H       0.962348      0.0    1.159080                                           
H      -0.962348      0.0   -1.159080                                           
H      -0.962348      0.0    1.159080                                           
H      0.000000      4.5344827586206895      0.000000                           
                                                                                
*CFOUR(CALC=CCSD                                                                
EXCITE=EOMEE                                                                    
ESTATE_SYM=0/3/0/0                                                              
CC_PROG=VCC                                                                     
CHARGE=-1                                                                       
COORDINATES=CARTESIAN                                                           
SCF_DAMP=500                                                                    
SCF_MAXCYC=300                                                                  
BASIS=SPECIAL                                                                   
REFERENCE=RHF                                                                   
MEM_SIZE=90,MEM_UNIT=GB)                                                        
                                                                                
C:CC-PVDZ                                                                       
C:CC-PVDZ                                                                       
H:CC-PVDZ                                                                       
H:CC-PVDZ                                                                       
H:CC-PVDZ                                                                       
H:CC-PVDZ                                                                       
H:AUG-CC-PVDZ                                                                   
                                                                                
********************************************************************************
    -------------------------------------------------------------------
                    CFOUR Control Parameters 
    -------------------------------------------------------------------
        External           Internal           Value            Units
          Name               Name
    -------------------------------------------------------------------
       ABCDTYPE             IABCDT         STANDARD    [  0]    ***   
       ANHARMONIC           IANHAR         OFF         [  0]    ***   
       ANH_ALGORIT          IANALG         STANDARD    [  0]    ***   
       ANH_DERIVAT          IANDER         SECOND      [  1]    ***   
       ANH_MODE             ANHMOD         VIBRATION   [  0]    ***   
       ANH_STEPSIZ          ICUBST             50000          x 10-6  
       ANH_SYMMETR          IANHSM         ABELIAN     [  0]    ***   
       AO_LADDERS           IAOLAD         SINGLEPASS  [  1]    ***   
       AV_SCF               IAVSCF         OFF         [  0]    ***   
       BASIS                IBASIS         SPECIAL     [  0]    ***   
       BOTHVECTORS          BOTHVC         OFF         [  0]    ***   
       BOX_POTENT           IPIAB          OFF         [  0]    ***   
       BREIT                IBREIT         OFF         [  0]    ***   
       BRUCK_CONV           IBRTOL          10D-  4             ***   
       BRUECKNER            IBRKNR         OFF         [  0]    ***   
       BUFFERSIZE           IBUFFS              4096            ***   
       CACHE_RECS           ICHREC             10               ***   
       CALCLEVEL            ICLLVL         CCSD        [ 10]    ***   
       CCORBOPT             ICCORB         OFF         [  0]  x 0.01  
       CC_CONV              ICCCNV          10D-  7             ***   
       CC_EXPORDER          ICCEOR              5               ***   
       CC_EXTRAPOL          ICCEXT         DIIS        [  1]    ***   
       CC_GUESS             ICCGES         MP2         [  0]    ***   
       CC_MAXCYC            ICCCYC            100              cycles 
       CC_PROGRAM           ICCPRO         VCC         [  0]    ***   
       CHARGE               ICHRGE             -1               ***   
       CHOLESKY             ICHOLE         OFF         [  0]    ***   
       CIS_CONV             ICISTL              5               ***   
       COMM_SIZE            IPSIZE            ***               ***   
       CONSTANT             ICONST         OLD         [  1]    ***   
       CONTINUUM            ICONTU         NONE        [  0]    ***   
       CONTRACTION          ICNTYP         GENERAL     [  1]    ***   
       COORDINATES          ICOORD         CARTESIAN   [  1]    ***   
       CPHF_CONVER          ICPHFT          10D- 16             ***   
       CPHF_MAXCYC          ICPHFC             64              cycles 
       CUBIC                ICUBIC         OFF         [  0]    ***   
       CURVILINEAR          ICURVY         OFF         [  0]    ***   
       DBOC                 IDBOC          OFF         [  0]    ***   
       DCT                  IDCT           OFF         [  0]    ***   
       DERIV_LEV            IDRLVL         ZERO        [  0]    ***   
       DEVMEM_SIZE          IDVMEM         *********           MByte  
       DIAG_MRCC            IEOMST          10D-  0             ***   
       DIFF_TYPE            IDIFTY         RELAXED     [  0]    ***   
       DIRECT               IDIRCT         OFF         [  0]    ***   
       DROPMO               IDRPMO      NONE         
       ECP                  IECP           OFF         [  0]    ***   
       EIGENVECTOR          IVEC                1               ***   
       EL_ANHARM            IELANH         OFF         [  0]    ***   
       EOMFOLLOW            IEOMSR         ENERGY      [  0]    ***   
       EOMIP                IEOMIP         OFF         [  0]    ***   
       EOMLEVEL             HBARFM         SAME        [  0]    ***   
       EOM_MRCC             IMRCCE         NEW         [  1]    ***   
       EOM_NONIT            EOMNON         OFF         [  0]    ***   
       EOM_NSING            IEOMSI          10D-  0             ***   
       EOM_NSTATES          IMRCCD         DAVIDSON    [  0]    ***   
       EOM_NTRIP            IEOMTR          10D-  0             ***   
       EOM_ORDER            IEXORD         ENERGY      [  0]    ***   
       EOM_PROPSTA          IEOMST              0               ***   
       ESTATE_CONV          IEXTOL          10D-  5             ***   
       ESTATE_DIAG          IEXDIG         ITERATIVE   [  0]    ***   
       ESTATE_LOCK          IESLOC         ON          [  1]    ***   
       ESTATE_MAXC          IEXMXC             40               ***   
       ESTATE_PROP          IEXPRP         OFF         [  0]    ***   
       ESTATE_SYM           IEXSYM   0,  3,  0,  0,
       EVAL_HESS            IRECAL              0            # of cyc.
       EXCITATION           IEXCIT              0               ***   
       EXCITE               IEXCIT         EOMEE       [  3]    ***   
       EXTERN_POT           IEXPOT         OFF         [  0]    ***   
       FCGRADNEW            IFCGNW         OFF         [  0]    ***   
       FC_FIELD             IFINFC              0             x 10-6  
       FD_CALTYPE           IFDCAL         GRADONLY    [  0]    ***   
       FD_PROJECT           IFDPRJ         OFF         [  1]    ***   
       FD_STEPSIZE          IDISFD              0            10-4 bohr
       FD_USEGROUP          IFDGRP         FULL        [  0]    ***   
       FILE_RECSIZ          IFLREC              4096           words  
       FINITE_PERT          IFIPER              0             x 10-6  
       FIXGEOM              IFIXGM         OFF         [  0]    ***   
       FOCK                 IFOCK          AO          [  1]    ***   
       FREQ_ALGORI          IVIALG         STANDARD    [  0]    ***   
       FROZEN_CORE          IFROCO         OFF         [  0]    ***   
       GAMMA_ABCD           IGABCD         STORE       [  0]    ***   
       GAMMA_ABCI           IGABCI         STORE       [  0]    ***   
       GENBAS_1             IGNBS1              0               ***   
       GENBAS_2             IGNBS2              0               ***   
       GENBAS_3             IGNBS3              0               ***   
       GENBAS_4             IGNBS4              0               ***   
       GEO_CONV             ICONTL              5              H/bohr 
       GEO_MAXCYC           IOPTCY             50               ***   
       GEO_MAXSTEP          IMXSTP            300            millibohr
       GEO_METHOD           INR            SINGLE_POINT[  5]    ***   
       GIAO                 IGIAO          OFF         [  1]    ***   
       GIMIC                IGIMIC         OFF         [  0]    ***   
       GRID                 IGRID          OFF         [  0]    ***   
       GRID_ALGO            IGALGO         SERIAL      [  0]    ***   
       GUESS                IGUESS         MOREAD      [  0]    ***   
       HBAR                 IHBAR          ON          [  1]    ***   
       HESS_TYPE            IHESTP         SCF         [  0]    ***   
       HF2_FILE             IHF2Fl         USE         [  1]    ***   
       HFSTABILITY          ISTABL         OFF         [  0]    ***   
       INCORE               INCORE         OFF         [  0]    ***   
       INPUT_MRCC           IMRCC          ON          [  1]    ***   
       INTEGRALS            INTTYP         VMOL        [  1]    ***   
       JODA_PRINT           IJPRNT              0               ***   
       KEYWORD_OUT          IDMPKW         NO          [  0]    ***   
       LINDEP_TOL           ILINDP              8               ***   
       LINEQ_CONV           IZTACN          10D-  7           cycles  
       LINEQ_EXPOR          ILMAXD              5               ***   
       LINEQ_MAXCY          ILMAXC            100               ***   
       LINEQ_TYPE           ILTYPE         DIIS        [  1]    ***   
       LOCK_ORBOCC          ILOCOC         OFF         [  0]    ***   
       MEMORY_SIZE          IMEMSZ         *********           words  
       MEM_UNIT             IMEMU          GB          [  3]    ***   
       MRCC                 IMRCCC         OFF         [  0]    ***   
       MULTIPLICTY          IMULTP              1               ***   
       NACOUPLING           IVCOUP         OFF         [  0]    ***   
       NEGEVAL              IDIE           ABORT       [  0]    ***   
       NEWNORM              INEWNO         OFF         [  0]    ***   
       NON-HF               INONHF         OFF         [  0]    ***   
       NTOP_TAMP            ITOPT2             15               ***   
       NUC_MODEL            INUCMO         POINT       [  0]    ***   
       OCCUPATION           IOCCU   ESTIMATED BY SCF 
       OPEN-SHELL           IOPEN          SPIN-ORBITAL[  0]    ***   
       OPTVIB               IOPTVB         OFF         [  0]    ***   
       ORBITALS             IORBTP         STANDARD    [  0]    ***   
       PARALLEL             IPARAL         ON          [  1]    ***   
       PARA_INT             IPINTS         ON          [  1]    ***   
       PARA_PRINT           IPPRIN              0               ***   
       PERT_ORB             IPTORB         STANDARD    [  0]    ***   
       POINTS               IGRDFD              0               ***   
       PRINT                IPRNT               0               ***   
       PROPS                IPROPS         OFF         [  0]    ***   
       PROP_INTEGR          IINTYP         INTERNAL    [  0]    ***   
       PSI                  IPSI           OFF         [  0]    ***   
       QC_ALG               IQCALG         FLM         [  0]    ***   
       QC_LINALG            IQCLIN         TRIDIAG     [  2]    ***   
       QC_MAXCYC            IQCMAX          10D-100           cycles  
       QC_MAXSCFCY          IQCMSC          10D- 15           cycles  
       QC_RTRUST            IQCRTR          10D-  0           x 10-3  
       QC_SKIPSCF           IQCSKI         OFF         [  0]    ***   
       QC_START             IQCSTA          10D-  1             ***   
       QRHFGUESS            IQGUES         OFF         [  0]    ***   
       QUARTIC              IQUART         OFF         [  0]    ***   
       RAMAN_INT            IRAMIN         OFF         [  0]    ***   
       RAMAN_ORB            IRAMRE         UNRELAXED   [  0]    ***   
       RDO                  IRDOFM         OFF         [  0]    ***   
       REDUCE_REPR          REDREP         Ir          [  0]    ***   
       REFERENCE            IREFNC         RHF         [  0]    ***   
       RELATIVIST           IRELAT         OFF         [  0]    ***   
       RELAX_DENS           IRDENS         OFF         [  0]    ***   
       RESET_FLAGS          IRESET         OFF         [  0]    ***   
       RESTART_CC           ICCRES         OFF         [  0]    ***   
       ROT_EVEC             ROTVEC              0               ***   
       SAVE_INTS            ISVINT         OFF         [  0]    ***   
       SCALE_ON             ISTCRT              0               ***   
       SCF_CONV             ISCFCV          10D-  7             ***   
       SCF_DAMPING          IDAMP             500             x 10-3  
       SCF_EXPORDE          IRPPOR              6               ***   
       SCF_EXPSTAR          IRPPLS              8               ***   
       SCF_EXTRAPO          IRPP           ON          [  1]    ***   
       SCF_MAXCYC           ISCFCY            300              cycles 
       SCF_NOSTOP           ISCFST         OFF         [  0]    ***   
       SCF_PRINT            ISCFPR              0               ***   
       SCF_PROG             ISCFPR         SCF         [  0]    ***   
       SD_FIELD             IFINSD              0             x 10-6  
       SOPERT               IPERSO         OFF         [  0]    ***   
       SPHERICAL            IDFGHI         ON          [  1]    ***   
       SPINORBIT            ISOCAL         OFF         [  0]    ***   
       SPINROTATIO          ISRCON         OFF         [  0]    ***   
       SPIN_FLIP            ISPFLP         OFF         [  0]    ***   
       SPIN_ORBIT           ISPORB         OFF         [  0]    ***   
       SPIN_SCAL            ISCSMP         OFF         [  0]    ***   
       STEEPSCALE           ISTPSC              1000          x 10-3  
       SUBGROUP             ISUBGP         DEFAULT     [  0]    ***   
       SUBGRPAXIS           ISBXYZ         X           [  0]    ***   
       SYMMETRY             ISYM           ON          [  0]    ***   
       SYM_CHECK            ISYMCK         OVERRIDE    [  1]    ***   
       T3_EXTRAPOL          IT3EXT         OFF         [  0]    ***   
       T4_EXTRAPOL          IT4EXP         OFF         [  0]    ***   
       TAMP_SUM             IEVERY              5               ***   
       TESTSUITE            ITESTS         OFF         [  0]    ***   
       THERMOCH             ITHERM         OFF         [  0]    ***   
       TOL_CHOLESK          ITOLCH          10D-  4             ***   
       TRANGRAD             IRESRM         OFF         [  0]    ***   
       TRANS_INV            ITRAIN         USE         [  0]    ***   
       TREAT_PERT           ITREAT         SIMULTANEOUS[  0]    ***   
       TRIP_ALGORI          ITRALG         NORMAL      [  0]    ***   
       UIJ_THRESHO          IUIJTH              1               ***   
       UNITS                IUNITS         ANGSTROM    [  0]    ***   
       UNOS                 IUNOS          OFF         [  0]    ***   
       UPDATE_HESS          IHUPDT         ON          [  1]    ***   
       VIBPHASE             ISETPH         STANDARD    [  0]    ***   
       VIBRATION            IVIB           NO          [  0]    ***   
       VIB_ALGORIT          IGEALG         STANDARD    [  0]    ***   
       VNATORB              IVNORB         OFF         [  0]    ***   
       VTRAN                IVTRAN         FULL/PARTIAL[  0]    ***   
       XFIELD               IXEFLD              0             x 10-6  
       XFORM_TOL            IXFTOL          10D- 11             ***   
       YFIELD               IYEFLD              0             x 10-6  
       ZFIELD               IZEFLD              0             x 10-6  
       ZSCALE_EXP           IZEXPS         OFF         [  0]    ***   
    -------------------------------------------------------------------
  @GETXYZ-I,     7 atoms read from ZMAT.
   Rotational constants (in cm-1): 
          0.4680516731             0.7101932235             0.8536890782
   Rotational constants (in MHz): 
      14031.8381211834         21291.0601959091         25592.9582983935
********************************************************************************
   The full molecular point group is C2v .
   The largest Abelian subgroup of the full molecular point group is C2v .
   The computational point group is C2v .
********************************************************************************


 ----------------------------------------------------------------
         Coordinates used in calculation (QCOMP) 
 ----------------------------------------------------------------
 Z-matrix   Atomic            Coordinates (in bohr)
  Symbol    Number           X              Y              Z
 ----------------------------------------------------------------
     C         6        -1.25572327     0.00000000    -0.29739135
     C         6         1.25572327     0.00000000    -0.29739135
     H         1        -2.19034422     1.81857454    -0.29739135
     H         1         2.19034422     1.81857454    -0.29739135
     H         1        -2.19034422    -1.81857454    -0.29739135
     H         1         2.19034422    -1.81857454    -0.29739135
     H         1         0.00000000     0.00000000     8.27154098
 ----------------------------------------------------------------
 
   Interatomic distance matrix (Angstroms) 
 
                 C             C             H             H             H    
                [ 1]        [ 2]        [ 3]        [ 4]        [ 5]
  C    [ 1]     0.00000
  C    [ 2]     1.32900     0.00000
  H    [ 3]     1.08200     2.06193     0.00000
  H    [ 4]     2.06193     1.08200     2.31816     0.00000
  H    [ 5]     1.08200     2.06193     1.92470     3.01303     0.00000
  H    [ 6]     2.06193     1.08200     3.01303     1.92470     2.31816
  H    [ 7]     4.58291     4.58291     4.77819     4.77819     4.77819
 
                 H             H    
                [ 6]        [ 7]
  H    [ 6]     0.00000
  H    [ 7]     4.77819     0.00000
 rotcon2
   Rotational constants (in cm-1): 
          0.7101932235             0.4680516731             0.8536890782
   Rotational constants (in MHz): 
      21291.0601959091         14031.8381211834         25592.9582983935
  ECPDATA file not present.   Using default ECPDATA. 
  There are   57 basis functions.
 @GEOPT-W, Archive file not created for single-point calculation.
 @CHECKOUT-I, Total execution time (CPU/WALL):        0.12/       0.13 seconds.
--executable xjoda finished with status     0 in        0.15 seconds (walltime).
 --invoking executable--
/home/tsommerfeld/zscale/bin/xvmol
 SERIAL VERSION OF MOLECULE STARTED
********************************************************************************
                    INPUT FROM MOL FILE
********************************************************************************
INTGRL        1    0    1    0    0    0    0    0    0                         
         *** CFOUR Program System (Release V0.1) ***                            
h_ethylene                                                                      
    3    2 X  Y       0.10E-08              0    0                              
   9999.00      3.00                                                            
          6.00000000    1    3    1    1    1                                   
C #1  -1.255723272983657   0.000000000000000  -0.297391345978901                
    9    3                                                                      
   6665.00000000000       6.920000000000000E-004 -1.460000000000000E-004        
  0.000000000000000E+000                                                        
   1000.00000000000       5.329000000000000E-003 -1.154000000000000E-003        
  0.000000000000000E+000                                                        
   228.000000000000       2.707700000000000E-002 -5.725000000000000E-003        
  0.000000000000000E+000                                                        
   64.7100000000000       0.101718000000000      -2.331200000000000E-002        
  0.000000000000000E+000                                                        
   21.0600000000000       0.274740000000000      -6.395500000000000E-002        
  0.000000000000000E+000                                                        
   7.49500000000000       0.448564000000000      -0.149981000000000             
  0.000000000000000E+000                                                        
   2.79700000000000       0.285074000000000      -0.127262000000000             
  0.000000000000000E+000                                                        
  0.521500000000000       1.520400000000000E-002  0.544529000000000             
  0.000000000000000E+000                                                        
  0.159600000000000      -3.191000000000000E-003  0.580496000000000             
   1.00000000000000                                                             
    4    2                                                                      
   9.43900000000000       3.810900000000000E-002  0.000000000000000E+000        
   2.00200000000000       0.209480000000000       0.000000000000000E+000        
  0.545600000000000       0.508557000000000       0.000000000000000E+000        
  0.151700000000000       0.468842000000000        1.00000000000000             
    1    1                                                                      
  0.550000000000000        1.00000000000000                                     
          1.00000000    1    2    1    1                                        
H #2  -2.190344215575466   1.818574537711477  -0.297391345978901                
    4    2                                                                      
   13.0100000000000       1.968500000000000E-002  0.000000000000000E+000        
   1.96200000000000       0.137977000000000       0.000000000000000E+000        
  0.444600000000000       0.478148000000000       0.000000000000000E+000        
  0.122000000000000       0.501240000000000        1.00000000000000             
    1    1                                                                      
  0.727000000000000        1.00000000000000                                     
          1.00000000    1    2    1    1                                        
H #3   0.000000000000000   0.000000000000000   8.271540980496846                
    5    3                                                                      
   13.0100000000000       1.968500000000000E-002  0.000000000000000E+000        
  0.000000000000000E+000                                                        
   1.96200000000000       0.137977000000000       0.000000000000000E+000        
  0.000000000000000E+000                                                        
  0.444600000000000       0.478148000000000       0.000000000000000E+000        
  0.000000000000000E+000                                                        
  0.122000000000000       0.501240000000000        1.00000000000000             
  0.000000000000000E+000                                                        
  2.974000000000000E-002  0.000000000000000E+000  0.000000000000000E+000        
   1.00000000000000                                                             
    2    2                                                                      
  0.727000000000000        1.00000000000000       0.000000000000000E+000        
  0.141000000000000       0.000000000000000E+000   1.00000000000000             
FINISH                                                                          
 
********************************************************************************
 ONE- AND TWO-ELECTRON INTEGRALS OVER SYMMETRY-ADAPTED AOS ARE CALCULATED.

  SPHERICAL HARMONICS ARE USED.
  
  INTEGRALS LESS THAN  0.10E-13 ARE NEGLECTED.

  NUCLEAR REPULSION ENERGY :   35.4178179949 A.U.
  @MOLECU-I, ONE ELECTRON INTEGRALS (CPU/WALL):        0.01/       0.01 SECONDS.
  @TWOEL-I,      29250 INTEGRALS OF SYMMETRY TYPE  I I I I
  @TWOEL-I,      98476 INTEGRALS OF SYMMETRY TYPE  I J I J
  @TWOEL-I,      57352 INTEGRALS OF SYMMETRY TYPE  I I J J
  @TWOEL-I,      71993 INTEGRALS OF SYMMETRY TYPE  I J K L
  @TWOEL-I, TOTAL NUMBER OF 2-E INTEGRALS     257071.
  @MOLECU-I, TWO ELECTRON INTEGRALS (CPU/WALL):        0.19/       0.20 SECONDS.
 @CHECKOUT-I, Total execution time (CPU/WALL):        0.21/       0.22 seconds.

Running with 8 threads/proc

--executable xvmol finished with status     0 in        0.24 seconds (walltime).
 --invoking executable--
/home/tsommerfeld/zscale/bin/xvmol2ja
 @GETMEM-I,  Allocated   85830 MB of main memory.
 @CHECKOUT-I, Total execution time (CPU/WALL):        0.02/       0.01 seconds.
--executable xvmol2ja finished with status     0 in        0.03 seconds (walltime).
 --invoking executable--
/home/tsommerfeld/zscale/bin/xvscf
  There are   57 functions in the AO basis.

  There are 4 irreducible representations.

       Irrep        # of functions
         1                 20
         2                 17
         3                 11
         4                  9


  Parameters for SCF calculation: 
        SCF reference function:  RHF  
  Maximum number of iterations:  300
     Full symmetry point group: C2v 
     Computational point group: C2v 
        Initial density matrix: MOREAD                 
     SCF convergence tolerance: 10**(- 7)
  DIIS convergence acceleration:  ON
          Latest start for DIIS:   8
                     DIIS order:   6

  Memory information:     156410 words required.
  Fock matrices are constructed from AO integral file.
 @GETMEM-I,  Allocated       1 MB of main memory.
  Initialization and symmetry analysis required      0.002 seconds.

  @INITGES-I, Occupancies from core Hamiltonian:

          Alpha population by irrep:   3    4    1    1
           Beta population by irrep:   3    4    1    1


 total no. of electrons in initial guess :  0.000000000000000E+000
  --------------------------------------------------------------------
  Iteration         Total Energy            Largest Density Difference
  --------------------------------------------------------------------
       0            35.417817994905860              0.0000000000D+00
   current occupation vector 
     3  4  1  1
     3  4  1  1
  applying damping factor of   0.500000000000000     
       1           -39.435668011623633              0.8822262011D+01
   current occupation vector 
     3  4  1  1
     3  4  1  1
  applying damping factor of   0.500000000000000     
       2           -60.750640848990145              0.3199480430D+01
   current occupation vector 
     4  3  1  1
     4  3  1  1
  applying damping factor of   0.500000000000000     
       3           -69.779488973944723              0.2680006040D+01
   current occupation vector 
     5  2  1  1
     5  2  1  1
  applying damping factor of   0.500000000000000     
       4           -74.159162186048761              0.1423532324D+01
   current occupation vector 
     5  2  1  1
     5  2  1  1
  applying damping factor of   0.500000000000000     
       5           -76.333298028714168              0.7377379731D+00
   current occupation vector 
     5  2  1  1
     5  2  1  1
  applying damping factor of   0.500000000000000     
       6           -77.422077457406090              0.3790654675D+00
   current occupation vector 
     5  2  1  1
     5  2  1  1
  applying damping factor of   0.500000000000000     
       7           -77.968689901742621              0.2282813142D+00
   current occupation vector 
     5  2  1  1
     5  2  1  1
       8           -78.519344272464636              0.1225884950D+00
   current occupation vector 
     5  2  1  1
     5  2  1  1
       9           -78.519347207150588              0.2529136945D-02
   current occupation vector 
     5  2  1  1
     5  2  1  1
      10           -78.519347337982779              0.3496579635D-03
   current occupation vector 
     5  2  1  1
     5  2  1  1
      11           -78.519347343562941              0.6079151880D-04
   current occupation vector 
     5  2  1  1
     5  2  1  1
      12           -78.519347343741643              0.9245674316D-05
   current occupation vector 
     5  2  1  1
     5  2  1  1
      13           -78.519347343757914              0.4384948411D-05
   current occupation vector 
     5  2  1  1
     5  2  1  1
      14           -78.519347343758994              0.9297703729D-06
   current occupation vector 
     5  2  1  1
     5  2  1  1
      15           -78.519347343759080              0.1838324966D-06
   current occupation vector 
     5  2  1  1
     5  2  1  1

  SCF has converged.

 Density matrix saved to file den.dat
 total electron number:   18.0000000000000     
     E(SCF)=       -78.519347343759151              0.4644079865D-07


  Final occupancies:

     Alpha population by irrep:   5    2    1    1
      Beta population by irrep:   5    2    1    1


  Eigenvector printing suppressed.

 @PUTMOS-I, Writing converged MOs to NEWMOS. 
 @PUTMOS-I, Symmetry   1 Full Blocks  5 Partial Blocksize   0
 @PUTMOS-I, Symmetry   2 Full Blocks  4 Partial Blocksize   1
 @PUTMOS-I, Symmetry   3 Full Blocks  2 Partial Blocksize   3
 @PUTMOS-I, Symmetry   4 Full Blocks  2 Partial Blocksize   1
 @PUTFOCK-I, Writing converged Fock matrix to NEWFOCK. 
 @PUTFOCK-I, Symmetry   1 Full Blocks  5 Partial Blocksize   0
 @PUTFOCK-I, Symmetry   2 Full Blocks  4 Partial Blocksize   1
 @PUTFOCK-I, Symmetry   3 Full Blocks  2 Partial Blocksize   3
 @PUTFOCK-I, Symmetry   4 Full Blocks  2 Partial Blocksize   1


 
  ORBITAL EIGENVALUES (ALPHA)  (1H = 27.2113834 eV)

       MO #        E(hartree)               E(eV)           FULLSYM    COMPSYM
       ----   --------------------   --------------------   -------   ---------
    1     1         -11.1213237809        -302.6266053177      A1        A1 (1)
    2    21         -11.1196162689        -302.5801415552      B1        B1 (2)
    3     2          -0.9255340916         -25.1850630168      A1        A1 (1)
    4    22          -0.6677702441         -18.1709521341      B1        B1 (2)
    5    38          -0.5458185829         -14.8524787251      B2        B2 (3)
    6     3          -0.4524418802         -12.3115694681      A1        A1 (1)
    7    49          -0.4020186532         -10.9394837069      A2        A2 (4)
    8     4          -0.2609412523          -7.1005724604      A1        A1 (1)
    9     5          -0.0419467670          -1.1414295598      A1        A1 (1)
  +++++++++++++++++++++++++++++++++++++++++++++++++++++++++++++++++++++++++++++
   10     6           0.2806405888           7.6366186607      A1        A1 (1)
   11    23           0.2839516005           7.7267158673      B1        B1 (2)
   12     7           0.3181693466           8.6578280752      A1        A1 (1)
   13    39           0.3332963140           9.0694537867      B2        B2 (3)
   14    24           0.3505460960           9.5388442188      B1        B1 (2)
   15    50           0.4053473650          11.0300625598      A2        A2 (4)
   16    25           0.5524863214          15.0339171153      B1        B1 (2)
   17     8           0.5585487872          15.1988851949      A1        A1 (1)
   18    26           0.5614479387          15.2777751196      E         B1 (2)
   19    40           0.5614516059          15.2778749084      E         B2 (3)
   20     9           0.6685364134          18.1918006627      A1        A1 (1)
   21    41           0.7651658834          20.8212222188      B2        B2 (3)
   22    10           0.8007624545          21.7898541619      A1        A1 (1)
   23    11           0.8385943994          22.8193137192      A1        A1 (1)
   24    27           0.9025305723          24.5591054337      B1        B1 (2)
   25    28           0.9240678697          25.1451650890      B1        B1 (2)
   26    42           0.9743921007          26.5145570329      B2        B2 (3)
   27    51           1.0481481571          28.5215613620      A2        A2 (4)
   28    29           1.0748826447          29.2490437547      B1        B1 (2)
   29    12           1.0979335876          29.8762918007      A1        A1 (1)
   30    13           1.1149314718          30.3388277435      A1        A1 (1)
   31    43           1.2294470190          33.4549542029      B2        B2 (3)
   32    30           1.3480548283          36.6824367772      B1        B1 (2)
   33    14           1.3984715665          38.0543459701      A1        A1 (1)
   34    52           1.3986655063          38.0596233401      A2        A2 (4)
   35    53           1.4562416926          39.6263510192      A2        A2 (4)
   36    15           1.7082163747          46.4829307035      A1        A1 (1)
   37    54           1.7249572712          46.9384736549      A2        A2 (4)
   38    44           1.8008528423          49.0036971378      B2        B2 (3)
   39    31           1.9408453676          52.8130874177      B1        B1 (2)
   40    32           1.9884169170          54.1075750888      B1        B1 (2)
   41    16           2.0300558963          55.2406293173      A1        A1 (1)
   42    17           2.0443310083          55.6290748640      A1        A1 (1)
   43    45           2.0984928206          57.1028927037      B2        B2 (3)
   44    46           2.1313059230          57.9957826121      B2        B2 (3)
   45    47           2.1433260352          58.3228664954      B2        B2 (3)
   46    33           2.1437200357          58.3335877928      B1        B1 (2)
   47    18           2.1495710408          58.4928017374      A1        A1 (1)
   48    34           2.2808487499          62.0650498106      B1        B1 (2)
   49    35           2.3767288614          64.6740802858      B1        B1 (2)
   50    55           2.5271177506          68.7663700079      A2        A2 (4)
   51    19           2.5272955126          68.7712071584      A1        A1 (1)
   52    56           2.5994279774          70.7340313127      A2        A2 (4)
   53    36           2.6421471955          71.8964803357      B1        B1 (2)
   54    48           2.8994478030          78.8979858160      B2        B2 (3)
   55    20           2.9010853213          78.9425449542      A1        A1 (1)
   56    37           3.3404697801          90.8988039221      B1        B1 (2)
   57    57           3.4506787980          93.8977437619      A2        A2 (4)


  VSCF finished.

 @CHECKOUT-I, Total execution time (CPU/WALL):        0.22/       0.09 seconds.
--executable xvscf finished with status     0 in        0.10 seconds (walltime).
 --invoking executable--
/home/tsommerfeld/zscale/bin/xvtran
 @GETMEM-I,  Allocated   85830 MB of main memory.
  Full RHF integral transformation
  Transformation of IIII integrals :
  1 pass through the AO integral file was required.
       29250 AO integrals were read.
       37182 MO integrals were written to HF2.
  Transformation of IIJJ integrals :
  1 pass through the AO integral file was required.
       57352 AO integrals were read.
       75393 MO integrals were written to HF2.
  Transformation of IJIJ integrals :
  1 pass through the AO integral file was required.
       98476 AO integrals were read.
      132879 MO integrals were written to HF2.
  Transformation of IJKL integrals :
  1 pass through the AO integral file was required.
       71993 AO integrals were read.
      100980 MO integrals were written to HF2.
  Summary of active molecular orbitals: 
------------------------------------------------------------------------
 
  Index      Eigenvalue    Symmetry    Index      Eigenvalue    Symmetry
------------------------------------------------------------------------
     1       -11.1213238        1        30         0.9240679        2
     2        -0.9255341        1        31         1.0748826        2
     3        -0.4524419        1        32         1.3480548        2
     4        -0.2609413        1        33         1.9408454        2
     5        -0.0419468        1        34         1.9884169        2
     6       -11.1196163        2        35         2.1437200        2
     7        -0.6677702        2        36         2.2808487        2
     8        -0.5458186        3        37         2.3767289        2
     9        -0.4020187        4        38         2.6421472        2
    10         0.2806406        1        39         3.3404698        2
    11         0.3181693        1        40         0.3332963        3
    12         0.5585488        1        41         0.5614516        3
    13         0.6685364        1        42         0.7651659        3
    14         0.8007625        1        43         0.9743921        3
    15         0.8385944        1        44         1.2294470        3
    16         1.0979336        1        45         1.8008528        3
    17         1.1149315        1        46         2.0984928        3
    18         1.3984716        1        47         2.1313059        3
    19         1.7082164        1        48         2.1433260        3
    20         2.0300559        1        49         2.8994478        3
    21         2.0443310        1        50         0.4053474        4
    22         2.1495710        1        51         1.0481482        4
    23         2.5272955        1        52         1.3986655        4
    24         2.9010853        1        53         1.4562417        4
    25         0.2839516        2        54         1.7249573        4
    26         0.3505461        2        55         2.5271178        4
    27         0.5524863        2        56         2.5994280        4
    28         0.5614479        2        57         3.4506788        4
    29         0.9025306        2
------------------------------------------------------------------------
  -11.1213237809041      -0.925534091618014      -0.452441880192878     
 -0.260941252271766      -4.194676702093530E-002  -11.1196162689477     
 -0.667770244055228      -0.545818582861735      -0.402018653225599     
  0.280640588844801       0.318169346553631       0.558548787157519     
  0.668536413428691       0.800762454505890       0.838594399399699     
   1.09793358762815        1.11493147178779        1.39847156650176     
   1.70821637474908        2.03005589628703        2.04433100832395     
   2.14957104082446        2.52729551259969        2.90108532130562     
  0.283951600463407       0.350546096044389       0.552486321415057     
  0.561447938718203       0.902530572321348       0.924067869662008     
   1.07488264469043        1.34805482830512        1.94084536759333     
   1.98841691704800        2.14372003566596        2.28084874988847     
   2.37672886141644        2.64214719548934        3.34046978008774     
  0.333296314023501       0.561451605888538       0.765165883437062     
  0.974392100657516        1.22944701896103        1.80085284226235     
   2.09849282060909        2.13130592295072        2.14332603521394     
   2.89944780300959       0.405347365020907        1.04814815706772     
   1.39866550629393        1.45624169255397        1.72495727118754     
   2.52711775057646        2.59942797736365        3.45067879797251     
 @CHECKOUT-I, Total execution time (CPU/WALL):        0.54/       0.09 seconds.
--executable xvtran finished with status     0 in        0.11 seconds (walltime).
 --invoking executable--
/home/tsommerfeld/zscale/bin/xintprc
 @GETMEM-I,  Allocated   85830 MB of main memory.
  Processing integrals for CCSD calculation.
  @GMOIAA-I, Processing MO integrals for spin case AA.
  @GMOIAA-I, Generation of integral list completed.
                      TYPE                NUMBER
                      ----               --------
                      PPPP                174781
                      PPPH                128448
                      PPHH                 24003
                      PHPH                 13755
                      PHHH                  5115
                      HHHH                   332

                     TOTAL                346434

  @FORMT2-I, Second-order MP correlation energies:
            ------------------------------------------------
            E(SCF)                  =    -78.519347343759 a.u.
            E2(AA)                  =     -0.031176876201 a.u.
            E2(AB)                  =     -0.243708929414 a.u.
            E2(TOT)                 =     -0.306062681817 a.u.
            Total MP2 energy        =    -78.825410025576 a.u.
            ------------------------------------------------
   Largest T2 amplitudes for spin case AB:
       _       _                 _       _                 _       _
   i   j   a   b             i   j   a   b             i   j   a   b
-----------------------------------------------------------------------------
[  4   4  25  25]-0.09201 [  5   5  10  10]-0.07087 [  5   5  41  41]-0.04481
[  5   5  28  28]-0.04473 [  5   5  12  12]-0.04370 [  5   5  11  10] 0.03850
[  5   5  10  11] 0.03850 [  5   5  16  16]-0.03629 [  4   4  30  25] 0.03050
[  4   4  25  30] 0.03050 [  5   5  16  10] 0.02955 [  5   5  10  16] 0.02955
[  4   3  25  31] 0.02659 [  3   4  31  25] 0.02659 [  4   4  14  14]-0.02630
-----------------------------------------------------------------------------
   Norm of T2AB vector (    47574 symmetry allowed elements):  0.3154366194.
-----------------------------------------------------------------------------
 @CHECKOUT-I, Total execution time (CPU/WALL):        0.39/       0.10 seconds.
--executable xintprc finished with status     0 in        0.11 seconds (walltime).
  calling xvcc 
 --invoking executable--
/home/tsommerfeld/zscale/bin/xvcc
 @GETMEM-I,  Allocated   85830 MB of main memory.
   CCSD energy will be calculated.
   The total correlation energy is -0.306062681817 a.u.
   The total correlation energy is -0.332005110123 a.u.
  Convergence information after     1 iterations: 
  Largest element of residual vector : -0.27932781E-01.
  Largest element of DIIS residual   : -0.27932781E-01.
   The total correlation energy is -0.342064191813 a.u.
  Convergence information after     2 iterations: 
  Largest element of residual vector : -0.13202443E-01.
  Largest element of DIIS residual   : -0.10409913E-01.
   The total correlation energy is -0.346223059539 a.u.
  Convergence information after     3 iterations: 
  Largest element of residual vector : -0.46120180E-02.
  Largest element of DIIS residual   : -0.41694929E-02.
   The total correlation energy is -0.347281347325 a.u.
  Convergence information after     4 iterations: 
  Largest element of residual vector : -0.21630815E-02.
  Largest element of DIIS residual   : -0.12135823E-02.
   The total correlation energy is -0.347466725147 a.u.
  Convergence information after     5 iterations: 
  Largest element of residual vector : -0.60153174E-03.
  Largest element of DIIS residual   :  0.32715249E-03.
   The total correlation energy is -0.347462010577 a.u.
  Convergence information after     6 iterations: 
  Largest element of residual vector : -0.24292766E-03.
  Largest element of DIIS residual   :  0.18700739E-03.
   The total correlation energy is -0.347453140630 a.u.
  Convergence information after     7 iterations: 
  Largest element of residual vector :  0.10908067E-03.
  Largest element of DIIS residual   : -0.56427984E-04.
   The total correlation energy is -0.347445810640 a.u.
  Convergence information after     8 iterations: 
  Largest element of residual vector :  0.36008150E-04.
  Largest element of DIIS residual   :  0.20345446E-04.
   The total correlation energy is -0.347444875968 a.u.
  Convergence information after     9 iterations: 
  Largest element of residual vector : -0.15033369E-04.
  Largest element of DIIS residual   : -0.10920475E-04.
   The total correlation energy is -0.347445236037 a.u.
  Convergence information after    10 iterations: 
  Largest element of residual vector : -0.48903409E-05.
  Largest element of DIIS residual   : -0.52275338E-05.
   The total correlation energy is -0.347445831266 a.u.
  Convergence information after    11 iterations: 
  Largest element of residual vector : -0.32141698E-05.
  Largest element of DIIS residual   : -0.28459228E-05.
   The total correlation energy is -0.347446249047 a.u.
  Convergence information after    12 iterations: 
  Largest element of residual vector : -0.14903023E-05.
  Largest element of DIIS residual   : -0.10574226E-05.
   The total correlation energy is -0.347446492309 a.u.
  Convergence information after    13 iterations: 
  Largest element of residual vector : -0.68970507E-06.
  Largest element of DIIS residual   : -0.44240568E-06.
   The total correlation energy is -0.347446528974 a.u.
  Convergence information after    14 iterations: 
  Largest element of residual vector : -0.22006849E-06.
  Largest element of DIIS residual   :  0.17400543E-06.
   The total correlation energy is -0.347446521579 a.u.
  Convergence information after    15 iterations: 
  Largest element of residual vector : -0.10732583E-06.
  Largest element of DIIS residual   :  0.98035442E-07.
   The total correlation energy is -0.347446513110 a.u.
  Convergence information after    16 iterations: 
  Largest element of residual vector :  0.54604454E-07.
  Largest element of DIIS residual   :  0.36561613E-07.
  Amplitude equations converged in    16iterations.
   The total correlation energy is -0.347446507981 a.u.
   The CC iterations have converged.

   Largest T1 amplitudes for spin case AA:
   i       a                 i       a                 i       a    
-----------------------------------------------------------------------------
[  5      10    ]-0.02184 [  4      14    ]-0.01768 [  4      18    ] 0.01584
[  4      15    ] 0.01572 [  5      16    ]-0.01423 [  8      42    ]-0.00613
[  4      21    ] 0.00586 [  5      11    ] 0.00554 [  5      17    ] 0.00525
[  4      12    ] 0.00489 [  3      13    ]-0.00483 [  9      56    ] 0.00446
[  9      50    ]-0.00434 [  3      23    ] 0.00402 [  8      45    ] 0.00400
-----------------------------------------------------------------------------
   Norm of T1AA vector (      123 symmetry allowed elements):  0.0436951140.
-----------------------------------------------------------------------------
   Largest T2 amplitudes for spin case AB:
       _       _                 _       _                 _       _
   i   j   a   b             i   j   a   b             i   j   a   b
-----------------------------------------------------------------------------
[  4   4  25  25]-0.13502 [  5   5  10  10]-0.13091 [  5   5  11  10] 0.07107
[  5   5  10  11] 0.07107 [  5   5  41  41]-0.06300 [  5   5  28  28]-0.06285
[  5   5  12  12]-0.06131 [  5   5  16  10] 0.05653 [  5   5  10  16] 0.05653
[  4   4  30  25] 0.04217 [  4   4  25  30] 0.04217 [  5   5  16  16]-0.04131
[  5   5  11  11]-0.03926 [  5   5  16  11]-0.03152 [  5   5  11  16]-0.03152
-----------------------------------------------------------------------------
   Norm of T2AB vector (    47574 symmetry allowed elements):  0.4112974034.
-----------------------------------------------------------------------------
       Summary of iterative solution of CC equations 
      -----------------------------------------------------------
                       Correlation           Total
       Iteration         Energy              Energy
      -----------------------------------------------------------
            0        -0.306062681817     -78.825410025576  DIIS 
            1        -0.332005110123     -78.851352453882  DIIS 
            2        -0.342064191813     -78.861411535572  DIIS 
            3        -0.346223059539     -78.865570403298  DIIS 
            4        -0.347281347325     -78.866628691084  DIIS 
            5        -0.347466725147     -78.866814068906  DIIS 
            6        -0.347462010577     -78.866809354336  DIIS 
            7        -0.347453140630     -78.866800484389  DIIS 
            8        -0.347445810640     -78.866793154399  DIIS 
            9        -0.347444875968     -78.866792219727  DIIS 
           10        -0.347445236037     -78.866792579796  DIIS 
           11        -0.347445831266     -78.866793175025  DIIS 
           12        -0.347446249047     -78.866793592806  DIIS 
           13        -0.347446492309     -78.866793836069  DIIS 
           14        -0.347446528974     -78.866793872733  DIIS 
           15        -0.347446521579     -78.866793865338  DIIS 
           16        -0.347446507981     -78.866793851740  DIIS 
      -----------------------------------------------------------
      A miracle has come to pass. The CC iterations have converged.
      The reference energy is       -78.51934734375915 a.u.
      The correlation energy is      -0.34744650798080 a.u.
      The total energy is           -78.86679385173996 a.u.
 @CHECKOUT-I, Total execution time (CPU/WALL):        5.63/       0.71 seconds.
--executable xvcc finished with status     0 in        0.73 seconds (walltime).
 --invoking executable--
/home/tsommerfeld/zscale/bin/xlambda
 @GETMEM-I,  Allocated   85830 MB of main memory.
 Hbar is calculated for a CCSD wave function.
 Calculation of Hbar completed.
 @CHECKOUT-I, Total execution time (CPU/WALL):        0.93/       0.13 seconds.
--executable xlambda finished with status     0 in        0.15 seconds (walltime).
 --invoking executable--
/home/tsommerfeld/zscale/bin/xvee
 @GETMEM-I,  Allocated   85830 MB of main memory.
  cc2 and ccprog  F                     0
  EOMEE-CCSD excitation energies will be evaluated.
  @SETMET-I, VPROP property integrals are used.
  @SETMET-I, A total of   3 target states will be studied.
  Summary of active alpha molecular orbitals:
------------------------------------------------------------------------------
Orbital      Sym   Eigenvalue  <xx>     <yy>     <zz>     <xy>     <xz>     <yz>
        SCF
  #  position
------------------------------------------------------------------------------
   1      1    1     -11.1213   0.000    0.000    0.000    0.000    0.000    0.000
   2      3    1      -0.9255   0.000    0.000    0.000    0.000    0.000    0.000
   3      6    1      -0.4524   0.000    0.000    0.000    0.000    0.000    0.000
   4      8    1      -0.2609   0.000    0.000    0.000    0.000    0.000    0.000
   5      9    1      -0.0419   0.000    0.000    0.000    0.000    0.000    0.000
   6      2    2     -11.1196   0.000    0.000    0.000    0.000    0.000    0.000
   7      4    2      -0.6678   0.000    0.000    0.000    0.000    0.000    0.000
   8      5    3      -0.5458   0.000    0.000    0.000    0.000    0.000    0.000
   9      7    4      -0.4020   0.000    0.000    0.000    0.000    0.000    0.000
  10     10    1       0.2806   0.000    0.000    0.000    0.000    0.000    0.000
  11     12    1       0.3182   0.000    0.000    0.000    0.000    0.000    0.000
  12     17    1       0.5585   0.000    0.000    0.000    0.000    0.000    0.000
  13     20    1       0.6685   0.000    0.000    0.000    0.000    0.000    0.000
  14     22    1       0.8008   0.000    0.000    0.000    0.000    0.000    0.000
  15     23    1       0.8386   0.000    0.000    0.000    0.000    0.000    0.000
  16     29    1       1.0979   0.000    0.000    0.000    0.000    0.000    0.000
  17     30    1       1.1149   0.000    0.000    0.000    0.000    0.000    0.000
  18     33    1       1.3985   0.000    0.000    0.000    0.000    0.000    0.000
  19     36    1       1.7082   0.000    0.000    0.000    0.000    0.000    0.000
  20     41    1       2.0301   0.000    0.000    0.000    0.000    0.000    0.000
  21     42    1       2.0443   0.000    0.000    0.000    0.000    0.000    0.000
  22     47    1       2.1496   0.000    0.000    0.000    0.000    0.000    0.000
  23     51    1       2.5273   0.000    0.000    0.000    0.000    0.000    0.000
  24     55    1       2.9011   0.000    0.000    0.000    0.000    0.000    0.000
  25     11    2       0.2840   0.000    0.000    0.000    0.000    0.000    0.000
  26     14    2       0.3505   0.000    0.000    0.000    0.000    0.000    0.000
  27     16    2       0.5525   0.000    0.000    0.000    0.000    0.000    0.000
  28     18    2       0.5614   0.000    0.000    0.000    0.000    0.000    0.000
  29     24    2       0.9025   0.000    0.000    0.000    0.000    0.000    0.000
  30     25    2       0.9241   0.000    0.000    0.000    0.000    0.000    0.000
  31     28    2       1.0749   0.000    0.000    0.000    0.000    0.000    0.000
  32     32    2       1.3481   0.000    0.000    0.000    0.000    0.000    0.000
  33     39    2       1.9408   0.000    0.000    0.000    0.000    0.000    0.000
  34     40    2       1.9884   0.000    0.000    0.000    0.000    0.000    0.000
  35     46    2       2.1437   0.000    0.000    0.000    0.000    0.000    0.000
  36     48    2       2.2808   0.000    0.000    0.000    0.000    0.000    0.000
  37     49    2       2.3767   0.000    0.000    0.000    0.000    0.000    0.000
  38     53    2       2.6421   0.000    0.000    0.000    0.000    0.000    0.000
  39     56    2       3.3405   0.000    0.000    0.000    0.000    0.000    0.000
  40     13    3       0.3333   0.000    0.000    0.000    0.000    0.000    0.000
  41     19    3       0.5615   0.000    0.000    0.000    0.000    0.000    0.000
  42     21    3       0.7652   0.000    0.000    0.000    0.000    0.000    0.000
  43     26    3       0.9744   0.000    0.000    0.000    0.000    0.000    0.000
  44     31    3       1.2294   0.000    0.000    0.000    0.000    0.000    0.000
  45     38    3       1.8009   0.000    0.000    0.000    0.000    0.000    0.000
  46     43    3       2.0985   0.000    0.000    0.000    0.000    0.000    0.000
  47     44    3       2.1313   0.000    0.000    0.000    0.000    0.000    0.000
  48     45    3       2.1433   0.000    0.000    0.000    0.000    0.000    0.000
  49     54    3       2.8994   0.000    0.000    0.000    0.000    0.000    0.000
  50     15    4       0.4053   0.000    0.000    0.000    0.000    0.000    0.000
  51     27    4       1.0481   0.000    0.000    0.000    0.000    0.000    0.000
  52     34    4       1.3987   0.000    0.000    0.000    0.000    0.000    0.000
  53     35    4       1.4562   0.000    0.000    0.000    0.000    0.000    0.000
  54     37    4       1.7250   0.000    0.000    0.000    0.000    0.000    0.000
  55     50    4       2.5271   0.000    0.000    0.000    0.000    0.000    0.000
  56     52    4       2.5994   0.000    0.000    0.000    0.000    0.000    0.000
  57     57    4       3.4507   0.000    0.000    0.000    0.000    0.000    0.000
------------------------------------------------------------------------------
  @DRVTDA-I, Roots obtained by Davidson method.
  calling tda davidson                       6                     2
  after tda davidson                      6                     6
                     3                     3
  kroot is                      3
__________________________________________________________________________
    Tamm-Dancoff (CIS) Excitation Energies and Transition Moments

                Excitation         Transition Dipole         Oscillator
 Root  Symmetry  Energy         x           y           z     Strength
__________________________________________________________________________
   1       2    0.20975      0.0000      0.0000      0.0000  .00000000D+00
__________________________________________________________________________
 
__________________________________________________________________________
  TDA excitation ergy:             0.209745738261 a.u.    5.7075 eV
  Total TDA electronic energy:   -78.309601605498 a.u.
 
  Dominant contributions: 
  SCF eigenvalue ordering used in list below. 
--------------------------------------------------------------------------------
    I    j    A    b
--------------------------------------------------------------------------------
    9    0   11    0  -0.9980063456 AA  
    8    0   11    0  -0.0410539545 AA  
    9    0   14    0  -0.0343781758 AA  
    9    0   24    0   0.0175349355 AA  
    9    0   18    0   0.0136716270 AA  
    9    0   32    0   0.0105417096 AA  
    6    0   11    0   0.0099995653 AA  
    6    0   28    0  -0.0067514320 AA  
    9    0   28    0   0.0066576733 AA  
    7    0   13    0   0.0061950065 AA  
    5    0   15    0   0.0061914619 AA  
    6    0   16    0  -0.0059733521 AA  
    4    0   12    0   0.0059249632 AA  
    9    0   25    0  -0.0051325409 AA  
    7    0   21    0   0.0044159033 AA  
--------------------------------------------------------------------------------
   2       2    0.28694      0.0000      0.0000      0.0000  .00000000D+00
__________________________________________________________________________
 
__________________________________________________________________________
  TDA excitation ergy:             0.286943933251 a.u.    7.8081 eV
  Total TDA electronic energy:   -78.232403410509 a.u.
 
  Dominant contributions: 
  SCF eigenvalue ordering used in list below. 
--------------------------------------------------------------------------------
    I    j    A    b
--------------------------------------------------------------------------------
    9    0   14    0  -0.9905861901 AA  
    8    0   11    0  -0.1147767042 AA  
    8    0   14    0  -0.0414688739 AA  
    9    0   11    0   0.0399769627 AA  
    9    0   18    0   0.0302842837 AA  
    7    0   13    0   0.0129186666 AA  
    9    0   25    0  -0.0119830150 AA  
    4    0   12    0   0.0107404770 AA  
    5    0   15    0   0.0104182205 AA  
    6    0   11    0   0.0103767875 AA  
    6    0   14    0   0.0098451170 AA  
    6    0   28    0  -0.0097326386 AA  
    6    0   16    0  -0.0090706896 AA  
    9    0   24    0  -0.0079537455 AA  
    4    0   10    0   0.0076670214 AA  
--------------------------------------------------------------------------------
   3       2    0.30939      0.0000      0.0000      0.0000  .00000000D+00
__________________________________________________________________________
 
__________________________________________________________________________
  TDA excitation ergy:             0.309387711710 a.u.    8.4189 eV
  Total TDA electronic energy:   -78.209959632049 a.u.
 
  Dominant contributions: 
  SCF eigenvalue ordering used in list below. 
--------------------------------------------------------------------------------
    I    j    A    b
--------------------------------------------------------------------------------
    8    0   11    0  -0.9560462441 AA  
    9    0   14    0   0.1221983442 AA  
    6    0   16    0  -0.1076145492 AA  
    6    0   28    0  -0.0924303985 AA  
    4    0   12    0   0.0862954056 AA  
    5    0   15    0   0.0858842404 AA  
    7    0   21    0   0.0765237800 AA  
    7    0   13    0   0.0756140664 AA  
    9    0   18    0   0.0669452819 AA  
    4    0   10    0   0.0619281353 AA  
    3    0   14    0   0.0432884693 AA  
    9    0   11    0   0.0404176343 AA  
    5    0   27    0   0.0399477441 AA  
    6    0   24    0  -0.0386055989 AA  
    6    0   14    0   0.0383857426 AA  
--------------------------------------------------------------------------------
__________________________________________________________________________
  @DOEOMEE-I, Excitation energies computed by the EOMEE-CCSD/CCSD-LR method.
  @DOEOMEE-I, right-hand eigenvectors will be computed.
  Beginning symmetry block   2.   3 roots requested.
  @DOEOMEE-I, Matrix dimension for diagonalization:    47661
  Creating initial guess for root
________________________________________________________________________
            Subspace          Eigenvalue           
 Iteration  Dimension   (a.u.)         (eV)       Overlap      Residual
________________________________________________________________________
  @NEWGES-I, Using TDA initial guess.
  1   1  0.2865798617D+00  0.7798234492D+01  0.0000000000D+00  0.4743748903D+00
  2   2  0.1728664878D+00  0.4703936275D+01  0.9401581738D+00  0.1328005343D+00
  3   3  0.1627477608D+00  0.4428591718D+01  0.9913908395D+00  0.3907330817D-01
  4   4  0.1621478557D+00  0.4412267470D+01  0.9994764925D+00  0.1477420551D-01
  5   5  0.1620470597D+00  0.4409524670D+01  0.9999569783D+00  0.4609084668D-02
  L-O-C-K-I-N-G O-N R-O-O-T 
  6   6  0.1620380984D+00  0.4409280822D+01  0.9999921441D+00  0.1431220292D-02
  7   7  0.1620379248D+00  0.4409276096D+01  0.9999987765D+00  0.8090371108D-03
  8   8  0.1620376799D+00  0.4409269434D+01  0.9999995990D+00  0.1778675772D-03
  9   9  0.1620370381D+00  0.4409251968D+01  0.9999999762D+00  0.1105378718D-03
 10  10  0.1620372113D+00  0.4409256681D+01  0.9999999760D+00  0.4769465133D-04
 11  11  0.1620371514D+00  0.4409255051D+01  0.9999999957D+00  0.1457603560D-04
 12  12  0.1620371700D+00  0.4409255557D+01  0.9999999998D+00  0.4596984570D-05
  Converged eigenvalue:   0.162037169979805       a.u.
   Total EOMEE-CCSD electronic energy      -78.704756681760145 a.u.
  Converged eigenvector 
  SCF eigenvalue ordering used in list below. 
--------------------------------------------------------------------------------
    I    j    A    b
--------------------------------------------------------------------------------
    9    0   11    0   0.6495093093 AA  
    9    9   11   10   0.1908793293 ABAB
    9    9   10   11   0.1908793293 ABAB
    9    9   11   12  -0.0997668534 ABAB
    9    9   12   11  -0.0997668534 ABAB
    9    9   11   29  -0.0755343043 ABAB
    9    9   29   11  -0.0755343043 ABAB
    9    8   11   10   0.0358581875 ABAB
    8    9   10   11   0.0358581875 ABAB
    7    9   15   11  -0.0346591703 ABAB
    9    7   11   15  -0.0346591703 ABAB
    9    0   25    0  -0.0323568263 AA  
    5    9   13   11  -0.0314582503 ABAB
    9    5   11   13  -0.0314582503 ABAB
    4    9   14   11  -0.0305981881 ABAB
--------------------------------------------------------------------------------
  Converged eigenvector, normalized to one 
  SCF eigenvalue ordering used in list below. 
--------------------------------------------------------------------------------
    I    j    A    b
--------------------------------------------------------------------------------
    9    0   11    0   0.6495093093 AA  
    9    9   11   10   0.1908793293 ABAB
    9    9   10   11   0.1908793293 ABAB
    9    9   11   12  -0.0997668534 ABAB
    9    9   12   11  -0.0997668534 ABAB
    9    9   11   29  -0.0755343043 ABAB
    9    9   29   11  -0.0755343043 ABAB
    9    8   11   10   0.0358581875 ABAB
    8    9   10   11   0.0358581875 ABAB
    7    9   15   11  -0.0346591703 ABAB
    9    7   11   15  -0.0346591703 ABAB
    9    0   25    0  -0.0323568263 AA  
    5    9   13   11  -0.0314582503 ABAB
    9    5   11   13  -0.0314582503 ABAB
    4    9   14   11  -0.0305981881 ABAB
--------------------------------------------------------------------------------

  Eigenvector is saved on CCRE_2_1  

  Adding new vector to expansion space.
  Guess for next eigenvalue   0.286943933250617     
 13  13  0.2448676739D+00  0.6663188158D+01  0.7082701251D+00  0.4048429252D-01
 14  14  0.2440436976D+00  0.6640766622D+01  0.9992831509D+00  0.1341727275D-01
 15  15  0.2439380001D+00  0.6637890447D+01  0.9999160233D+00  0.5311151248D-02
  L-O-C-K-I-N-G O-N R-O-O-T 
 16  16  0.2439151338D+00  0.6637268223D+01  0.9999834091D+00  0.1789297348D-02
 17  17  0.2439150065D+00  0.6637264758D+01  0.9999978206D+00  0.9878578399D-03
 18  18  0.2439120483D+00  0.6637184261D+01  0.9999991776D+00  0.3359550242D-03
 19  19  0.2439124999D+00  0.6637196551D+01  0.9999999140D+00  0.1070204483D-03
 20  20  0.2439129159D+00  0.6637207872D+01  0.9999999939D+00  0.3204950797D-04
 21  21  0.2439127807D+00  0.6637204192D+01  0.9999999993D+00  0.1319410875D-04
 22  22  0.2439127578D+00  0.6637203568D+01  0.9999999999D+00  0.3273805448D-05
  Converged eigenvalue:   0.243912757789106       a.u.
   Total EOMEE-CCSD electronic energy      -78.622881093950852 a.u.
  Converged eigenvector 
  SCF eigenvalue ordering used in list below. 
--------------------------------------------------------------------------------
    I    j    A    b
--------------------------------------------------------------------------------
    9    0   14    0   0.6493704646 AA  
    9    9   14   10   0.2071451024 ABAB
    9    9   10   14   0.2071451024 ABAB
    9    9   14   12  -0.1095256384 ABAB
    9    9   12   14  -0.1095256384 ABAB
    9    9   14   29  -0.0810247020 ABAB
    9    9   29   14  -0.0810247020 ABAB
    9    8   12   11  -0.0380114689 ABAB
    8    9   11   12  -0.0380114689 ABAB
    9    8   10   11  -0.0285986864 ABAB
    8    9   11   10  -0.0285986864 ABAB
    9    0   11    0  -0.0249057260 AA  
    9    9   14   30   0.0248538794 ABAB
    9    9   30   14   0.0248538794 ABAB
    9    0   24    0   0.0243198275 AA  
--------------------------------------------------------------------------------
  Converged eigenvector, normalized to one 
  SCF eigenvalue ordering used in list below. 
--------------------------------------------------------------------------------
    I    j    A    b
--------------------------------------------------------------------------------
    9    0   14    0   0.6493704646 AA  
    9    9   14   10   0.2071451024 ABAB
    9    9   10   14   0.2071451024 ABAB
    9    9   14   12  -0.1095256384 ABAB
    9    9   12   14  -0.1095256384 ABAB
    9    9   14   29  -0.0810247020 ABAB
    9    9   29   14  -0.0810247020 ABAB
    9    8   12   11  -0.0380114689 ABAB
    8    9   11   12  -0.0380114689 ABAB
    9    8   10   11  -0.0285986864 ABAB
    8    9   11   10  -0.0285986864 ABAB
    9    0   11    0  -0.0249057260 AA  
    9    9   14   30   0.0248538794 ABAB
    9    9   30   14   0.0248538794 ABAB
    9    0   24    0   0.0243198275 AA  
--------------------------------------------------------------------------------

  Eigenvector is saved on CCRE_2_2  

  Adding new vector to expansion space.
  Guess for next eigenvalue   0.309387711709848     
 23  23  0.3398790308D+00  0.9248578617D+01  0.7286884461D+00  0.2709152562D+01
 24  24  0.3320601139D+00  0.9035815072D+01  0.9922189082D+00  0.2467847179D+00
 25  25  0.3288823118D+00  0.8949342680D+01  0.9924999136D+00  0.1100633633D+00
 26  26  0.3278767606D+00  0.8921980240D+01  0.9961167208D+00  0.4011187222D-01
 27  27  0.3275668131D+00  0.8913546139D+01  0.9980962569D+00  0.1466040969D-01
 28  28  0.3273954411D+00  0.8908882872D+01  0.9995444140D+00  0.6896851416D-02
  L-O-C-K-I-N-G O-N R-O-O-T 
 29  29  0.3273720880D+00  0.8908247400D+01  0.9999342359D+00  0.4208400198D-02
 30  30  0.3273697748D+00  0.8908184457D+01  0.9999621987D+00  0.2925220454D-02
 31  31  0.3273655637D+00  0.8908069865D+01  0.9999438902D+00  0.1575787822D-02
 32  32  0.3273612586D+00  0.8907952717D+01  0.9999850635D+00  0.6385986444D-03
 33  33  0.3273613756D+00  0.8907955903D+01  0.9999995072D+00  0.2385820160D-03
 34  34  0.3273612975D+00  0.8907953778D+01  0.9999999545D+00  0.9481455312D-04
 35  35  0.3273613306D+00  0.8907954676D+01  0.9999999928D+00  0.4535814520D-04
 36  36  0.3273613248D+00  0.8907954519D+01  0.9999999967D+00  0.3372519976D-04
 37  37  0.3273613247D+00  0.8907954516D+01  0.9999999962D+00  0.1673485190D-04
 38  38  0.3273613117D+00  0.8907954162D+01  0.9999999991D+00  0.8256518059D-05
  Converged eigenvalue:   0.327361311654127       a.u.
   Total EOMEE-CCSD electronic energy      -78.539432540085826 a.u.
  Converged eigenvector 
  SCF eigenvalue ordering used in list below. 
--------------------------------------------------------------------------------
    I    j    A    b
--------------------------------------------------------------------------------
    8    0   11    0  -0.6694689405 AA  
    6    0   16    0  -0.0706997673 AA  
    4    0   12    0   0.0599956883 AA  
    6    0   28    0  -0.0581900844 AA  
    5    0   15    0   0.0550012554 AA  
    7    0   21    0   0.0538154954 AA  
    9    0   18    0   0.0493579019 AA  
    4    0   10    0   0.0430516068 AA  
    8    8   11   33   0.0427992092 ABAB
    8    8   33   11   0.0427992092 ABAB
    9    8   11   10   0.0394627604 ABAB
    8    9   10   11   0.0394627604 ABAB
    7    0   13    0   0.0374646253 AA  
    8    0   25    0   0.0353806076 AA  
    4    3   11   11  -0.0349386789 ABAB
--------------------------------------------------------------------------------
  Converged eigenvector, normalized to one 
  SCF eigenvalue ordering used in list below. 
--------------------------------------------------------------------------------
    I    j    A    b
--------------------------------------------------------------------------------
    8    0   11    0  -0.6694689405 AA  
    6    0   16    0  -0.0706997673 AA  
    4    0   12    0   0.0599956883 AA  
    6    0   28    0  -0.0581900844 AA  
    5    0   15    0   0.0550012554 AA  
    7    0   21    0   0.0538154954 AA  
    9    0   18    0   0.0493579019 AA  
    4    0   10    0   0.0430516068 AA  
    8    8   11   33   0.0427992092 ABAB
    8    8   33   11   0.0427992092 ABAB
    9    8   11   10   0.0394627604 ABAB
    8    9   10   11   0.0394627604 ABAB
    7    0   13    0   0.0374646253 AA  
    8    0   25    0   0.0353806076 AA  
    4    3   11   11  -0.0349386789 ABAB
--------------------------------------------------------------------------------

  Eigenvector is saved on CCRE_2_3  

  Solution of   3 roots required   38 iterations.
 @CHECKOUT-I, Total execution time (CPU/WALL):       23.35/       2.93 seconds.
--executable xvee finished with status     0 in        2.95 seconds (walltime).
  The final electronic energy is       -78.539432540085826 a.u. 
  This computation required                            4.60 seconds (walltime).
