CFour on node02
 --invoking executable--
/home/tsommerfeld/zscale/bin/xjoda


   *************************************************************************
         <<<     CCCCCC     CCCCCC   |||     CCCCCC     CCCCCC   >>>
       <<<      CCC        CCC       |||    CCC        CCC         >>>
      <<<      CCC        CCC        |||   CCC        CCC            >>>
    <<<        CCC        CCC        |||   CCC        CCC              >>>
      <<<      CCC        CCC        |||   CCC        CCC            >>>
       <<<      CCC        CCC       |||    CCC        CCC         >>>
         <<<     CCCCCC     CCCCCC   |||     CCCCCC     CCCCCC   >>>
   *************************************************************************

     ****************************************************************
     * CFOUR Coupled-Cluster techniques for Computational Chemistry *
     ****************************************************************
 

   Department of Chemistry                Institut fuer Physikalische Chemie
   University of Florida                  Universitaet Mainz
   Gainesville, FL 32611, USA             D-55099 Mainz, Germany

   Department of Chemistry                Department of Chemistry
   Johns Hopkins University               Southern Methodist University
   Baltimore, MD 21218, USA               Dallas, TX 75275, USA

   Institute of Nanotechnology            Department of Physical Chemistry
   Karlsruhe Inst. of Technology          Eotvos Lorand University
   D-76021 Karlsruhe, Germany             H-1053 Budapest, Hungary

 
                       Version 2.1
 
                     node02                                            
                     Tue Mar 29 16:08:11 CST 2022                      
                     integer*8 version is running
 
********************************************************************************
*                          Input from ZMAT file                                *
********************************************************************************
h_ethylene                                                                      
C       0.000000      0.0   -0.664500                                           
C       0.000000      0.0    0.664500                                           
H       0.962348      0.0   -1.159080                                           
H       0.962348      0.0    1.159080                                           
H      -0.962348      0.0   -1.159080                                           
H      -0.962348      0.0    1.159080                                           
H      0.000000      4.636363636363637      0.000000                            
                                                                                
*CFOUR(CALC=CCSD                                                                
EXCITE=EOMEE                                                                    
ESTATE_SYM=0/3/0/0                                                              
CC_PROG=VCC                                                                     
CHARGE=-1                                                                       
COORDINATES=CARTESIAN                                                           
BASIS=SPECIAL                                                                   
REFERENCE=RHF                                                                   
MEM_SIZE=90,MEM_UNIT=GB)                                                        
                                                                                
C:CC-PVDZ                                                                       
C:CC-PVDZ                                                                       
H:CC-PVDZ                                                                       
H:CC-PVDZ                                                                       
H:CC-PVDZ                                                                       
H:CC-PVDZ                                                                       
H:AUG-CC-PVDZ                                                                   
                                                                                
********************************************************************************
    -------------------------------------------------------------------
                    CFOUR Control Parameters 
    -------------------------------------------------------------------
        External           Internal           Value            Units
          Name               Name
    -------------------------------------------------------------------
       ABCDTYPE             IABCDT         STANDARD    [  0]    ***   
       ANHARMONIC           IANHAR         OFF         [  0]    ***   
       ANH_ALGORIT          IANALG         STANDARD    [  0]    ***   
       ANH_DERIVAT          IANDER         SECOND      [  1]    ***   
       ANH_MODE             ANHMOD         VIBRATION   [  0]    ***   
       ANH_STEPSIZ          ICUBST             50000          x 10-6  
       ANH_SYMMETR          IANHSM         ABELIAN     [  0]    ***   
       AO_LADDERS           IAOLAD         SINGLEPASS  [  1]    ***   
       AV_SCF               IAVSCF         OFF         [  0]    ***   
       BASIS                IBASIS         SPECIAL     [  0]    ***   
       BOTHVECTORS          BOTHVC         OFF         [  0]    ***   
       BOX_POTENT           IPIAB          OFF         [  0]    ***   
       BREIT                IBREIT         OFF         [  0]    ***   
       BRUCK_CONV           IBRTOL          10D-  4             ***   
       BRUECKNER            IBRKNR         OFF         [  0]    ***   
       BUFFERSIZE           IBUFFS              4096            ***   
       CACHE_RECS           ICHREC             10               ***   
       CALCLEVEL            ICLLVL         CCSD        [ 10]    ***   
       CCORBOPT             ICCORB         OFF         [  0]  x 0.01  
       CC_CONV              ICCCNV          10D-  7             ***   
       CC_EXPORDER          ICCEOR              5               ***   
       CC_EXTRAPOL          ICCEXT         DIIS        [  1]    ***   
       CC_GUESS             ICCGES         MP2         [  0]    ***   
       CC_MAXCYC            ICCCYC            100              cycles 
       CC_PROGRAM           ICCPRO         VCC         [  0]    ***   
       CHARGE               ICHRGE             -1               ***   
       CHOLESKY             ICHOLE         OFF         [  0]    ***   
       CIS_CONV             ICISTL              5               ***   
       COMM_SIZE            IPSIZE            ***               ***   
       CONSTANT             ICONST         OLD         [  1]    ***   
       CONTINUUM            ICONTU         NONE        [  0]    ***   
       CONTRACTION          ICNTYP         GENERAL     [  1]    ***   
       COORDINATES          ICOORD         CARTESIAN   [  1]    ***   
       CPHF_CONVER          ICPHFT          10D- 16             ***   
       CPHF_MAXCYC          ICPHFC             64              cycles 
       CUBIC                ICUBIC         OFF         [  0]    ***   
       CURVILINEAR          ICURVY         OFF         [  0]    ***   
       DBOC                 IDBOC          OFF         [  0]    ***   
       DCT                  IDCT           OFF         [  0]    ***   
       DERIV_LEV            IDRLVL         ZERO        [  0]    ***   
       DEVMEM_SIZE          IDVMEM         *********           MByte  
       DIAG_MRCC            IEOMST          10D-  0             ***   
       DIFF_TYPE            IDIFTY         RELAXED     [  0]    ***   
       DIRECT               IDIRCT         OFF         [  0]    ***   
       DROPMO               IDRPMO      NONE         
       ECP                  IECP           OFF         [  0]    ***   
       EIGENVECTOR          IVEC                1               ***   
       EL_ANHARM            IELANH         OFF         [  0]    ***   
       EOMFOLLOW            IEOMSR         ENERGY      [  0]    ***   
       EOMIP                IEOMIP         OFF         [  0]    ***   
       EOMLEVEL             HBARFM         SAME        [  0]    ***   
       EOM_MRCC             IMRCCE         NEW         [  1]    ***   
       EOM_NONIT            EOMNON         OFF         [  0]    ***   
       EOM_NSING            IEOMSI          10D-  0             ***   
       EOM_NSTATES          IMRCCD         DAVIDSON    [  0]    ***   
       EOM_NTRIP            IEOMTR          10D-  0             ***   
       EOM_ORDER            IEXORD         ENERGY      [  0]    ***   
       EOM_PROPSTA          IEOMST              0               ***   
       ESTATE_CONV          IEXTOL          10D-  5             ***   
       ESTATE_DIAG          IEXDIG         ITERATIVE   [  0]    ***   
       ESTATE_LOCK          IESLOC         ON          [  1]    ***   
       ESTATE_MAXC          IEXMXC             40               ***   
       ESTATE_PROP          IEXPRP         OFF         [  0]    ***   
       ESTATE_SYM           IEXSYM   0,  3,  0,  0,
       EVAL_HESS            IRECAL              0            # of cyc.
       EXCITATION           IEXCIT              0               ***   
       EXCITE               IEXCIT         EOMEE       [  3]    ***   
       EXTERN_POT           IEXPOT         OFF         [  0]    ***   
       FCGRADNEW            IFCGNW         OFF         [  0]    ***   
       FC_FIELD             IFINFC              0             x 10-6  
       FD_CALTYPE           IFDCAL         GRADONLY    [  0]    ***   
       FD_PROJECT           IFDPRJ         OFF         [  1]    ***   
       FD_STEPSIZE          IDISFD              0            10-4 bohr
       FD_USEGROUP          IFDGRP         FULL        [  0]    ***   
       FILE_RECSIZ          IFLREC              4096           words  
       FINITE_PERT          IFIPER              0             x 10-6  
       FIXGEOM              IFIXGM         OFF         [  0]    ***   
       FOCK                 IFOCK          AO          [  1]    ***   
       FREQ_ALGORI          IVIALG         STANDARD    [  0]    ***   
       FROZEN_CORE          IFROCO         OFF         [  0]    ***   
       GAMMA_ABCD           IGABCD         STORE       [  0]    ***   
       GAMMA_ABCI           IGABCI         STORE       [  0]    ***   
       GENBAS_1             IGNBS1              0               ***   
       GENBAS_2             IGNBS2              0               ***   
       GENBAS_3             IGNBS3              0               ***   
       GENBAS_4             IGNBS4              0               ***   
       GEO_CONV             ICONTL              5              H/bohr 
       GEO_MAXCYC           IOPTCY             50               ***   
       GEO_MAXSTEP          IMXSTP            300            millibohr
       GEO_METHOD           INR            SINGLE_POINT[  5]    ***   
       GIAO                 IGIAO          OFF         [  1]    ***   
       GIMIC                IGIMIC         OFF         [  0]    ***   
       GRID                 IGRID          OFF         [  0]    ***   
       GRID_ALGO            IGALGO         SERIAL      [  0]    ***   
       GUESS                IGUESS         MOREAD      [  0]    ***   
       HBAR                 IHBAR          ON          [  1]    ***   
       HESS_TYPE            IHESTP         SCF         [  0]    ***   
       HF2_FILE             IHF2Fl         USE         [  1]    ***   
       HFSTABILITY          ISTABL         OFF         [  0]    ***   
       INCORE               INCORE         OFF         [  0]    ***   
       INPUT_MRCC           IMRCC          ON          [  1]    ***   
       INTEGRALS            INTTYP         VMOL        [  1]    ***   
       JODA_PRINT           IJPRNT              0               ***   
       KEYWORD_OUT          IDMPKW         NO          [  0]    ***   
       LINDEP_TOL           ILINDP              8               ***   
       LINEQ_CONV           IZTACN          10D-  7           cycles  
       LINEQ_EXPOR          ILMAXD              5               ***   
       LINEQ_MAXCY          ILMAXC            100               ***   
       LINEQ_TYPE           ILTYPE         DIIS        [  1]    ***   
       LOCK_ORBOCC          ILOCOC         OFF         [  0]    ***   
       MEMORY_SIZE          IMEMSZ         *********           words  
       MEM_UNIT             IMEMU          GB          [  3]    ***   
       MRCC                 IMRCCC         OFF         [  0]    ***   
       MULTIPLICTY          IMULTP              1               ***   
       NACOUPLING           IVCOUP         OFF         [  0]    ***   
       NEGEVAL              IDIE           ABORT       [  0]    ***   
       NEWNORM              INEWNO         OFF         [  0]    ***   
       NON-HF               INONHF         OFF         [  0]    ***   
       NTOP_TAMP            ITOPT2             15               ***   
       NUC_MODEL            INUCMO         POINT       [  0]    ***   
       OCCUPATION           IOCCU   ESTIMATED BY SCF 
       OPEN-SHELL           IOPEN          SPIN-ORBITAL[  0]    ***   
       OPTVIB               IOPTVB         OFF         [  0]    ***   
       ORBITALS             IORBTP         STANDARD    [  0]    ***   
       PARALLEL             IPARAL         ON          [  1]    ***   
       PARA_INT             IPINTS         ON          [  1]    ***   
       PARA_PRINT           IPPRIN              0               ***   
       PERT_ORB             IPTORB         STANDARD    [  0]    ***   
       POINTS               IGRDFD              0               ***   
       PRINT                IPRNT               0               ***   
       PROPS                IPROPS         OFF         [  0]    ***   
       PROP_INTEGR          IINTYP         INTERNAL    [  0]    ***   
       PSI                  IPSI           OFF         [  0]    ***   
       QC_ALG               IQCALG         FLM         [  0]    ***   
       QC_LINALG            IQCLIN         TRIDIAG     [  2]    ***   
       QC_MAXCYC            IQCMAX          10D-100           cycles  
       QC_MAXSCFCY          IQCMSC          10D- 15           cycles  
       QC_RTRUST            IQCRTR          10D-  0           x 10-3  
       QC_SKIPSCF           IQCSKI         OFF         [  0]    ***   
       QC_START             IQCSTA          10D-  1             ***   
       QRHFGUESS            IQGUES         OFF         [  0]    ***   
       QUARTIC              IQUART         OFF         [  0]    ***   
       RAMAN_INT            IRAMIN         OFF         [  0]    ***   
       RAMAN_ORB            IRAMRE         UNRELAXED   [  0]    ***   
       RDO                  IRDOFM         OFF         [  0]    ***   
       REDUCE_REPR          REDREP         Ir          [  0]    ***   
       REFERENCE            IREFNC         RHF         [  0]    ***   
       RELATIVIST           IRELAT         OFF         [  0]    ***   
       RELAX_DENS           IRDENS         OFF         [  0]    ***   
       RESET_FLAGS          IRESET         OFF         [  0]    ***   
       RESTART_CC           ICCRES         OFF         [  0]    ***   
       ROT_EVEC             ROTVEC              0               ***   
       SAVE_INTS            ISVINT         OFF         [  0]    ***   
       SCALE_ON             ISTCRT              0               ***   
       SCF_CONV             ISCFCV          10D-  7             ***   
       SCF_DAMPING          IDAMP               0             x 10-3  
       SCF_EXPORDE          IRPPOR              6               ***   
       SCF_EXPSTAR          IRPPLS              8               ***   
       SCF_EXTRAPO          IRPP           ON          [  1]    ***   
       SCF_MAXCYC           ISCFCY            150              cycles 
       SCF_NOSTOP           ISCFST         OFF         [  0]    ***   
       SCF_PRINT            ISCFPR              0               ***   
       SCF_PROG             ISCFPR         SCF         [  0]    ***   
       SD_FIELD             IFINSD              0             x 10-6  
       SOPERT               IPERSO         OFF         [  0]    ***   
       SPHERICAL            IDFGHI         ON          [  1]    ***   
       SPINORBIT            ISOCAL         OFF         [  0]    ***   
       SPINROTATIO          ISRCON         OFF         [  0]    ***   
       SPIN_FLIP            ISPFLP         OFF         [  0]    ***   
       SPIN_ORBIT           ISPORB         OFF         [  0]    ***   
       SPIN_SCAL            ISCSMP         OFF         [  0]    ***   
       STEEPSCALE           ISTPSC              1000          x 10-3  
       SUBGROUP             ISUBGP         DEFAULT     [  0]    ***   
       SUBGRPAXIS           ISBXYZ         X           [  0]    ***   
       SYMMETRY             ISYM           ON          [  0]    ***   
       SYM_CHECK            ISYMCK         OVERRIDE    [  1]    ***   
       T3_EXTRAPOL          IT3EXT         OFF         [  0]    ***   
       T4_EXTRAPOL          IT4EXP         OFF         [  0]    ***   
       TAMP_SUM             IEVERY              5               ***   
       TESTSUITE            ITESTS         OFF         [  0]    ***   
       THERMOCH             ITHERM         OFF         [  0]    ***   
       TOL_CHOLESK          ITOLCH          10D-  4             ***   
       TRANGRAD             IRESRM         OFF         [  0]    ***   
       TRANS_INV            ITRAIN         USE         [  0]    ***   
       TREAT_PERT           ITREAT         SIMULTANEOUS[  0]    ***   
       TRIP_ALGORI          ITRALG         NORMAL      [  0]    ***   
       UIJ_THRESHO          IUIJTH              1               ***   
       UNITS                IUNITS         ANGSTROM    [  0]    ***   
       UNOS                 IUNOS          OFF         [  0]    ***   
       UPDATE_HESS          IHUPDT         ON          [  1]    ***   
       VIBPHASE             ISETPH         STANDARD    [  0]    ***   
       VIBRATION            IVIB           NO          [  0]    ***   
       VIB_ALGORIT          IGEALG         STANDARD    [  0]    ***   
       VNATORB              IVNORB         OFF         [  0]    ***   
       VTRAN                IVTRAN         FULL/PARTIAL[  0]    ***   
       XFIELD               IXEFLD              0             x 10-6  
       XFORM_TOL            IXFTOL          10D- 11             ***   
       YFIELD               IYEFLD              0             x 10-6  
       ZFIELD               IZEFLD              0             x 10-6  
       ZSCALE_EXP           IZEXPS         OFF         [  0]    ***   
    -------------------------------------------------------------------
  @GETXYZ-I,     7 atoms read from ZMAT.
   Rotational constants (in cm-1): 
          0.4565300525             0.6840003442             0.8536890782
   Rotational constants (in MHz): 
      13686.4285762148         20505.8173193680         25592.9582983935
********************************************************************************
   The full molecular point group is C2v .
   The largest Abelian subgroup of the full molecular point group is C2v .
   The computational point group is C2v .
********************************************************************************


 ----------------------------------------------------------------
         Coordinates used in calculation (QCOMP) 
 ----------------------------------------------------------------
 Z-matrix   Atomic            Coordinates (in bohr)
  Symbol    Number           X              Y              Z
 ----------------------------------------------------------------
     C         6        -1.25572327     0.00000000    -0.30407314
     C         6         1.25572327     0.00000000    -0.30407314
     H         1        -2.19034422     1.81857454    -0.30407314
     H         1         2.19034422     1.81857454    -0.30407314
     H         1        -2.19034422    -1.81857454    -0.30407314
     H         1         2.19034422    -1.81857454    -0.30407314
     H         1         0.00000000     0.00000000     8.45738618
 ----------------------------------------------------------------
 
   Interatomic distance matrix (Angstroms) 
 
                 C             C             H             H             H    
                [ 1]        [ 2]        [ 3]        [ 4]        [ 5]
  C    [ 1]     0.00000
  C    [ 2]     1.32900     0.00000
  H    [ 3]     1.08200     2.06193     0.00000
  H    [ 4]     2.06193     1.08200     2.31816     0.00000
  H    [ 5]     1.08200     2.06193     1.92470     3.01303     0.00000
  H    [ 6]     2.06193     1.08200     3.01303     1.92470     2.31816
  H    [ 7]     4.68374     4.68374     4.87498     4.87498     4.87498
 
                 H             H    
                [ 6]        [ 7]
  H    [ 6]     0.00000
  H    [ 7]     4.87498     0.00000
 rotcon2
   Rotational constants (in cm-1): 
          0.6840003442             0.4565300525             0.8536890782
   Rotational constants (in MHz): 
      20505.8173193680         13686.4285762148         25592.9582983935
  ECPDATA file not present.   Using default ECPDATA. 
  There are   57 basis functions.
 @GEOPT-W, Archive file not created for single-point calculation.
 @CHECKOUT-I, Total execution time (CPU/WALL):        0.12/       0.13 seconds.
--executable xjoda finished with status     0 in        0.15 seconds (walltime).
 --invoking executable--
/home/tsommerfeld/zscale/bin/xvmol
 SERIAL VERSION OF MOLECULE STARTED
********************************************************************************
                    INPUT FROM MOL FILE
********************************************************************************
INTGRL        1    0    1    0    0    0    0    0    0                         
         *** CFOUR Program System (Release V0.1) ***                            
h_ethylene                                                                      
    3    2 X  Y       0.10E-08              0    0                              
   9999.00      3.00                                                            
          6.00000000    1    3    1    1    1                                   
C #1  -1.255723272983657   0.000000000000000  -0.304073142552918                
    9    3                                                                      
   6665.00000000000       6.920000000000000E-004 -1.460000000000000E-004        
  0.000000000000000E+000                                                        
   1000.00000000000       5.329000000000000E-003 -1.154000000000000E-003        
  0.000000000000000E+000                                                        
   228.000000000000       2.707700000000000E-002 -5.725000000000000E-003        
  0.000000000000000E+000                                                        
   64.7100000000000       0.101718000000000      -2.331200000000000E-002        
  0.000000000000000E+000                                                        
   21.0600000000000       0.274740000000000      -6.395500000000000E-002        
  0.000000000000000E+000                                                        
   7.49500000000000       0.448564000000000      -0.149981000000000             
  0.000000000000000E+000                                                        
   2.79700000000000       0.285074000000000      -0.127262000000000             
  0.000000000000000E+000                                                        
  0.521500000000000       1.520400000000000E-002  0.544529000000000             
  0.000000000000000E+000                                                        
  0.159600000000000      -3.191000000000000E-003  0.580496000000000             
   1.00000000000000                                                             
    4    2                                                                      
   9.43900000000000       3.810900000000000E-002  0.000000000000000E+000        
   2.00200000000000       0.209480000000000       0.000000000000000E+000        
  0.545600000000000       0.508557000000000       0.000000000000000E+000        
  0.151700000000000       0.468842000000000        1.00000000000000             
    1    1                                                                      
  0.550000000000000        1.00000000000000                                     
          1.00000000    1    2    1    1                                        
H #2  -2.190344215575466   1.818574537711477  -0.304073142552918                
    4    2                                                                      
   13.0100000000000       1.968500000000000E-002  0.000000000000000E+000        
   1.96200000000000       0.137977000000000       0.000000000000000E+000        
  0.444600000000000       0.478148000000000       0.000000000000000E+000        
  0.122000000000000       0.501240000000000        1.00000000000000             
    1    1                                                                      
  0.727000000000000        1.00000000000000                                     
          1.00000000    1    2    1    1                                        
H #3   0.000000000000000   0.000000000000000   8.457386180542578                
    5    3                                                                      
   13.0100000000000       1.968500000000000E-002  0.000000000000000E+000        
  0.000000000000000E+000                                                        
   1.96200000000000       0.137977000000000       0.000000000000000E+000        
  0.000000000000000E+000                                                        
  0.444600000000000       0.478148000000000       0.000000000000000E+000        
  0.000000000000000E+000                                                        
  0.122000000000000       0.501240000000000        1.00000000000000             
  0.000000000000000E+000                                                        
  2.974000000000000E-002  0.000000000000000E+000  0.000000000000000E+000        
   1.00000000000000                                                             
    2    2                                                                      
  0.727000000000000        1.00000000000000       0.000000000000000E+000        
  0.141000000000000       0.000000000000000E+000   1.00000000000000             
FINISH                                                                          
 
********************************************************************************
 ONE- AND TWO-ELECTRON INTEGRALS OVER SYMMETRY-ADAPTED AOS ARE CALCULATED.

  SPHERICAL HARMONICS ARE USED.
  
  INTEGRALS LESS THAN  0.10E-13 ARE NEGLECTED.

  NUCLEAR REPULSION ENERGY :   35.3791943845 A.U.
  @MOLECU-I, ONE ELECTRON INTEGRALS (CPU/WALL):        0.01/       0.01 SECONDS.
  @TWOEL-I,      29140 INTEGRALS OF SYMMETRY TYPE  I I I I
  @TWOEL-I,      96932 INTEGRALS OF SYMMETRY TYPE  I J I J
  @TWOEL-I,      57013 INTEGRALS OF SYMMETRY TYPE  I I J J
  @TWOEL-I,      70564 INTEGRALS OF SYMMETRY TYPE  I J K L
  @TWOEL-I, TOTAL NUMBER OF 2-E INTEGRALS     253649.
  @MOLECU-I, TWO ELECTRON INTEGRALS (CPU/WALL):        0.21/       0.22 SECONDS.
 @CHECKOUT-I, Total execution time (CPU/WALL):        0.23/       0.24 seconds.

Running with 8 threads/proc

--executable xvmol finished with status     0 in        0.26 seconds (walltime).
 --invoking executable--
/home/tsommerfeld/zscale/bin/xvmol2ja
 @GETMEM-I,  Allocated   85830 MB of main memory.
 @CHECKOUT-I, Total execution time (CPU/WALL):        0.02/       0.01 seconds.
--executable xvmol2ja finished with status     0 in        0.03 seconds (walltime).
 --invoking executable--
/home/tsommerfeld/zscale/bin/xvscf
  There are   57 functions in the AO basis.

  There are 4 irreducible representations.

       Irrep        # of functions
         1                 20
         2                 17
         3                 11
         4                  9


  Parameters for SCF calculation: 
        SCF reference function:  RHF  
  Maximum number of iterations:  150
     Full symmetry point group: C2v 
     Computational point group: C2v 
        Initial density matrix: MOREAD                 
     SCF convergence tolerance: 10**(- 7)
  DIIS convergence acceleration:  ON
          Latest start for DIIS:   8
                     DIIS order:   6

  Memory information:     156410 words required.
  Fock matrices are constructed from AO integral file.
 @GETMEM-I,  Allocated       1 MB of main memory.
  Initialization and symmetry analysis required      0.002 seconds.

  @INITGES-I, Occupancies from core Hamiltonian:

          Alpha population by irrep:   3    4    1    1
           Beta population by irrep:   3    4    1    1


 total no. of electrons in initial guess :  0.000000000000000E+000
  --------------------------------------------------------------------
  Iteration         Total Energy            Largest Density Difference
  --------------------------------------------------------------------
       0            35.379194384478630              0.0000000000D+00
   current occupation vector 
     3  4  1  1
     3  4  1  1
       1           -60.966698083918764              0.8822218225D+01
   current occupation vector 
     3  4  1  1
     3  4  1  1
       2           -52.583762714401182              0.8680254138D+01
   current occupation vector 
     5  3  1  0
     5  3  1  0
       3           -70.273780353289851              0.4024250640D+01
   current occupation vector 
     4  3  1  1
     4  3  1  1
       4           -55.637973486053703              0.3437021609D+01
   current occupation vector 
     5  3  1  0
     5  3  1  0
       5           -71.101578819956984              0.3414278881D+01
   current occupation vector 
     4  3  1  1
     4  3  1  1
       6           -56.048845109323274              0.3408660191D+01
   current occupation vector 
     5  3  1  0
     5  3  1  0
       7           -71.212603171191120              0.3408662812D+01
   current occupation vector 
     4  3  1  1
     4  3  1  1
       8           -56.102893560491133              0.3407602447D+01
   current occupation vector 
     5  3  1  0
     5  3  1  0
       9           -76.153737336286270              0.3407423166D+01
   current occupation vector 
     4  3  1  1
     4  3  1  1
      10           -77.451973746916195              0.7099646081D+00
   current occupation vector 
     4  3  1  1
     4  3  1  1
      11           -78.276310688823884              0.1871100853D+01
   current occupation vector 
     5  2  1  1
     5  2  1  1
      12           -78.382408503867254              0.4289502230D+00
   current occupation vector 
     5  2  1  1
     5  2  1  1
      13           -78.485798898540708              0.4835859266D+00
   current occupation vector 
     5  2  1  1
     5  2  1  1
      14           -78.518749590205715              0.2234359653D+00
   current occupation vector 
     5  2  1  1
     5  2  1  1
      15           -78.519571676573435              0.5955482130D-01
   current occupation vector 
     5  2  1  1
     5  2  1  1
      16           -78.519578607089386              0.7286122539D-02
   current occupation vector 
     5  2  1  1
     5  2  1  1
      17           -78.519579013975601              0.1158666253D-02
   current occupation vector 
     5  2  1  1
     5  2  1  1
      18           -78.519579020331349              0.9716651038D-04
   current occupation vector 
     5  2  1  1
     5  2  1  1
      19           -78.519579020680595              0.3075681799D-04
   current occupation vector 
     5  2  1  1
     5  2  1  1
      20           -78.519579020689520              0.2074899383D-05
   current occupation vector 
     5  2  1  1
     5  2  1  1
      21           -78.519579020689406              0.2871243434D-06
   current occupation vector 
     5  2  1  1
     5  2  1  1
      22           -78.519579020689463              0.1082758199D-06
   current occupation vector 
     5  2  1  1
     5  2  1  1

  SCF has converged.

 Density matrix saved to file den.dat
 total electron number:   18.0000000000000     
     E(SCF)=       -78.519579020689434              0.2309404239D-07


  Final occupancies:

     Alpha population by irrep:   5    2    1    1
      Beta population by irrep:   5    2    1    1


  Eigenvector printing suppressed.

 @PUTMOS-I, Writing converged MOs to NEWMOS. 
 @PUTMOS-I, Symmetry   1 Full Blocks  5 Partial Blocksize   0
 @PUTMOS-I, Symmetry   2 Full Blocks  4 Partial Blocksize   1
 @PUTMOS-I, Symmetry   3 Full Blocks  2 Partial Blocksize   3
 @PUTMOS-I, Symmetry   4 Full Blocks  2 Partial Blocksize   1
 @PUTFOCK-I, Writing converged Fock matrix to NEWFOCK. 
 @PUTFOCK-I, Symmetry   1 Full Blocks  5 Partial Blocksize   0
 @PUTFOCK-I, Symmetry   2 Full Blocks  4 Partial Blocksize   1
 @PUTFOCK-I, Symmetry   3 Full Blocks  2 Partial Blocksize   3
 @PUTFOCK-I, Symmetry   4 Full Blocks  2 Partial Blocksize   1


 
  ORBITAL EIGENVALUES (ALPHA)  (1H = 27.2113834 eV)

       MO #        E(hartree)               E(eV)           FULLSYM    COMPSYM
       ----   --------------------   --------------------   -------   ---------
    1     1         -11.1233972962        -302.6830285379      A1        A1 (1)
    2    21         -11.1216898405        -302.6365663050      B1        B1 (2)
    3     2          -0.9276477044         -25.2425773436      A1        A1 (1)
    4    22          -0.6697995245         -18.2261716611      B1        B1 (2)
    5    38          -0.5478698254         -14.9082958724      B2        B2 (3)
    6     3          -0.4544794187         -12.3670137098      A1        A1 (1)
    7    49          -0.4040232624         -10.9940318970      A2        A2 (4)
    8     4          -0.2631238908          -7.1599650739      A1        A1 (1)
    9     5          -0.0421749048          -1.1476375042      A1        A1 (1)
  +++++++++++++++++++++++++++++++++++++++++++++++++++++++++++++++++++++++++++++
   10     6           0.2798602182           7.6153836949      A1        A1 (1)
   11    23           0.2818105661           7.6684553602      B1        B1 (2)
   12     7           0.3163207077           8.6075240541      A1        A1 (1)
   13    39           0.3315849378           9.0228848730      B2        B2 (3)
   14    24           0.3488548783           9.4928238456      B1        B1 (2)
   15    50           0.4036974240          10.9851653819      A2        A2 (4)
   16    25           0.5506195045          14.9831184443      B1        B1 (2)
   17     8           0.5591306575          15.2147186928      A1        A1 (1)
   18    40           0.5612963817          15.2736510435      E         B2 (3)
   19    26           0.5612978071          15.2736898293      E         B1 (2)
   20     9           0.6664835287          18.1359388281      A1        A1 (1)
   21    41           0.7631007707          20.7650276442      B2        B2 (3)
   22    10           0.7987364861          21.7347247596      A1        A1 (1)
   23    11           0.8328704029          22.6635558558      A1        A1 (1)
   24    27           0.9005400932          24.5049417429      B1        B1 (2)
   25    28           0.9216512839          25.0794064481      B1        B1 (2)
   26    42           0.9724154832          26.4607705382      B2        B2 (3)
   27    51           1.0462164215          28.4689961659      A2        A2 (4)
   28    29           1.0728950114          29.1949575032      B1        B1 (2)
   29    12           1.0983181405          29.8867560162      A1        A1 (1)
   30    13           1.1123121560          30.2675525363      A1        A1 (1)
   31    43           1.2273390715          33.3975940368      B2        B2 (3)
   32    30           1.3458913279          36.6235649381      B1        B1 (2)
   33    14           1.3962279134          37.9932930659      A1        A1 (1)
   34    52           1.3966197533          38.0039555718      A2        A2 (4)
   35    53           1.4541707855          39.5699987733      A2        A2 (4)
   36    15           1.7061548865          46.4268347576      A1        A1 (1)
   37    54           1.7229796781          46.8846606120      A2        A2 (4)
   38    44           1.7988392216          48.9489037349      B2        B2 (3)
   39    31           1.9387991655          52.7574074272      B1        B1 (2)
   40    32           1.9864372873          54.0537066249      B1        B1 (2)
   41    16           2.0281118750          55.1877298099      A1        A1 (1)
   42    17           2.0425332287          55.5801547923      A1        A1 (1)
   43    45           2.0965160983          57.0491033558      B2        B2 (3)
   44    46           2.1292589152          57.9400806991      B2        B2 (3)
   45    47           2.1429738790          58.3132838366      B2        B2 (3)
   46    33           2.1432439593          58.3206330952      B1        B1 (2)
   47    18           2.1475257710          58.4371471170      A1        A1 (1)
   48    34           2.2787396572          62.0076584800      B1        B1 (2)
   49    35           2.3746101775          64.6164279645      B1        B1 (2)
   50    55           2.5250468515          68.7100179789      A2        A2 (4)
   51    19           2.5252206488          68.7147472444      A1        A1 (1)
   52    56           2.5974581530          70.6804296658      A2        A2 (4)
   53    36           2.6401509889          71.8421607919      B1        B1 (2)
   54    48           2.8974545678          78.8437471288      B2        B2 (3)
   55    20           2.8990644272          78.8875536289      A1        A1 (1)
   56    37           3.3384205787          90.8430423177      B1        B1 (2)
   57    57           3.4486631690          93.8428957098      A2        A2 (4)


  VSCF finished.

 @CHECKOUT-I, Total execution time (CPU/WALL):        0.27/       0.11 seconds.
--executable xvscf finished with status     0 in        0.13 seconds (walltime).
 --invoking executable--
/home/tsommerfeld/zscale/bin/xvtran
 @GETMEM-I,  Allocated   85830 MB of main memory.
  Full RHF integral transformation
  Transformation of IIII integrals :
  1 pass through the AO integral file was required.
       29140 AO integrals were read.
       37182 MO integrals were written to HF2.
  Transformation of IIJJ integrals :
  1 pass through the AO integral file was required.
       57013 AO integrals were read.
       75393 MO integrals were written to HF2.
  Transformation of IJIJ integrals :
  1 pass through the AO integral file was required.
       96932 AO integrals were read.
      132879 MO integrals were written to HF2.
  Transformation of IJKL integrals :
  1 pass through the AO integral file was required.
       70564 AO integrals were read.
      100980 MO integrals were written to HF2.
  Summary of active molecular orbitals: 
------------------------------------------------------------------------
 
  Index      Eigenvalue    Symmetry    Index      Eigenvalue    Symmetry
------------------------------------------------------------------------
     1       -11.1233973        1        30         0.9216513        2
     2        -0.9276477        1        31         1.0728950        2
     3        -0.4544794        1        32         1.3458913        2
     4        -0.2631239        1        33         1.9387992        2
     5        -0.0421749        1        34         1.9864373        2
     6       -11.1216898        2        35         2.1432440        2
     7        -0.6697995        2        36         2.2787397        2
     8        -0.5478698        3        37         2.3746102        2
     9        -0.4040233        4        38         2.6401510        2
    10         0.2798602        1        39         3.3384206        2
    11         0.3163207        1        40         0.3315849        3
    12         0.5591307        1        41         0.5612964        3
    13         0.6664835        1        42         0.7631008        3
    14         0.7987365        1        43         0.9724155        3
    15         0.8328704        1        44         1.2273391        3
    16         1.0983181        1        45         1.7988392        3
    17         1.1123122        1        46         2.0965161        3
    18         1.3962279        1        47         2.1292589        3
    19         1.7061549        1        48         2.1429739        3
    20         2.0281119        1        49         2.8974546        3
    21         2.0425332        1        50         0.4036974        4
    22         2.1475258        1        51         1.0462164        4
    23         2.5252206        1        52         1.3966198        4
    24         2.8990644        1        53         1.4541708        4
    25         0.2818106        2        54         1.7229797        4
    26         0.3488549        2        55         2.5250469        4
    27         0.5506195        2        56         2.5974582        4
    28         0.5612978        2        57         3.4486632        4
    29         0.9005401        2
------------------------------------------------------------------------
  -11.1233972962165      -0.927647704363400      -0.454479418705886     
 -0.263123890786300      -4.217490479266330E-002  -11.1216898404737     
 -0.669799524455088      -0.547869825405083      -0.404023262449654     
  0.279860218166079       0.316320707680616       0.559130657533488     
  0.666483528658226       0.798736486127160       0.832870402898848     
   1.09831814049548        1.11231215596092        1.39622791342345     
   1.70615488654542        2.02811187504228        2.04253322865792     
   2.14752577103443        2.52522064881050        2.89906442716618     
  0.281810566096625       0.348854878345470       0.550619504494335     
  0.561297807054089       0.900540093192709       0.921651283928320     
   1.07289501140221        1.34589132789441        1.93879916546946     
   1.98643728730577        2.14324395926075        2.27873965716805     
   2.37461017746327        2.64015098886494        3.33842057870810     
  0.331584937831857       0.561296381700349       0.763100770695454     
  0.972415483226121        1.22733907151372        1.79883922163649     
   2.09651609832562        2.12925891518937        2.14297387896076     
   2.89745456781187       0.403697423993276        1.04621642153853     
   1.39661975332862        1.45417078550097        1.72297967812913     
   2.52504685149218        2.59745815296449        3.44866316902540     
 @CHECKOUT-I, Total execution time (CPU/WALL):        0.54/       0.09 seconds.
--executable xvtran finished with status     0 in        0.11 seconds (walltime).
 --invoking executable--
/home/tsommerfeld/zscale/bin/xintprc
 @GETMEM-I,  Allocated   85830 MB of main memory.
  Processing integrals for CCSD calculation.
  @GMOIAA-I, Processing MO integrals for spin case AA.
  @GMOIAA-I, Generation of integral list completed.
                      TYPE                NUMBER
                      ----               --------
                      PPPP                174781
                      PPPH                128448
                      PPHH                 24003
                      PHPH                 13755
                      PHHH                  5115
                      HHHH                   332

                     TOTAL                346434

  @FORMT2-I, Second-order MP correlation energies:
            ------------------------------------------------
            E(SCF)                  =    -78.519579020689 a.u.
            E2(AA)                  =     -0.031164157467 a.u.
            E2(AB)                  =     -0.243662276912 a.u.
            E2(TOT)                 =     -0.305990591846 a.u.
            Total MP2 energy        =    -78.825569612535 a.u.
            ------------------------------------------------
   Largest T2 amplitudes for spin case AB:
       _       _                 _       _                 _       _
   i   j   a   b             i   j   a   b             i   j   a   b
-----------------------------------------------------------------------------
[  4   4  25  25]-0.09202 [  5   5  10  10]-0.06974 [  5   5  41  41]-0.04480
[  5   5  28  28]-0.04473 [  5   5  12  12]-0.04394 [  5   5  11  10] 0.03932
[  5   5  10  11] 0.03932 [  5   5  16  16]-0.03692 [  4   4  30  25] 0.03058
[  4   4  25  30] 0.03058 [  5   5  16  10] 0.02952 [  5   5  10  16] 0.02952
[  4   3  25  31] 0.02658 [  3   4  31  25] 0.02658 [  4   4  14  14]-0.02647
-----------------------------------------------------------------------------
   Norm of T2AB vector (    47574 symmetry allowed elements):  0.3154125188.
-----------------------------------------------------------------------------
 @CHECKOUT-I, Total execution time (CPU/WALL):        0.28/       0.07 seconds.
--executable xintprc finished with status     0 in        0.09 seconds (walltime).
  calling xvcc 
 --invoking executable--
/home/tsommerfeld/zscale/bin/xvcc
 @GETMEM-I,  Allocated   85830 MB of main memory.
   CCSD energy will be calculated.
   The total correlation energy is -0.305990591846 a.u.
   The total correlation energy is -0.331944683002 a.u.
  Convergence information after     1 iterations: 
  Largest element of residual vector : -0.27507291E-01.
  Largest element of DIIS residual   : -0.27507291E-01.
   The total correlation energy is -0.342005894546 a.u.
  Convergence information after     2 iterations: 
  Largest element of residual vector : -0.12998409E-01.
  Largest element of DIIS residual   : -0.10406975E-01.
   The total correlation energy is -0.346169057512 a.u.
  Convergence information after     3 iterations: 
  Largest element of residual vector : -0.45478940E-02.
  Largest element of DIIS residual   : -0.41432827E-02.
   The total correlation energy is -0.347227995875 a.u.
  Convergence information after     4 iterations: 
  Largest element of residual vector : -0.21377734E-02.
  Largest element of DIIS residual   : -0.12030437E-02.
   The total correlation energy is -0.347413749411 a.u.
  Convergence information after     5 iterations: 
  Largest element of residual vector : -0.59659090E-03.
  Largest element of DIIS residual   :  0.32447607E-03.
   The total correlation energy is -0.347408720083 a.u.
  Convergence information after     6 iterations: 
  Largest element of residual vector : -0.24620124E-03.
  Largest element of DIIS residual   :  0.18762916E-03.
   The total correlation energy is -0.347399925492 a.u.
  Convergence information after     7 iterations: 
  Largest element of residual vector :  0.11332754E-03.
  Largest element of DIIS residual   : -0.56309752E-04.
   The total correlation energy is -0.347392604425 a.u.
  Convergence information after     8 iterations: 
  Largest element of residual vector :  0.36301871E-04.
  Largest element of DIIS residual   :  0.20585102E-04.
   The total correlation energy is -0.347391648655 a.u.
  Convergence information after     9 iterations: 
  Largest element of residual vector : -0.15196342E-04.
  Largest element of DIIS residual   : -0.10886564E-04.
   The total correlation energy is -0.347391999167 a.u.
  Convergence information after    10 iterations: 
  Largest element of residual vector : -0.47950546E-05.
  Largest element of DIIS residual   : -0.52031540E-05.
   The total correlation energy is -0.347392595837 a.u.
  Convergence information after    11 iterations: 
  Largest element of residual vector : -0.31784822E-05.
  Largest element of DIIS residual   : -0.28658222E-05.
   The total correlation energy is -0.347393011957 a.u.
  Convergence information after    12 iterations: 
  Largest element of residual vector : -0.14957340E-05.
  Largest element of DIIS residual   : -0.10804017E-05.
   The total correlation energy is -0.347393260461 a.u.
  Convergence information after    13 iterations: 
  Largest element of residual vector : -0.69956228E-06.
  Largest element of DIIS residual   : -0.44786268E-06.
   The total correlation energy is -0.347393298872 a.u.
  Convergence information after    14 iterations: 
  Largest element of residual vector : -0.22260078E-06.
  Largest element of DIIS residual   :  0.17167846E-06.
   The total correlation energy is -0.347393290821 a.u.
  Convergence information after    15 iterations: 
  Largest element of residual vector : -0.99327383E-07.
  Largest element of DIIS residual   :  0.96727974E-07.
  Amplitude equations converged in    15iterations.
   The total correlation energy is -0.347393285300 a.u.
   The CC iterations have converged.

   Largest T1 amplitudes for spin case AA:
   i       a                 i       a                 i       a    
-----------------------------------------------------------------------------
[  5      10    ]-0.02165 [  4      14    ]-0.01799 [  4      18    ] 0.01583
[  4      15    ] 0.01556 [  5      16    ]-0.01444 [  8      42    ]-0.00612
[  5      11    ] 0.00601 [  4      21    ] 0.00586 [  3      13    ]-0.00483
[  5      17    ] 0.00474 [  9      56    ] 0.00446 [  4      12    ] 0.00434
[  9      50    ]-0.00434 [  3      23    ] 0.00402 [  8      45    ] 0.00400
-----------------------------------------------------------------------------
   Norm of T1AA vector (      123 symmetry allowed elements):  0.0436831618.
-----------------------------------------------------------------------------
   Largest T2 amplitudes for spin case AB:
       _       _                 _       _                 _       _
   i   j   a   b             i   j   a   b             i   j   a   b
-----------------------------------------------------------------------------
[  4   4  25  25]-0.13504 [  5   5  10  10]-0.12891 [  5   5  11  10] 0.07264
[  5   5  10  11] 0.07264 [  5   5  41  41]-0.06299 [  5   5  28  28]-0.06286
[  5   5  12  12]-0.06165 [  5   5  16  10] 0.05653 [  5   5  10  16] 0.05653
[  4   4  30  25] 0.04228 [  4   4  25  30] 0.04228 [  5   5  16  16]-0.04200
[  5   5  11  11]-0.04151 [  5   5  16  11]-0.03268 [  5   5  11  16]-0.03268
-----------------------------------------------------------------------------
   Norm of T2AB vector (    47574 symmetry allowed elements):  0.4113900713.
-----------------------------------------------------------------------------
       Summary of iterative solution of CC equations 
      -----------------------------------------------------------
                       Correlation           Total
       Iteration         Energy              Energy
      -----------------------------------------------------------
            0        -0.305990591846     -78.825569612535  DIIS 
            1        -0.331944683002     -78.851523703692  DIIS 
            2        -0.342005894546     -78.861584915235  DIIS 
            3        -0.346169057512     -78.865748078202  DIIS 
            4        -0.347227995875     -78.866807016564  DIIS 
            5        -0.347413749411     -78.866992770101  DIIS 
            6        -0.347408720083     -78.866987740773  DIIS 
            7        -0.347399925492     -78.866978946181  DIIS 
            8        -0.347392604425     -78.866971625114  DIIS 
            9        -0.347391648655     -78.866970669345  DIIS 
           10        -0.347391999167     -78.866971019856  DIIS 
           11        -0.347392595837     -78.866971616527  DIIS 
           12        -0.347393011957     -78.866972032647  DIIS 
           13        -0.347393260461     -78.866972281150  DIIS 
           14        -0.347393298872     -78.866972319562  DIIS 
           15        -0.347393285300     -78.866972305989  DIIS 
      -----------------------------------------------------------
      A miracle has come to pass. The CC iterations have converged.
      The reference energy is       -78.51957902068943 a.u.
      The correlation energy is      -0.34739328529980 a.u.
      The total energy is           -78.86697230598924 a.u.
 @CHECKOUT-I, Total execution time (CPU/WALL):        4.70/       0.60 seconds.
--executable xvcc finished with status     0 in        0.62 seconds (walltime).
 --invoking executable--
/home/tsommerfeld/zscale/bin/xlambda
 @GETMEM-I,  Allocated   85830 MB of main memory.
 Hbar is calculated for a CCSD wave function.
 Calculation of Hbar completed.
 @CHECKOUT-I, Total execution time (CPU/WALL):        0.93/       0.13 seconds.
--executable xlambda finished with status     0 in        0.14 seconds (walltime).
 --invoking executable--
/home/tsommerfeld/zscale/bin/xvee
 @GETMEM-I,  Allocated   85830 MB of main memory.
  cc2 and ccprog  F                     0
  EOMEE-CCSD excitation energies will be evaluated.
  @SETMET-I, VPROP property integrals are used.
  @SETMET-I, A total of   3 target states will be studied.
  Summary of active alpha molecular orbitals:
------------------------------------------------------------------------------
Orbital      Sym   Eigenvalue  <xx>     <yy>     <zz>     <xy>     <xz>     <yz>
        SCF
  #  position
------------------------------------------------------------------------------
   1      1    1     -11.1234   0.000    0.000    0.000    0.000    0.000    0.000
   2      3    1      -0.9276   0.000    0.000    0.000    0.000    0.000    0.000
   3      6    1      -0.4545   0.000    0.000    0.000    0.000    0.000    0.000
   4      8    1      -0.2631   0.000    0.000    0.000    0.000    0.000    0.000
   5      9    1      -0.0422   0.000    0.000    0.000    0.000    0.000    0.000
   6      2    2     -11.1217   0.000    0.000    0.000    0.000    0.000    0.000
   7      4    2      -0.6698   0.000    0.000    0.000    0.000    0.000    0.000
   8      5    3      -0.5479   0.000    0.000    0.000    0.000    0.000    0.000
   9      7    4      -0.4040   0.000    0.000    0.000    0.000    0.000    0.000
  10     10    1       0.2799   0.000    0.000    0.000    0.000    0.000    0.000
  11     12    1       0.3163   0.000    0.000    0.000    0.000    0.000    0.000
  12     17    1       0.5591   0.000    0.000    0.000    0.000    0.000    0.000
  13     20    1       0.6665   0.000    0.000    0.000    0.000    0.000    0.000
  14     22    1       0.7987   0.000    0.000    0.000    0.000    0.000    0.000
  15     23    1       0.8329   0.000    0.000    0.000    0.000    0.000    0.000
  16     29    1       1.0983   0.000    0.000    0.000    0.000    0.000    0.000
  17     30    1       1.1123   0.000    0.000    0.000    0.000    0.000    0.000
  18     33    1       1.3962   0.000    0.000    0.000    0.000    0.000    0.000
  19     36    1       1.7062   0.000    0.000    0.000    0.000    0.000    0.000
  20     41    1       2.0281   0.000    0.000    0.000    0.000    0.000    0.000
  21     42    1       2.0425   0.000    0.000    0.000    0.000    0.000    0.000
  22     47    1       2.1475   0.000    0.000    0.000    0.000    0.000    0.000
  23     51    1       2.5252   0.000    0.000    0.000    0.000    0.000    0.000
  24     55    1       2.8991   0.000    0.000    0.000    0.000    0.000    0.000
  25     11    2       0.2818   0.000    0.000    0.000    0.000    0.000    0.000
  26     14    2       0.3489   0.000    0.000    0.000    0.000    0.000    0.000
  27     16    2       0.5506   0.000    0.000    0.000    0.000    0.000    0.000
  28     19    2       0.5613   0.000    0.000    0.000    0.000    0.000    0.000
  29     24    2       0.9005   0.000    0.000    0.000    0.000    0.000    0.000
  30     25    2       0.9217   0.000    0.000    0.000    0.000    0.000    0.000
  31     28    2       1.0729   0.000    0.000    0.000    0.000    0.000    0.000
  32     32    2       1.3459   0.000    0.000    0.000    0.000    0.000    0.000
  33     39    2       1.9388   0.000    0.000    0.000    0.000    0.000    0.000
  34     40    2       1.9864   0.000    0.000    0.000    0.000    0.000    0.000
  35     46    2       2.1432   0.000    0.000    0.000    0.000    0.000    0.000
  36     48    2       2.2787   0.000    0.000    0.000    0.000    0.000    0.000
  37     49    2       2.3746   0.000    0.000    0.000    0.000    0.000    0.000
  38     53    2       2.6402   0.000    0.000    0.000    0.000    0.000    0.000
  39     56    2       3.3384   0.000    0.000    0.000    0.000    0.000    0.000
  40     13    3       0.3316   0.000    0.000    0.000    0.000    0.000    0.000
  41     18    3       0.5613   0.000    0.000    0.000    0.000    0.000    0.000
  42     21    3       0.7631   0.000    0.000    0.000    0.000    0.000    0.000
  43     26    3       0.9724   0.000    0.000    0.000    0.000    0.000    0.000
  44     31    3       1.2273   0.000    0.000    0.000    0.000    0.000    0.000
  45     38    3       1.7988   0.000    0.000    0.000    0.000    0.000    0.000
  46     43    3       2.0965   0.000    0.000    0.000    0.000    0.000    0.000
  47     44    3       2.1293   0.000    0.000    0.000    0.000    0.000    0.000
  48     45    3       2.1430   0.000    0.000    0.000    0.000    0.000    0.000
  49     54    3       2.8975   0.000    0.000    0.000    0.000    0.000    0.000
  50     15    4       0.4037   0.000    0.000    0.000    0.000    0.000    0.000
  51     27    4       1.0462   0.000    0.000    0.000    0.000    0.000    0.000
  52     34    4       1.3966   0.000    0.000    0.000    0.000    0.000    0.000
  53     35    4       1.4542   0.000    0.000    0.000    0.000    0.000    0.000
  54     37    4       1.7230   0.000    0.000    0.000    0.000    0.000    0.000
  55     50    4       2.5250   0.000    0.000    0.000    0.000    0.000    0.000
  56     52    4       2.5975   0.000    0.000    0.000    0.000    0.000    0.000
  57     57    4       3.4487   0.000    0.000    0.000    0.000    0.000    0.000
------------------------------------------------------------------------------
  @DRVTDA-I, Roots obtained by Davidson method.
  calling tda davidson                       6                     2
  after tda davidson                      6                     6
                     3                     3
  kroot is                      3
__________________________________________________________________________
    Tamm-Dancoff (CIS) Excitation Energies and Transition Moments

                Excitation         Transition Dipole         Oscillator
 Root  Symmetry  Energy         x           y           z     Strength
__________________________________________________________________________
   1       2    0.21030      0.0000      0.0000      0.0000  .00000000D+00
__________________________________________________________________________
 
__________________________________________________________________________
  TDA excitation ergy:             0.210297476942 a.u.    5.7225 eV
  Total TDA electronic energy:   -78.309281543747 a.u.
 
  Dominant contributions: 
  SCF eigenvalue ordering used in list below. 
--------------------------------------------------------------------------------
    I    j    A    b
--------------------------------------------------------------------------------
    9    0   11    0  -0.9982452312 AA  
    8    0   11    0  -0.0380994113 AA  
    9    0   14    0  -0.0330061886 AA  
    9    0   24    0   0.0169393169 AA  
    9    0   19    0   0.0115800169 AA  
    9    0   32    0   0.0101280182 AA  
    6    0   11    0   0.0093565518 AA  
    9    0   28    0   0.0063877369 AA  
    6    0   28    0  -0.0062308640 AA  
    5    0   15    0   0.0057068106 AA  
    7    0   13    0   0.0056959082 AA  
    6    0   16    0  -0.0055292021 AA  
    4    0   12    0   0.0054339729 AA  
    9    0   25    0  -0.0048997035 AA  
    7    0   21    0   0.0040875737 AA  
--------------------------------------------------------------------------------
   2       2    0.28739      0.0000      0.0000      0.0000  .00000000D+00
__________________________________________________________________________
 
__________________________________________________________________________
  TDA excitation ergy:             0.287386275031 a.u.    7.8202 eV
  Total TDA electronic energy:   -78.232192745658 a.u.
 
  Dominant contributions: 
  SCF eigenvalue ordering used in list below. 
--------------------------------------------------------------------------------
    I    j    A    b
--------------------------------------------------------------------------------
    9    0   14    0  -0.9917700733 AA  
    8    0   11    0  -0.1077804608 AA  
    8    0   14    0  -0.0382901078 AA  
    9    0   11    0   0.0378335716 AA  
    9    0   19    0   0.0264069635 AA  
    7    0   13    0   0.0120403177 AA  
    9    0   25    0  -0.0118362061 AA  
    4    0   12    0   0.0100191398 AA  
    5    0   15    0   0.0097688547 AA  
    6    0   11    0   0.0096565004 AA  
    6    0   14    0   0.0091711951 AA  
    6    0   28    0  -0.0091671847 AA  
    6    0   16    0  -0.0085930007 AA  
    9    0   24    0  -0.0074219865 AA  
    4    0   10    0   0.0072866578 AA  
--------------------------------------------------------------------------------
   3       2    0.30938      0.0000      0.0000      0.0000  .00000000D+00
__________________________________________________________________________
 
__________________________________________________________________________
  TDA excitation ergy:             0.309382887750 a.u.    8.4187 eV
  Total TDA electronic energy:   -78.210196132939 a.u.
 
  Dominant contributions: 
  SCF eigenvalue ordering used in list below. 
--------------------------------------------------------------------------------
    I    j    A    b
--------------------------------------------------------------------------------
    8    0   11    0  -0.9572723548 AA  
    9    0   14    0   0.1144670955 AA  
    6    0   16    0  -0.1077760459 AA  
    6    0   28    0  -0.0925502515 AA  
    5    0   15    0   0.0859235567 AA  
    4    0   12    0   0.0858155548 AA  
    7    0   21    0   0.0766777468 AA  
    7    0   13    0   0.0755924743 AA  
    9    0   19    0   0.0636477808 AA  
    4    0   10    0   0.0628551594 AA  
    3    0   14    0   0.0433358453 AA  
    5    0   27    0   0.0400037650 AA  
    6    0   24    0  -0.0387990130 AA  
    6    0   14    0   0.0384715703 AA  
    7    0   26    0   0.0378524559 AA  
--------------------------------------------------------------------------------
__________________________________________________________________________
  @DOEOMEE-I, Excitation energies computed by the EOMEE-CCSD/CCSD-LR method.
  @DOEOMEE-I, right-hand eigenvectors will be computed.
  Beginning symmetry block   2.   3 roots requested.
  @DOEOMEE-I, Matrix dimension for diagonalization:    47661
  Creating initial guess for root
________________________________________________________________________
            Subspace          Eigenvalue           
 Iteration  Dimension   (a.u.)         (eV)       Overlap      Residual
________________________________________________________________________
  @NEWGES-I, Using TDA initial guess.
  1   1  0.2870862672D+00  0.7812014487D+01  0.0000000000D+00  0.4672316489D+00
  2   2  0.1731499355D+00  0.4711649281D+01  0.9406285095D+00  0.1320006724D+00
  3   3  0.1631083009D+00  0.4438402511D+01  0.9914309906D+00  0.3778969427D-01
  4   4  0.1625458244D+00  0.4423096748D+01  0.9995073921D+00  0.1432877773D-01
  5   5  0.1624545771D+00  0.4420613783D+01  0.9999597977D+00  0.4386719846D-02
  L-O-C-K-I-N-G O-N R-O-O-T 
  6   6  0.1624469479D+00  0.4420406181D+01  0.9999931854D+00  0.1357216555D-02
  7   7  0.1624468675D+00  0.4420403993D+01  0.9999989085D+00  0.7900931101D-03
  8   8  0.1624465977D+00  0.4420396653D+01  0.9999995898D+00  0.1798582183D-03
  9   9  0.1624458698D+00  0.4420376844D+01  0.9999999743D+00  0.1153145861D-03
 10  10  0.1624460102D+00  0.4420380666D+01  0.9999999732D+00  0.4829928845D-04
 11  11  0.1624459922D+00  0.4420380176D+01  0.9999999958D+00  0.1399737789D-04
 12  12  0.1624460119D+00  0.4420380711D+01  0.9999999999D+00  0.4206264651D-05
  Converged eigenvalue:   0.162446011875801       a.u.
   Total EOMEE-CCSD electronic energy      -78.704526294113435 a.u.
  Converged eigenvector 
  SCF eigenvalue ordering used in list below. 
--------------------------------------------------------------------------------
    I    j    A    b
--------------------------------------------------------------------------------
    9    0   11    0   0.6495713272 AA  
    9    9   11   10   0.1893911008 ABAB
    9    9   10   11   0.1893911008 ABAB
    9    9   11   12  -0.1032021377 ABAB
    9    9   12   11  -0.1032021377 ABAB
    9    9   11   29  -0.0761514102 ABAB
    9    9   29   11  -0.0761514102 ABAB
    9    8   11   10   0.0352986525 ABAB
    8    9   10   11   0.0352986525 ABAB
    7    9   15   11  -0.0348093632 ABAB
    9    7   11   15  -0.0348093632 ABAB
    9    0   25    0  -0.0325855814 AA  
    5    9   13   11  -0.0315879401 ABAB
    9    5   11   13  -0.0315879401 ABAB
    4    9   14   11  -0.0306913302 ABAB
--------------------------------------------------------------------------------
  Converged eigenvector, normalized to one 
  SCF eigenvalue ordering used in list below. 
--------------------------------------------------------------------------------
    I    j    A    b
--------------------------------------------------------------------------------
    9    0   11    0   0.6495713272 AA  
    9    9   11   10   0.1893911008 ABAB
    9    9   10   11   0.1893911008 ABAB
    9    9   11   12  -0.1032021377 ABAB
    9    9   12   11  -0.1032021377 ABAB
    9    9   11   29  -0.0761514102 ABAB
    9    9   29   11  -0.0761514102 ABAB
    9    8   11   10   0.0352986525 ABAB
    8    9   10   11   0.0352986525 ABAB
    7    9   15   11  -0.0348093632 ABAB
    9    7   11   15  -0.0348093632 ABAB
    9    0   25    0  -0.0325855814 AA  
    5    9   13   11  -0.0315879401 ABAB
    9    5   11   13  -0.0315879401 ABAB
    4    9   14   11  -0.0306913302 ABAB
--------------------------------------------------------------------------------

  Eigenvector is saved on CCRE_2_1  

  Adding new vector to expansion space.
  Guess for next eigenvalue   0.287386275031410     
 13  13  0.2450527500D+00  0.6668224335D+01  0.7078510660D+00  0.3707753068D-01
 14  14  0.2443371671D+00  0.6648752333D+01  0.9994023044D+00  0.1196677719D-01
 15  15  0.2442491183D+00  0.6646356403D+01  0.9999327511D+00  0.4621306546D-02
  L-O-C-K-I-N-G O-N R-O-O-T 
 16  16  0.2442315534D+00  0.6645878438D+01  0.9999880523D+00  0.1472925842D-02
 17  17  0.2442316473D+00  0.6645880993D+01  0.9999986760D+00  0.8481161378D-03
 18  18  0.2442294174D+00  0.6645820315D+01  0.9999993960D+00  0.2864247578D-03
 19  19  0.2442297380D+00  0.6645829040D+01  0.9999999302D+00  0.1037017955D-03
 20  20  0.2442300782D+00  0.6645838297D+01  0.9999999943D+00  0.2974956926D-04
 21  21  0.2442299674D+00  0.6645835280D+01  0.9999999994D+00  0.1324982455D-04
 22  22  0.2442299407D+00  0.6645834553D+01  0.9999999999D+00  0.3270760996D-05
  Converged eigenvalue:   0.244229940660405       a.u.
   Total EOMEE-CCSD electronic energy      -78.622742365328833 a.u.
  Converged eigenvector 
  SCF eigenvalue ordering used in list below. 
--------------------------------------------------------------------------------
    I    j    A    b
--------------------------------------------------------------------------------
    9    0   14    0  -0.6493552708 AA  
    9    9   14   10  -0.2056530616 ABAB
    9    9   10   14  -0.2056530616 ABAB
    9    9   14   12   0.1132156662 ABAB
    9    9   12   14   0.1132156662 ABAB
    9    9   14   29   0.0817177102 ABAB
    9    9   29   14   0.0817177102 ABAB
    9    8   12   11   0.0377748753 ABAB
    8    9   11   12   0.0377748753 ABAB
    9    8   10   11   0.0289412736 ABAB
    8    9   11   10   0.0289412736 ABAB
    9    0   11    0   0.0241435690 AA  
    9    0   24    0  -0.0240824307 AA  
    9    9   14   30  -0.0222524403 ABAB
    9    9   30   14  -0.0222524403 ABAB
--------------------------------------------------------------------------------
  Converged eigenvector, normalized to one 
  SCF eigenvalue ordering used in list below. 
--------------------------------------------------------------------------------
    I    j    A    b
--------------------------------------------------------------------------------
    9    0   14    0  -0.6493552708 AA  
    9    9   14   10  -0.2056530616 ABAB
    9    9   10   14  -0.2056530616 ABAB
    9    9   14   12   0.1132156662 ABAB
    9    9   12   14   0.1132156662 ABAB
    9    9   14   29   0.0817177102 ABAB
    9    9   29   14   0.0817177102 ABAB
    9    8   12   11   0.0377748753 ABAB
    8    9   11   12   0.0377748753 ABAB
    9    8   10   11   0.0289412736 ABAB
    8    9   11   10   0.0289412736 ABAB
    9    0   11    0   0.0241435690 AA  
    9    0   24    0  -0.0240824307 AA  
    9    9   14   30  -0.0222524403 ABAB
    9    9   30   14  -0.0222524403 ABAB
--------------------------------------------------------------------------------

  Eigenvector is saved on CCRE_2_2  

  Adding new vector to expansion space.
  Guess for next eigenvalue   0.309382887750202     
 23  23  0.3415184353D+00  0.9293189081D+01  0.7294792405D+00  0.1842160440D+01
 24  24  0.3350215935D+00  0.9116401029D+01  0.9923004600D+00  0.1308283211D+01
 25  25  0.3298606815D+00  0.8975965473D+01  0.9875694287D+00  0.1381133948D+00
 26  26  0.3282077279D+00  0.8930986319D+01  0.9938351836D+00  0.4849826446D-01
 27  27  0.3276771617D+00  0.8916548878D+01  0.9971313243D+00  0.1569546527D-01
 28  28  0.3274833634D+00  0.8911275359D+01  0.9994564036D+00  0.8662871672D-02
 29  29  0.3274428733D+00  0.8910173566D+01  0.9998932461D+00  0.5191857237D-02
  L-O-C-K-I-N-G O-N R-O-O-T 
 30  30  0.3274333187D+00  0.8909913573D+01  0.9999114825D+00  0.3661367657D-02
 31  31  0.3274273812D+00  0.8909752005D+01  0.9998902945D+00  0.1994929973D-02
 32  32  0.3274211931D+00  0.8909583618D+01  0.9999782315D+00  0.6511164988D-03
 33  33  0.3274212961D+00  0.8909586423D+01  0.9999992324D+00  0.3057155572D-03
 34  34  0.3274212276D+00  0.8909584558D+01  0.9999998642D+00  0.1291492103D-03
 35  35  0.3274213850D+00  0.8909588841D+01  0.9999999618D+00  0.1056990888D-03
 36  36  0.3274214214D+00  0.8909589830D+01  0.9999999611D+00  0.5290281229D-04
 37  37  0.3274214123D+00  0.8909589585D+01  0.9999999927D+00  0.3231302207D-04
 38  38  0.3274213920D+00  0.8909589032D+01  0.9999999964D+00  0.1336558907D-04
 39  39  0.3274213910D+00  0.8909589005D+01  0.9999999994D+00  0.6001263073D-05
  Converged eigenvalue:   0.327421391030909       a.u.
   Total EOMEE-CCSD electronic energy      -78.539550914958326 a.u.
  Converged eigenvector 
  SCF eigenvalue ordering used in list below. 
--------------------------------------------------------------------------------
    I    j    A    b
--------------------------------------------------------------------------------
    8    0   11    0  -0.6699562872 AA  
    6    0   16    0  -0.0708020224 AA  
    4    0   12    0   0.0596124749 AA  
    6    0   28    0  -0.0582327383 AA  
    5    0   15    0   0.0549754194 AA  
    7    0   21    0   0.0539154409 AA  
    9    0   19    0   0.0461913100 AA  
    4    0   10    0   0.0436680059 AA  
    8    8   11   33   0.0428365642 ABAB
    8    8   33   11   0.0428365642 ABAB
    9    8   11   10   0.0374360912 ABAB
    8    9   10   11   0.0374360912 ABAB
    7    0   13    0   0.0373266573 AA  
    8    0   25    0   0.0355785655 AA  
    4    3   11   11  -0.0349802345 ABAB
--------------------------------------------------------------------------------
  Converged eigenvector, normalized to one 
  SCF eigenvalue ordering used in list below. 
--------------------------------------------------------------------------------
    I    j    A    b
--------------------------------------------------------------------------------
    8    0   11    0  -0.6699562872 AA  
    6    0   16    0  -0.0708020224 AA  
    4    0   12    0   0.0596124749 AA  
    6    0   28    0  -0.0582327383 AA  
    5    0   15    0   0.0549754194 AA  
    7    0   21    0   0.0539154409 AA  
    9    0   19    0   0.0461913100 AA  
    4    0   10    0   0.0436680059 AA  
    8    8   11   33   0.0428365642 ABAB
    8    8   33   11   0.0428365642 ABAB
    9    8   11   10   0.0374360912 ABAB
    8    9   10   11   0.0374360912 ABAB
    7    0   13    0   0.0373266573 AA  
    8    0   25    0   0.0355785655 AA  
    4    3   11   11  -0.0349802345 ABAB
--------------------------------------------------------------------------------

  Eigenvector is saved on CCRE_2_3  

  Solution of   3 roots required   39 iterations.
 @CHECKOUT-I, Total execution time (CPU/WALL):       24.09/       3.02 seconds.
--executable xvee finished with status     0 in        3.04 seconds (walltime).
  The final electronic energy is       -78.539550914958326 a.u. 
  This computation required                            4.60 seconds (walltime).
