CFour on node02
 --invoking executable--
/home/tsommerfeld/zscale/bin/xjoda


   *************************************************************************
         <<<     CCCCCC     CCCCCC   |||     CCCCCC     CCCCCC   >>>
       <<<      CCC        CCC       |||    CCC        CCC         >>>
      <<<      CCC        CCC        |||   CCC        CCC            >>>
    <<<        CCC        CCC        |||   CCC        CCC              >>>
      <<<      CCC        CCC        |||   CCC        CCC            >>>
       <<<      CCC        CCC       |||    CCC        CCC         >>>
         <<<     CCCCCC     CCCCCC   |||     CCCCCC     CCCCCC   >>>
   *************************************************************************

     ****************************************************************
     * CFOUR Coupled-Cluster techniques for Computational Chemistry *
     ****************************************************************
 

   Department of Chemistry                Institut fuer Physikalische Chemie
   University of Florida                  Universitaet Mainz
   Gainesville, FL 32611, USA             D-55099 Mainz, Germany

   Department of Chemistry                Department of Chemistry
   Johns Hopkins University               Southern Methodist University
   Baltimore, MD 21218, USA               Dallas, TX 75275, USA

   Institute of Nanotechnology            Department of Physical Chemistry
   Karlsruhe Inst. of Technology          Eotvos Lorand University
   D-76021 Karlsruhe, Germany             H-1053 Budapest, Hungary

 
                       Version 2.1
 
                     node02                                            
                     Tue Mar 29 15:02:39 CST 2022                      
                     integer*8 version is running
 
********************************************************************************
*                          Input from ZMAT file                                *
********************************************************************************
h_ethylene                                                                      
C       0.000000      0.0   -0.664500                                           
C       0.000000      0.0    0.664500                                           
H       0.962348      0.0   -1.159080                                           
H       0.962348      0.0    1.159080                                           
H      -0.962348      0.0   -1.159080                                           
H      -0.962348      0.0    1.159080                                           
H      0.000000      2.9827586206896552      0.000000                           
                                                                                
*CFOUR(CALC=CCSD                                                                
EXCITE=EOMEE                                                                    
ESTATE_SYM=0/3/0/0                                                              
CC_PROG=VCC                                                                     
CHARGE=-1                                                                       
COORDINATES=CARTESIAN                                                           
SCF_DAMP=500                                                                    
SCF_MAXCYC=300                                                                  
BASIS=SPECIAL                                                                   
REFERENCE=RHF                                                                   
MEM_SIZE=90,MEM_UNIT=GB)                                                        
                                                                                
C:CC-PVDZ                                                                       
C:CC-PVDZ                                                                       
H:CC-PVDZ                                                                       
H:CC-PVDZ                                                                       
H:CC-PVDZ                                                                       
H:CC-PVDZ                                                                       
H:AUG-CC-PVDZ                                                                   
                                                                                
********************************************************************************
    -------------------------------------------------------------------
                    CFOUR Control Parameters 
    -------------------------------------------------------------------
        External           Internal           Value            Units
          Name               Name
    -------------------------------------------------------------------
       ABCDTYPE             IABCDT         STANDARD    [  0]    ***   
       ANHARMONIC           IANHAR         OFF         [  0]    ***   
       ANH_ALGORIT          IANALG         STANDARD    [  0]    ***   
       ANH_DERIVAT          IANDER         SECOND      [  1]    ***   
       ANH_MODE             ANHMOD         VIBRATION   [  0]    ***   
       ANH_STEPSIZ          ICUBST             50000          x 10-6  
       ANH_SYMMETR          IANHSM         ABELIAN     [  0]    ***   
       AO_LADDERS           IAOLAD         SINGLEPASS  [  1]    ***   
       AV_SCF               IAVSCF         OFF         [  0]    ***   
       BASIS                IBASIS         SPECIAL     [  0]    ***   
       BOTHVECTORS          BOTHVC         OFF         [  0]    ***   
       BOX_POTENT           IPIAB          OFF         [  0]    ***   
       BREIT                IBREIT         OFF         [  0]    ***   
       BRUCK_CONV           IBRTOL          10D-  4             ***   
       BRUECKNER            IBRKNR         OFF         [  0]    ***   
       BUFFERSIZE           IBUFFS              4096            ***   
       CACHE_RECS           ICHREC             10               ***   
       CALCLEVEL            ICLLVL         CCSD        [ 10]    ***   
       CCORBOPT             ICCORB         OFF         [  0]  x 0.01  
       CC_CONV              ICCCNV          10D-  7             ***   
       CC_EXPORDER          ICCEOR              5               ***   
       CC_EXTRAPOL          ICCEXT         DIIS        [  1]    ***   
       CC_GUESS             ICCGES         MP2         [  0]    ***   
       CC_MAXCYC            ICCCYC            100              cycles 
       CC_PROGRAM           ICCPRO         VCC         [  0]    ***   
       CHARGE               ICHRGE             -1               ***   
       CHOLESKY             ICHOLE         OFF         [  0]    ***   
       CIS_CONV             ICISTL              5               ***   
       COMM_SIZE            IPSIZE            ***               ***   
       CONSTANT             ICONST         OLD         [  1]    ***   
       CONTINUUM            ICONTU         NONE        [  0]    ***   
       CONTRACTION          ICNTYP         GENERAL     [  1]    ***   
       COORDINATES          ICOORD         CARTESIAN   [  1]    ***   
       CPHF_CONVER          ICPHFT          10D- 16             ***   
       CPHF_MAXCYC          ICPHFC             64              cycles 
       CUBIC                ICUBIC         OFF         [  0]    ***   
       CURVILINEAR          ICURVY         OFF         [  0]    ***   
       DBOC                 IDBOC          OFF         [  0]    ***   
       DCT                  IDCT           OFF         [  0]    ***   
       DERIV_LEV            IDRLVL         ZERO        [  0]    ***   
       DEVMEM_SIZE          IDVMEM         *********           MByte  
       DIAG_MRCC            IEOMST          10D-  0             ***   
       DIFF_TYPE            IDIFTY         RELAXED     [  0]    ***   
       DIRECT               IDIRCT         OFF         [  0]    ***   
       DROPMO               IDRPMO      NONE         
       ECP                  IECP           OFF         [  0]    ***   
       EIGENVECTOR          IVEC                1               ***   
       EL_ANHARM            IELANH         OFF         [  0]    ***   
       EOMFOLLOW            IEOMSR         ENERGY      [  0]    ***   
       EOMIP                IEOMIP         OFF         [  0]    ***   
       EOMLEVEL             HBARFM         SAME        [  0]    ***   
       EOM_MRCC             IMRCCE         NEW         [  1]    ***   
       EOM_NONIT            EOMNON         OFF         [  0]    ***   
       EOM_NSING            IEOMSI          10D-  0             ***   
       EOM_NSTATES          IMRCCD         DAVIDSON    [  0]    ***   
       EOM_NTRIP            IEOMTR          10D-  0             ***   
       EOM_ORDER            IEXORD         ENERGY      [  0]    ***   
       EOM_PROPSTA          IEOMST              0               ***   
       ESTATE_CONV          IEXTOL          10D-  5             ***   
       ESTATE_DIAG          IEXDIG         ITERATIVE   [  0]    ***   
       ESTATE_LOCK          IESLOC         ON          [  1]    ***   
       ESTATE_MAXC          IEXMXC             40               ***   
       ESTATE_PROP          IEXPRP         OFF         [  0]    ***   
       ESTATE_SYM           IEXSYM   0,  3,  0,  0,
       EVAL_HESS            IRECAL              0            # of cyc.
       EXCITATION           IEXCIT              0               ***   
       EXCITE               IEXCIT         EOMEE       [  3]    ***   
       EXTERN_POT           IEXPOT         OFF         [  0]    ***   
       FCGRADNEW            IFCGNW         OFF         [  0]    ***   
       FC_FIELD             IFINFC              0             x 10-6  
       FD_CALTYPE           IFDCAL         GRADONLY    [  0]    ***   
       FD_PROJECT           IFDPRJ         OFF         [  1]    ***   
       FD_STEPSIZE          IDISFD              0            10-4 bohr
       FD_USEGROUP          IFDGRP         FULL        [  0]    ***   
       FILE_RECSIZ          IFLREC              4096           words  
       FINITE_PERT          IFIPER              0             x 10-6  
       FIXGEOM              IFIXGM         OFF         [  0]    ***   
       FOCK                 IFOCK          AO          [  1]    ***   
       FREQ_ALGORI          IVIALG         STANDARD    [  0]    ***   
       FROZEN_CORE          IFROCO         OFF         [  0]    ***   
       GAMMA_ABCD           IGABCD         STORE       [  0]    ***   
       GAMMA_ABCI           IGABCI         STORE       [  0]    ***   
       GENBAS_1             IGNBS1              0               ***   
       GENBAS_2             IGNBS2              0               ***   
       GENBAS_3             IGNBS3              0               ***   
       GENBAS_4             IGNBS4              0               ***   
       GEO_CONV             ICONTL              5              H/bohr 
       GEO_MAXCYC           IOPTCY             50               ***   
       GEO_MAXSTEP          IMXSTP            300            millibohr
       GEO_METHOD           INR            SINGLE_POINT[  5]    ***   
       GIAO                 IGIAO          OFF         [  1]    ***   
       GIMIC                IGIMIC         OFF         [  0]    ***   
       GRID                 IGRID          OFF         [  0]    ***   
       GRID_ALGO            IGALGO         SERIAL      [  0]    ***   
       GUESS                IGUESS         MOREAD      [  0]    ***   
       HBAR                 IHBAR          ON          [  1]    ***   
       HESS_TYPE            IHESTP         SCF         [  0]    ***   
       HF2_FILE             IHF2Fl         USE         [  1]    ***   
       HFSTABILITY          ISTABL         OFF         [  0]    ***   
       INCORE               INCORE         OFF         [  0]    ***   
       INPUT_MRCC           IMRCC          ON          [  1]    ***   
       INTEGRALS            INTTYP         VMOL        [  1]    ***   
       JODA_PRINT           IJPRNT              0               ***   
       KEYWORD_OUT          IDMPKW         NO          [  0]    ***   
       LINDEP_TOL           ILINDP              8               ***   
       LINEQ_CONV           IZTACN          10D-  7           cycles  
       LINEQ_EXPOR          ILMAXD              5               ***   
       LINEQ_MAXCY          ILMAXC            100               ***   
       LINEQ_TYPE           ILTYPE         DIIS        [  1]    ***   
       LOCK_ORBOCC          ILOCOC         OFF         [  0]    ***   
       MEMORY_SIZE          IMEMSZ         *********           words  
       MEM_UNIT             IMEMU          GB          [  3]    ***   
       MRCC                 IMRCCC         OFF         [  0]    ***   
       MULTIPLICTY          IMULTP              1               ***   
       NACOUPLING           IVCOUP         OFF         [  0]    ***   
       NEGEVAL              IDIE           ABORT       [  0]    ***   
       NEWNORM              INEWNO         OFF         [  0]    ***   
       NON-HF               INONHF         OFF         [  0]    ***   
       NTOP_TAMP            ITOPT2             15               ***   
       NUC_MODEL            INUCMO         POINT       [  0]    ***   
       OCCUPATION           IOCCU   ESTIMATED BY SCF 
       OPEN-SHELL           IOPEN          SPIN-ORBITAL[  0]    ***   
       OPTVIB               IOPTVB         OFF         [  0]    ***   
       ORBITALS             IORBTP         STANDARD    [  0]    ***   
       PARALLEL             IPARAL         ON          [  1]    ***   
       PARA_INT             IPINTS         ON          [  1]    ***   
       PARA_PRINT           IPPRIN              0               ***   
       PERT_ORB             IPTORB         STANDARD    [  0]    ***   
       POINTS               IGRDFD              0               ***   
       PRINT                IPRNT               0               ***   
       PROPS                IPROPS         OFF         [  0]    ***   
       PROP_INTEGR          IINTYP         INTERNAL    [  0]    ***   
       PSI                  IPSI           OFF         [  0]    ***   
       QC_ALG               IQCALG         FLM         [  0]    ***   
       QC_LINALG            IQCLIN         TRIDIAG     [  2]    ***   
       QC_MAXCYC            IQCMAX          10D-100           cycles  
       QC_MAXSCFCY          IQCMSC          10D- 15           cycles  
       QC_RTRUST            IQCRTR          10D-  0           x 10-3  
       QC_SKIPSCF           IQCSKI         OFF         [  0]    ***   
       QC_START             IQCSTA          10D-  1             ***   
       QRHFGUESS            IQGUES         OFF         [  0]    ***   
       QUARTIC              IQUART         OFF         [  0]    ***   
       RAMAN_INT            IRAMIN         OFF         [  0]    ***   
       RAMAN_ORB            IRAMRE         UNRELAXED   [  0]    ***   
       RDO                  IRDOFM         OFF         [  0]    ***   
       REDUCE_REPR          REDREP         Ir          [  0]    ***   
       REFERENCE            IREFNC         RHF         [  0]    ***   
       RELATIVIST           IRELAT         OFF         [  0]    ***   
       RELAX_DENS           IRDENS         OFF         [  0]    ***   
       RESET_FLAGS          IRESET         OFF         [  0]    ***   
       RESTART_CC           ICCRES         OFF         [  0]    ***   
       ROT_EVEC             ROTVEC              0               ***   
       SAVE_INTS            ISVINT         OFF         [  0]    ***   
       SCALE_ON             ISTCRT              0               ***   
       SCF_CONV             ISCFCV          10D-  7             ***   
       SCF_DAMPING          IDAMP             500             x 10-3  
       SCF_EXPORDE          IRPPOR              6               ***   
       SCF_EXPSTAR          IRPPLS              8               ***   
       SCF_EXTRAPO          IRPP           ON          [  1]    ***   
       SCF_MAXCYC           ISCFCY            300              cycles 
       SCF_NOSTOP           ISCFST         OFF         [  0]    ***   
       SCF_PRINT            ISCFPR              0               ***   
       SCF_PROG             ISCFPR         SCF         [  0]    ***   
       SD_FIELD             IFINSD              0             x 10-6  
       SOPERT               IPERSO         OFF         [  0]    ***   
       SPHERICAL            IDFGHI         ON          [  1]    ***   
       SPINORBIT            ISOCAL         OFF         [  0]    ***   
       SPINROTATIO          ISRCON         OFF         [  0]    ***   
       SPIN_FLIP            ISPFLP         OFF         [  0]    ***   
       SPIN_ORBIT           ISPORB         OFF         [  0]    ***   
       SPIN_SCAL            ISCSMP         OFF         [  0]    ***   
       STEEPSCALE           ISTPSC              1000          x 10-3  
       SUBGROUP             ISUBGP         DEFAULT     [  0]    ***   
       SUBGRPAXIS           ISBXYZ         X           [  0]    ***   
       SYMMETRY             ISYM           ON          [  0]    ***   
       SYM_CHECK            ISYMCK         OVERRIDE    [  1]    ***   
       T3_EXTRAPOL          IT3EXT         OFF         [  0]    ***   
       T4_EXTRAPOL          IT4EXP         OFF         [  0]    ***   
       TAMP_SUM             IEVERY              5               ***   
       TESTSUITE            ITESTS         OFF         [  0]    ***   
       THERMOCH             ITHERM         OFF         [  0]    ***   
       TOL_CHOLESK          ITOLCH          10D-  4             ***   
       TRANGRAD             IRESRM         OFF         [  0]    ***   
       TRANS_INV            ITRAIN         USE         [  0]    ***   
       TREAT_PERT           ITREAT         SIMULTANEOUS[  0]    ***   
       TRIP_ALGORI          ITRALG         NORMAL      [  0]    ***   
       UIJ_THRESHO          IUIJTH              1               ***   
       UNITS                IUNITS         ANGSTROM    [  0]    ***   
       UNOS                 IUNOS          OFF         [  0]    ***   
       UPDATE_HESS          IHUPDT         ON          [  1]    ***   
       VIBPHASE             ISETPH         STANDARD    [  0]    ***   
       VIBRATION            IVIB           NO          [  0]    ***   
       VIB_ALGORIT          IGEALG         STANDARD    [  0]    ***   
       VNATORB              IVNORB         OFF         [  0]    ***   
       VTRAN                IVTRAN         FULL/PARTIAL[  0]    ***   
       XFIELD               IXEFLD              0             x 10-6  
       XFORM_TOL            IXFTOL          10D- 11             ***   
       YFIELD               IYEFLD              0             x 10-6  
       ZFIELD               IZEFLD              0             x 10-6  
       ZSCALE_EXP           IZEXPS         OFF         [  0]    ***   
    -------------------------------------------------------------------
  @GETXYZ-I,     7 atoms read from ZMAT.
   Rotational constants (in cm-1): 
          0.6833627805             0.8536890782             1.3607240935
   Rotational constants (in MHz): 
      20486.7036385696         25592.9582983935         40793.4877786380
********************************************************************************
   The full molecular point group is C2v .
   The largest Abelian subgroup of the full molecular point group is C2v .
   The computational point group is C2v .
********************************************************************************


 ----------------------------------------------------------------
         Coordinates used in calculation (QCOMP) 
 ----------------------------------------------------------------
 Z-matrix   Atomic            Coordinates (in bohr)
  Symbol    Number           X              Y              Z
 ----------------------------------------------------------------
     C         6         0.00000000    -1.25572327     0.19562244
     C         6         0.00000000     1.25572327     0.19562244
     H         1         1.81857454    -2.19034422     0.19562244
     H         1         1.81857454     2.19034422     0.19562244
     H         1        -1.81857454    -2.19034422     0.19562244
     H         1        -1.81857454     2.19034422     0.19562244
     H         1         0.00000000     0.00000000    -5.44097563
 ----------------------------------------------------------------
 
   Interatomic distance matrix (Angstroms) 
 
                 C             C             H             H             H    
                [ 1]        [ 2]        [ 3]        [ 4]        [ 5]
  C    [ 1]     0.00000
  C    [ 2]     1.32900     0.00000
  H    [ 3]     1.08200     2.06193     0.00000
  H    [ 4]     2.06193     1.08200     2.31816     0.00000
  H    [ 5]     1.08200     2.06193     1.92470     3.01303     0.00000
  H    [ 6]     2.06193     1.08200     3.01303     1.92470     2.31816
  H    [ 7]     3.05588     3.05588     3.34162     3.34162     3.34162
 
                 H             H    
                [ 6]        [ 7]
  H    [ 6]     0.00000
  H    [ 7]     3.34162     0.00000
 rotcon2
   Rotational constants (in cm-1): 
          0.6833627805             1.3607240935             0.8536890782
   Rotational constants (in MHz): 
      20486.7036385696         40793.4877786380         25592.9582983935
  ECPDATA file not present.   Using default ECPDATA. 
  There are   57 basis functions.
 @GEOPT-W, Archive file not created for single-point calculation.
 @CHECKOUT-I, Total execution time (CPU/WALL):        0.12/       0.14 seconds.
--executable xjoda finished with status     0 in        0.15 seconds (walltime).
 --invoking executable--
/home/tsommerfeld/zscale/bin/xvmol
 SERIAL VERSION OF MOLECULE STARTED
********************************************************************************
                    INPUT FROM MOL FILE
********************************************************************************
INTGRL        1    0    1    0    0    0    0    0    0                         
         *** CFOUR Program System (Release V0.1) ***                            
h_ethylene                                                                      
    3    2 X  Y       0.10E-08              0    0                              
   9999.00      3.00                                                            
          6.00000000    1    3    1    1    1                                   
C #1   0.000000000000000  -1.255723272983657   0.195622444313118                
    9    3                                                                      
   6665.00000000000       6.920000000000000E-004 -1.460000000000000E-004        
  0.000000000000000E+000                                                        
   1000.00000000000       5.329000000000000E-003 -1.154000000000000E-003        
  0.000000000000000E+000                                                        
   228.000000000000       2.707700000000000E-002 -5.725000000000000E-003        
  0.000000000000000E+000                                                        
   64.7100000000000       0.101718000000000      -2.331200000000000E-002        
  0.000000000000000E+000                                                        
   21.0600000000000       0.274740000000000      -6.395500000000000E-002        
  0.000000000000000E+000                                                        
   7.49500000000000       0.448564000000000      -0.149981000000000             
  0.000000000000000E+000                                                        
   2.79700000000000       0.285074000000000      -0.127262000000000             
  0.000000000000000E+000                                                        
  0.521500000000000       1.520400000000000E-002  0.544529000000000             
  0.000000000000000E+000                                                        
  0.159600000000000      -3.191000000000000E-003  0.580496000000000             
   1.00000000000000                                                             
    4    2                                                                      
   9.43900000000000       3.810900000000000E-002  0.000000000000000E+000        
   2.00200000000000       0.209480000000000       0.000000000000000E+000        
  0.545600000000000       0.508557000000000       0.000000000000000E+000        
  0.151700000000000       0.468842000000000        1.00000000000000             
    1    1                                                                      
  0.550000000000000        1.00000000000000                                     
          1.00000000    1    2    1    1                                        
H #2   1.818574537711477  -2.190344215575466   0.195622444313118                
    4    2                                                                      
   13.0100000000000       1.968500000000000E-002  0.000000000000000E+000        
   1.96200000000000       0.137977000000000       0.000000000000000E+000        
  0.444600000000000       0.478148000000000       0.000000000000000E+000        
  0.122000000000000       0.501240000000000        1.00000000000000             
    1    1                                                                      
  0.727000000000000        1.00000000000000                                     
          1.00000000    1    2    1    1                                        
H #3   0.000000000000000   0.000000000000000  -5.440975625954199                
    5    3                                                                      
   13.0100000000000       1.968500000000000E-002  0.000000000000000E+000        
  0.000000000000000E+000                                                        
   1.96200000000000       0.137977000000000       0.000000000000000E+000        
  0.000000000000000E+000                                                        
  0.444600000000000       0.478148000000000       0.000000000000000E+000        
  0.000000000000000E+000                                                        
  0.122000000000000       0.501240000000000        1.00000000000000             
  0.000000000000000E+000                                                        
  2.974000000000000E-002  0.000000000000000E+000  0.000000000000000E+000        
   1.00000000000000                                                             
    2    2                                                                      
  0.727000000000000        1.00000000000000       0.000000000000000E+000        
  0.141000000000000       0.000000000000000E+000   1.00000000000000             
FINISH                                                                          
 
********************************************************************************
 ONE- AND TWO-ELECTRON INTEGRALS OVER SYMMETRY-ADAPTED AOS ARE CALCULATED.

  SPHERICAL HARMONICS ARE USED.
  
  INTEGRALS LESS THAN  0.10E-13 ARE NEGLECTED.

  NUCLEAR REPULSION ENERGY :   36.3006545747 A.U.
  @MOLECU-I, ONE ELECTRON INTEGRALS (CPU/WALL):        0.01/       0.01 SECONDS.
  @TWOEL-I,      29572 INTEGRALS OF SYMMETRY TYPE  I I I I
  @TWOEL-I,     102291 INTEGRALS OF SYMMETRY TYPE  I J I J
  @TWOEL-I,      58089 INTEGRALS OF SYMMETRY TYPE  I I J J
  @TWOEL-I,      75480 INTEGRALS OF SYMMETRY TYPE  I J K L
  @TWOEL-I, TOTAL NUMBER OF 2-E INTEGRALS     265432.
  @MOLECU-I, TWO ELECTRON INTEGRALS (CPU/WALL):        0.22/       0.23 SECONDS.
 @CHECKOUT-I, Total execution time (CPU/WALL):        0.24/       0.25 seconds.

Running with 8 threads/proc

--executable xvmol finished with status     0 in        0.27 seconds (walltime).
 --invoking executable--
/home/tsommerfeld/zscale/bin/xvmol2ja
 @GETMEM-I,  Allocated   85830 MB of main memory.
 @CHECKOUT-I, Total execution time (CPU/WALL):        0.03/       0.01 seconds.
--executable xvmol2ja finished with status     0 in        0.03 seconds (walltime).
 --invoking executable--
/home/tsommerfeld/zscale/bin/xvscf
  There are   57 functions in the AO basis.

  There are 4 irreducible representations.

       Irrep        # of functions
         1                 20
         2                 11
         3                 17
         4                  9


  Parameters for SCF calculation: 
        SCF reference function:  RHF  
  Maximum number of iterations:  300
     Full symmetry point group: C2v 
     Computational point group: C2v 
        Initial density matrix: MOREAD                 
     SCF convergence tolerance: 10**(- 7)
  DIIS convergence acceleration:  ON
          Latest start for DIIS:   8
                     DIIS order:   6

  Memory information:     156410 words required.
  Fock matrices are constructed from AO integral file.
 @GETMEM-I,  Allocated       1 MB of main memory.
  Initialization and symmetry analysis required      0.002 seconds.

  @INITGES-I, Occupancies from core Hamiltonian:

          Alpha population by irrep:   3    1    4    1
           Beta population by irrep:   3    1    4    1


 total no. of electrons in initial guess :  0.000000000000000E+000
  --------------------------------------------------------------------
  Iteration         Total Energy            Largest Density Difference
  --------------------------------------------------------------------
       0            36.300654574688579              0.0000000000D+00
   current occupation vector 
     3  1  4  1
     3  1  4  1
  applying damping factor of   0.500000000000000     
       1           -39.073023017307349              0.8830874147D+01
   current occupation vector 
     3  1  4  1
     3  1  4  1
  applying damping factor of   0.500000000000000     
       2           -60.632595359850001              0.3202811238D+01
   current occupation vector 
     4  1  3  1
     4  1  3  1
  applying damping factor of   0.500000000000000     
       3           -69.764269662675318              0.2688910098D+01
   current occupation vector 
     5  1  2  1
     5  1  2  1
  applying damping factor of   0.500000000000000     
       4           -74.154183109442073              0.1429441984D+01
   current occupation vector 
     5  1  2  1
     5  1  2  1
  applying damping factor of   0.500000000000000     
       5           -76.325350803778562              0.7403498667D+00
   current occupation vector 
     5  1  2  1
     5  1  2  1
  applying damping factor of   0.500000000000000     
       6           -77.411533331020863              0.3796230183D+00
   current occupation vector 
     5  1  2  1
     5  1  2  1
  applying damping factor of   0.500000000000000     
       7           -77.956951417777674              0.2862026209D+00
   current occupation vector 
     5  1  2  1
     5  1  2  1
       8           -78.507141508556160              0.1544537819D+00
   current occupation vector 
     5  1  2  1
     5  1  2  1
       9           -78.507142787255361              0.1898654609D-02
   current occupation vector 
     5  1  2  1
     5  1  2  1
      10           -78.507142905481501              0.5965777470D-03
   current occupation vector 
     5  1  2  1
     5  1  2  1
      11           -78.507142908521061              0.7273148382D-04
   current occupation vector 
     5  1  2  1
     5  1  2  1
      12           -78.507142908768657              0.1716013260D-04
   current occupation vector 
     5  1  2  1
     5  1  2  1
      13           -78.507142908779400              0.2682763994D-05
   current occupation vector 
     5  1  2  1
     5  1  2  1
      14           -78.507142908779812              0.8508672908D-06
   current occupation vector 
     5  1  2  1
     5  1  2  1
      15           -78.507142908779912              0.1438825155D-06
   current occupation vector 
     5  1  2  1
     5  1  2  1

  SCF has converged.

 Density matrix saved to file den.dat
 total electron number:   18.0000000000000     
     E(SCF)=       -78.507142908779855              0.2369661301D-07


  Final occupancies:

     Alpha population by irrep:   5    1    2    1
      Beta population by irrep:   5    1    2    1


  Eigenvector printing suppressed.

 @PUTMOS-I, Writing converged MOs to NEWMOS. 
 @PUTMOS-I, Symmetry   1 Full Blocks  5 Partial Blocksize   0
 @PUTMOS-I, Symmetry   2 Full Blocks  2 Partial Blocksize   3
 @PUTMOS-I, Symmetry   3 Full Blocks  4 Partial Blocksize   1
 @PUTMOS-I, Symmetry   4 Full Blocks  2 Partial Blocksize   1
 @PUTFOCK-I, Writing converged Fock matrix to NEWFOCK. 
 @PUTFOCK-I, Symmetry   1 Full Blocks  5 Partial Blocksize   0
 @PUTFOCK-I, Symmetry   2 Full Blocks  2 Partial Blocksize   3
 @PUTFOCK-I, Symmetry   3 Full Blocks  4 Partial Blocksize   1
 @PUTFOCK-I, Symmetry   4 Full Blocks  2 Partial Blocksize   1


 
  ORBITAL EIGENVALUES (ALPHA)  (1H = 27.2113834 eV)

       MO #        E(hartree)               E(eV)           FULLSYM    COMPSYM
       ----   --------------------   --------------------   -------   ---------
    1     1         -11.0809790888        -301.5287704317      A1        A1 (1)
    2    32         -11.0792677002        -301.4822011822      B2        B2 (3)
    3     2          -0.8846585456         -24.0727828613      A1        A1 (1)
    4    33          -0.6291392697         -17.1197498804      B2        B2 (3)
    5    21          -0.5064481158         -13.7811538503      B1        B1 (2)
    6     3          -0.4132559982         -11.2452674104      A1        A1 (1)
    7    49          -0.3638731006          -9.9014904506      A2        A2 (4)
    8     4          -0.2221773603          -6.0457533340      A1        A1 (1)
    9     5          -0.0328891998          -0.8949606263      A1        A1 (1)
  +++++++++++++++++++++++++++++++++++++++++++++++++++++++++++++++++++++++++++++
   10     6           0.2844929125           7.7414457179      A1        A1 (1)
   11    34           0.3232972176           8.7973645408      B2        B2 (3)
   12     7           0.3514438518           9.5632733942      A1        A1 (1)
   13    22           0.3628646385           9.8740488000      B1        B1 (2)
   14    35           0.3795338161          10.3276401822      B2        B2 (3)
   15    50           0.4342839582          11.8174672923      A2        A2 (4)
   16    23           0.5631960892          15.3253447126      B1        B1 (2)
   17    36           0.5694342221          15.4950929376      B2        B2 (3)
   18     8           0.5882493441          16.0070784377      A1        A1 (1)
   19    37           0.5915646720          16.0972930967      B2        B2 (3)
   20     9           0.7098576921          19.3162098193      A1        A1 (1)
   21    24           0.8111883616          22.0735575182      B1        B1 (2)
   22    10           0.8360000564          22.7487180570      A1        A1 (1)
   23    38           0.9414741037          25.6188127981      B2        B2 (3)
   24    11           0.9771556972          26.5897583190      A1        A1 (1)
   25    39           0.9936215489          27.0378169206      B2        B2 (3)
   26    25           1.0122757108          27.5454224721      B1        B1 (2)
   27    51           1.0846106768          29.5137569663      A2        A2 (4)
   28    12           1.0893507945          29.6427421258      A1        A1 (1)
   29    40           1.1135784208          30.3020093539      B2        B2 (3)
   30    13           1.2668285736          34.4721580179      A1        A1 (1)
   31    26           1.2727370753          34.6329365237      B1        B1 (2)
   32    41           1.3999904788          38.0956776748      B2        B2 (3)
   33    52           1.4376236226          39.1197275804      A2        A2 (4)
   34    14           1.4649757066          39.8640156248      A1        A1 (1)
   35    53           1.4951073295          40.6839387671      A2        A2 (4)
   36    15           1.7473089576          47.5466939648      A1        A1 (1)
   37    54           1.7620247917          47.9471321665      A2        A2 (4)
   38    27           1.8432216374          50.1566106676      B1        B1 (2)
   39    42           1.9881597540          54.1005773260      B2        B2 (3)
   40    43           2.0259525294          55.1289710279      B2        B2 (3)
   41    16           2.0739139187          56.4340667805      A1        A1 (1)
   42    17           2.1151836183          57.5570723989      A1        A1 (1)
   43    28           2.1343332791          58.0781611612      B1        B1 (2)
   44    29           2.1600211821          58.7771645376      B1        B1 (2)
   45    30           2.1714445685          59.0880106859      B1        B1 (2)
   46    44           2.1728626164          59.1265977308      B2        B2 (3)
   47    18           2.2263262094          60.5814160571      A1        A1 (1)
   48    45           2.3223063210          63.1931676727      B2        B2 (3)
   49    46           2.4208035588          65.8734137750      B2        B2 (3)
   50    55           2.5668326153          69.8470664194      A2        A2 (4)
   51    19           2.5698575129          69.9293780672      A1        A1 (1)
   52    56           2.6368610712          71.7526375802      A2        A2 (4)
   53    47           2.6819785900          72.9803476824      B2        B2 (3)
   54    31           2.9379834899          79.9465951655      B1        B1 (2)
   55    20           2.9404795681          80.0145169079      A1        A1 (1)
   56    48           3.3849910479          92.1102892103      B2        B2 (3)
   57    57           3.4892788735          94.9481052157      A2        A2 (4)


  VSCF finished.

 @CHECKOUT-I, Total execution time (CPU/WALL):        0.26/       0.10 seconds.
--executable xvscf finished with status     0 in        0.12 seconds (walltime).
 --invoking executable--
/home/tsommerfeld/zscale/bin/xvtran
 @GETMEM-I,  Allocated   85830 MB of main memory.
  Full RHF integral transformation
  Transformation of IIII integrals :
  1 pass through the AO integral file was required.
       29572 AO integrals were read.
       37182 MO integrals were written to HF2.
  Transformation of IIJJ integrals :
  1 pass through the AO integral file was required.
       58089 AO integrals were read.
       75393 MO integrals were written to HF2.
  Transformation of IJIJ integrals :
  1 pass through the AO integral file was required.
      102291 AO integrals were read.
      132879 MO integrals were written to HF2.
  Transformation of IJKL integrals :
  1 pass through the AO integral file was required.
       75480 AO integrals were read.
      100980 MO integrals were written to HF2.
  Summary of active molecular orbitals: 
------------------------------------------------------------------------
 
  Index      Eigenvalue    Symmetry    Index      Eigenvalue    Symmetry
------------------------------------------------------------------------
     1       -11.0809791        1        30         1.8432216        2
     2        -0.8846585        1        31         2.1343333        2
     3        -0.4132560        1        32         2.1600212        2
     4        -0.2221774        1        33         2.1714446        2
     5        -0.0328892        1        34         2.9379835        2
     6        -0.5064481        2        35         0.3232972        3
     7       -11.0792677        3        36         0.3795338        3
     8        -0.6291393        3        37         0.5694342        3
     9        -0.3638731        4        38         0.5915647        3
    10         0.2844929        1        39         0.9414741        3
    11         0.3514439        1        40         0.9936215        3
    12         0.5882493        1        41         1.1135784        3
    13         0.7098577        1        42         1.3999905        3
    14         0.8360001        1        43         1.9881598        3
    15         0.9771557        1        44         2.0259525        3
    16         1.0893508        1        45         2.1728626        3
    17         1.2668286        1        46         2.3223063        3
    18         1.4649757        1        47         2.4208036        3
    19         1.7473090        1        48         2.6819786        3
    20         2.0739139        1        49         3.3849910        3
    21         2.1151836        1        50         0.4342840        4
    22         2.2263262        1        51         1.0846107        4
    23         2.5698575        1        52         1.4376236        4
    24         2.9404796        1        53         1.4951073        4
    25         0.3628646        2        54         1.7620248        4
    26         0.5631961        2        55         2.5668326        4
    27         0.8111884        2        56         2.6368611        4
    28         1.0122757        2        57         3.4892789        4
    29         1.2727371        2
------------------------------------------------------------------------
  -11.0809790887628      -0.884658545559597      -0.413255998236997     
 -0.222177360301598      -3.288919983007361E-002 -0.506448115766149     
  -11.0792677002313      -0.629139269722752      -0.363873100643572     
  0.284492912546555       0.351443851772463       0.588249344123665     
  0.709857692104574       0.836000056395995       0.977155697238366     
   1.08935079448351        1.26682857358429        1.46497570663043     
   1.74730895764817        2.07391391870743        2.11518361829827     
   2.22632620938677        2.56985751291235        2.94047956811851     
  0.362864638481149       0.563196089199669       0.811188361638475     
   1.01227571076447        1.27273707531008        1.84322163744211     
   2.13433327910727        2.16002118207554        2.17144456852060     
   2.93798348986029       0.323297217618729       0.379533816064471     
  0.569434222062933       0.591564672035653       0.941474103742354     
  0.993621548862136        1.11357842078274        1.39999047879263     
   1.98815975398170        2.02595252940730        2.17286261641501     
   2.32230632098909        2.42080355881524        2.68197858997479     
   3.38499104791072       0.434283958244427        1.08461067680511     
   1.43762362263283        1.49510732949586        1.76202479167133     
   2.56683261533136        2.63686107117139        3.48927887347575     
 @CHECKOUT-I, Total execution time (CPU/WALL):        0.55/       0.09 seconds.
--executable xvtran finished with status     0 in        0.11 seconds (walltime).
 --invoking executable--
/home/tsommerfeld/zscale/bin/xintprc
 @GETMEM-I,  Allocated   85830 MB of main memory.
  Processing integrals for CCSD calculation.
  @GMOIAA-I, Processing MO integrals for spin case AA.
  @GMOIAA-I, Generation of integral list completed.
                      TYPE                NUMBER
                      ----               --------
                      PPPP                174781
                      PPPH                128448
                      PPHH                 24003
                      PHPH                 13755
                      PHHH                  5115
                      HHHH                   332

                     TOTAL                346434

  @FORMT2-I, Second-order MP correlation energies:
            ------------------------------------------------
            E(SCF)                  =    -78.507142908780 a.u.
            E2(AA)                  =     -0.031859647469 a.u.
            E2(AB)                  =     -0.246273761816 a.u.
            E2(TOT)                 =     -0.309993056753 a.u.
            Total MP2 energy        =    -78.817135965533 a.u.
            ------------------------------------------------
   Largest T2 amplitudes for spin case AB:
       _       _                 _       _                 _       _
   i   j   a   b             i   j   a   b             i   j   a   b
-----------------------------------------------------------------------------
[  4   4  35  35]-0.08942 [  5   5  10  10]-0.08679 [  5   5  26  26]-0.04334
[  5   5  12  12]-0.03500 [  5   5  37  37]-0.03249 [  4   4  14  14]-0.02658
[  4   3  35  41] 0.02657 [  3   4  41  35] 0.02657 [  4   4  40  35] 0.02483
[  4   4  35  40] 0.02483 [  5   5  10  16] 0.02350 [  5   5  16  10] 0.02350
[  3   3  41  41]-0.02273 [  5   5  15  10] 0.02251 [  5   5  10  15] 0.02251
-----------------------------------------------------------------------------
   Norm of T2AB vector (    47574 symmetry allowed elements):  0.3179420506.
-----------------------------------------------------------------------------
 @CHECKOUT-I, Total execution time (CPU/WALL):        0.41/       0.10 seconds.
--executable xintprc finished with status     0 in        0.11 seconds (walltime).
  calling xvcc 
 --invoking executable--
/home/tsommerfeld/zscale/bin/xvcc
 @GETMEM-I,  Allocated   85830 MB of main memory.
   CCSD energy will be calculated.
   The total correlation energy is -0.309993056753 a.u.
   The total correlation energy is -0.335511092915 a.u.
  Convergence information after     1 iterations: 
  Largest element of residual vector : -0.33385047E-01.
  Largest element of DIIS residual   : -0.33385047E-01.
   The total correlation energy is -0.345544538077 a.u.
  Convergence information after     2 iterations: 
  Largest element of residual vector : -0.15917116E-01.
  Largest element of DIIS residual   : -0.10109164E-01.
   The total correlation energy is -0.349601589340 a.u.
  Convergence information after     3 iterations: 
  Largest element of residual vector : -0.59517634E-02.
  Largest element of DIIS residual   : -0.45465250E-02.
   The total correlation energy is -0.350714128569 a.u.
  Convergence information after     4 iterations: 
  Largest element of residual vector : -0.26694812E-02.
  Largest element of DIIS residual   : -0.13597660E-02.
   The total correlation energy is -0.350906307685 a.u.
  Convergence information after     5 iterations: 
  Largest element of residual vector : -0.72034116E-03.
  Largest element of DIIS residual   : -0.34769033E-03.
   The total correlation energy is -0.350900423247 a.u.
  Convergence information after     6 iterations: 
  Largest element of residual vector : -0.19455019E-03.
  Largest element of DIIS residual   :  0.18202856E-03.
   The total correlation energy is -0.350888516229 a.u.
  Convergence information after     7 iterations: 
  Largest element of residual vector : -0.84974169E-04.
  Largest element of DIIS residual   :  0.41166319E-04.
   The total correlation energy is -0.350882185677 a.u.
  Convergence information after     8 iterations: 
  Largest element of residual vector :  0.32058366E-04.
  Largest element of DIIS residual   : -0.20389651E-04.
   The total correlation energy is -0.350881821590 a.u.
  Convergence information after     9 iterations: 
  Largest element of residual vector : -0.95513514E-05.
  Largest element of DIIS residual   : -0.85470160E-05.
   The total correlation energy is -0.350882258255 a.u.
  Convergence information after    10 iterations: 
  Largest element of residual vector : -0.45378161E-05.
  Largest element of DIIS residual   : -0.41984983E-05.
   The total correlation energy is -0.350882752738 a.u.
  Convergence information after    11 iterations: 
  Largest element of residual vector : -0.27739520E-05.
  Largest element of DIIS residual   : -0.19509765E-05.
   The total correlation energy is -0.350883117753 a.u.
  Convergence information after    12 iterations: 
  Largest element of residual vector : -0.12086918E-05.
  Largest element of DIIS residual   : -0.68737468E-06.
   The total correlation energy is -0.350883240438 a.u.
  Convergence information after    13 iterations: 
  Largest element of residual vector : -0.38578474E-06.
  Largest element of DIIS residual   : -0.30476789E-06.
   The total correlation energy is -0.350883253837 a.u.
  Convergence information after    14 iterations: 
  Largest element of residual vector : -0.19089460E-06.
  Largest element of DIIS residual   :  0.13706261E-06.
   The total correlation energy is -0.350883250160 a.u.
  Convergence information after    15 iterations: 
  Largest element of residual vector : -0.77344059E-07.
  Largest element of DIIS residual   :  0.61541409E-07.
  Amplitude equations converged in    15iterations.
   The total correlation energy is -0.350883245704 a.u.
   The CC iterations have converged.

   Largest T1 amplitudes for spin case AA:
   i       a                 i       a                 i       a    
-----------------------------------------------------------------------------
[  5      10    ]-0.02778 [  4      14    ]-0.01850 [  4      18    ] 0.01619
[  4      15    ] 0.01047 [  5      16    ]-0.00899 [  5      17    ] 0.00838
[  6      27    ]-0.00641 [  5      14    ]-0.00605 [  4      10    ] 0.00604
[  4      12    ] 0.00581 [  5      18    ] 0.00564 [  5      15    ]-0.00508
[  3      13    ]-0.00460 [  9      56    ] 0.00449 [  9      50    ]-0.00447
-----------------------------------------------------------------------------
   Norm of T1AA vector (      123 symmetry allowed elements):  0.0464807806.
-----------------------------------------------------------------------------
   Largest T2 amplitudes for spin case AB:
       _       _                 _       _                 _       _
   i   j   a   b             i   j   a   b             i   j   a   b
-----------------------------------------------------------------------------
[  5   5  10  10]-0.15990 [  4   4  35  35]-0.13080 [  5   5  26  26]-0.06077
[  5   5  12  12]-0.04760 [  5   5  37  37]-0.04495 [  5   5  16  10] 0.04448
[  5   5  10  16] 0.04448 [  5   5  15  10] 0.04241 [  5   5  10  15] 0.04241
[  4   4  40  35] 0.03455 [  4   4  35  40] 0.03455 [  5   5  11  10] 0.03002
[  5   5  10  11] 0.03002 [  5   5  17  10]-0.02780 [  5   5  10  17]-0.02780
-----------------------------------------------------------------------------
   Norm of T2AB vector (    47574 symmetry allowed elements):  0.4129738505.
-----------------------------------------------------------------------------
       Summary of iterative solution of CC equations 
      -----------------------------------------------------------
                       Correlation           Total
       Iteration         Energy              Energy
      -----------------------------------------------------------
            0        -0.309993056753     -78.817135965533  DIIS 
            1        -0.335511092915     -78.842654001694  DIIS 
            2        -0.345544538077     -78.852687446857  DIIS 
            3        -0.349601589340     -78.856744498119  DIIS 
            4        -0.350714128569     -78.857857037349  DIIS 
            5        -0.350906307685     -78.858049216465  DIIS 
            6        -0.350900423247     -78.858043332027  DIIS 
            7        -0.350888516229     -78.858031425009  DIIS 
            8        -0.350882185677     -78.858025094457  DIIS 
            9        -0.350881821590     -78.858024730370  DIIS 
           10        -0.350882258255     -78.858025167035  DIIS 
           11        -0.350882752738     -78.858025661518  DIIS 
           12        -0.350883117753     -78.858026026533  DIIS 
           13        -0.350883240438     -78.858026149218  DIIS 
           14        -0.350883253837     -78.858026162616  DIIS 
           15        -0.350883245704     -78.858026154484  DIIS 
      -----------------------------------------------------------
      A miracle has come to pass. The CC iterations have converged.
      The reference energy is       -78.50714290877985 a.u.
      The correlation energy is      -0.35088324570394 a.u.
      The total energy is           -78.85802615448380 a.u.
 @CHECKOUT-I, Total execution time (CPU/WALL):        5.30/       0.67 seconds.
--executable xvcc finished with status     0 in        0.69 seconds (walltime).
 --invoking executable--
/home/tsommerfeld/zscale/bin/xlambda
 @GETMEM-I,  Allocated   85830 MB of main memory.
 Hbar is calculated for a CCSD wave function.
 Calculation of Hbar completed.
 @CHECKOUT-I, Total execution time (CPU/WALL):        0.91/       0.13 seconds.
--executable xlambda finished with status     0 in        0.14 seconds (walltime).
 --invoking executable--
/home/tsommerfeld/zscale/bin/xvee
 @GETMEM-I,  Allocated   85830 MB of main memory.
  cc2 and ccprog  F                     0
  EOMEE-CCSD excitation energies will be evaluated.
  @SETMET-I, VPROP property integrals are used.
  @SETMET-I, A total of   3 target states will be studied.
  Summary of active alpha molecular orbitals:
------------------------------------------------------------------------------
Orbital      Sym   Eigenvalue  <xx>     <yy>     <zz>     <xy>     <xz>     <yz>
        SCF
  #  position
------------------------------------------------------------------------------
   1      1    1     -11.0810   0.000    0.000    0.000    0.000    0.000    0.000
   2      3    1      -0.8847   0.000    0.000    0.000    0.000    0.000    0.000
   3      6    1      -0.4133   0.000    0.000    0.000    0.000    0.000    0.000
   4      8    1      -0.2222   0.000    0.000    0.000    0.000    0.000    0.000
   5      9    1      -0.0329   0.000    0.000    0.000    0.000    0.000    0.000
   6      5    2      -0.5064   0.000    0.000    0.000    0.000    0.000    0.000
   7      2    3     -11.0793   0.000    0.000    0.000    0.000    0.000    0.000
   8      4    3      -0.6291   0.000    0.000    0.000    0.000    0.000    0.000
   9      7    4      -0.3639   0.000    0.000    0.000    0.000    0.000    0.000
  10     10    1       0.2845   0.000    0.000    0.000    0.000    0.000    0.000
  11     12    1       0.3514   0.000    0.000    0.000    0.000    0.000    0.000
  12     18    1       0.5882   0.000    0.000    0.000    0.000    0.000    0.000
  13     20    1       0.7099   0.000    0.000    0.000    0.000    0.000    0.000
  14     22    1       0.8360   0.000    0.000    0.000    0.000    0.000    0.000
  15     24    1       0.9772   0.000    0.000    0.000    0.000    0.000    0.000
  16     28    1       1.0894   0.000    0.000    0.000    0.000    0.000    0.000
  17     30    1       1.2668   0.000    0.000    0.000    0.000    0.000    0.000
  18     34    1       1.4650   0.000    0.000    0.000    0.000    0.000    0.000
  19     36    1       1.7473   0.000    0.000    0.000    0.000    0.000    0.000
  20     41    1       2.0739   0.000    0.000    0.000    0.000    0.000    0.000
  21     42    1       2.1152   0.000    0.000    0.000    0.000    0.000    0.000
  22     47    1       2.2263   0.000    0.000    0.000    0.000    0.000    0.000
  23     51    1       2.5699   0.000    0.000    0.000    0.000    0.000    0.000
  24     55    1       2.9405   0.000    0.000    0.000    0.000    0.000    0.000
  25     13    2       0.3629   0.000    0.000    0.000    0.000    0.000    0.000
  26     16    2       0.5632   0.000    0.000    0.000    0.000    0.000    0.000
  27     21    2       0.8112   0.000    0.000    0.000    0.000    0.000    0.000
  28     26    2       1.0123   0.000    0.000    0.000    0.000    0.000    0.000
  29     31    2       1.2727   0.000    0.000    0.000    0.000    0.000    0.000
  30     38    2       1.8432   0.000    0.000    0.000    0.000    0.000    0.000
  31     43    2       2.1343   0.000    0.000    0.000    0.000    0.000    0.000
  32     44    2       2.1600   0.000    0.000    0.000    0.000    0.000    0.000
  33     45    2       2.1714   0.000    0.000    0.000    0.000    0.000    0.000
  34     54    2       2.9380   0.000    0.000    0.000    0.000    0.000    0.000
  35     11    3       0.3233   0.000    0.000    0.000    0.000    0.000    0.000
  36     14    3       0.3795   0.000    0.000    0.000    0.000    0.000    0.000
  37     17    3       0.5694   0.000    0.000    0.000    0.000    0.000    0.000
  38     19    3       0.5916   0.000    0.000    0.000    0.000    0.000    0.000
  39     23    3       0.9415   0.000    0.000    0.000    0.000    0.000    0.000
  40     25    3       0.9936   0.000    0.000    0.000    0.000    0.000    0.000
  41     29    3       1.1136   0.000    0.000    0.000    0.000    0.000    0.000
  42     32    3       1.4000   0.000    0.000    0.000    0.000    0.000    0.000
  43     39    3       1.9882   0.000    0.000    0.000    0.000    0.000    0.000
  44     40    3       2.0260   0.000    0.000    0.000    0.000    0.000    0.000
  45     46    3       2.1729   0.000    0.000    0.000    0.000    0.000    0.000
  46     48    3       2.3223   0.000    0.000    0.000    0.000    0.000    0.000
  47     49    3       2.4208   0.000    0.000    0.000    0.000    0.000    0.000
  48     53    3       2.6820   0.000    0.000    0.000    0.000    0.000    0.000
  49     56    3       3.3850   0.000    0.000    0.000    0.000    0.000    0.000
  50     15    4       0.4343   0.000    0.000    0.000    0.000    0.000    0.000
  51     27    4       1.0846   0.000    0.000    0.000    0.000    0.000    0.000
  52     33    4       1.4376   0.000    0.000    0.000    0.000    0.000    0.000
  53     35    4       1.4951   0.000    0.000    0.000    0.000    0.000    0.000
  54     37    4       1.7620   0.000    0.000    0.000    0.000    0.000    0.000
  55     50    4       2.5668   0.000    0.000    0.000    0.000    0.000    0.000
  56     52    4       2.6369   0.000    0.000    0.000    0.000    0.000    0.000
  57     57    4       3.4893   0.000    0.000    0.000    0.000    0.000    0.000
------------------------------------------------------------------------------
  @DRVTDA-I, Roots obtained by Davidson method.
  calling tda davidson                       6                     2
  after tda davidson                      6                     6
                     3                     3
  kroot is                      3
__________________________________________________________________________
    Tamm-Dancoff (CIS) Excitation Energies and Transition Moments

                Excitation         Transition Dipole         Oscillator
 Root  Symmetry  Energy         x           y           z     Strength
__________________________________________________________________________
   1       2    0.24995      0.0000      0.0000      0.0000  .00000000D+00
__________________________________________________________________________
 
__________________________________________________________________________
  TDA excitation ergy:             0.249951578583 a.u.    6.8015 eV
  Total TDA electronic energy:   -78.257191330197 a.u.
 
  Dominant contributions: 
  SCF eigenvalue ordering used in list below. 
--------------------------------------------------------------------------------
    I    j    A    b
--------------------------------------------------------------------------------
    9    0   13    0  -0.9802843006 AA  
    8    0   13    0  -0.1783652385 AA  
    9    0   16    0   0.0508087986 AA  
    8    0   26    0  -0.0333240579 AA  
    7    0   11    0   0.0250430529 AA  
    8    0   21    0   0.0249663870 AA  
    9    0   21    0   0.0208571781 AA  
    9    0   26    0  -0.0207181690 AA  
    6    0   13    0   0.0181247596 AA  
    7    0   14    0   0.0178159710 AA  
    8    0   16    0  -0.0140456246 AA  
    5    0   12    0   0.0137462084 AA  
    7    0   17    0  -0.0073796995 AA  
    4    0   15    0   0.0063755706 AA  
    5    0   10    0   0.0060554325 AA  
--------------------------------------------------------------------------------
   2       2    0.33770      0.0000      0.0000      0.0000  .00000000D+00
__________________________________________________________________________
 
__________________________________________________________________________
  TDA excitation ergy:             0.337698092840 a.u.    9.1892 eV
  Total TDA electronic energy:   -78.169444815940 a.u.
 
  Dominant contributions: 
  SCF eigenvalue ordering used in list below. 
--------------------------------------------------------------------------------
    I    j    A    b
--------------------------------------------------------------------------------
    8    0   13    0  -0.9555629601 AA  
    9    0   13    0   0.1807596703 AA  
    7    0   11    0   0.1507650948 AA  
    8    0   26    0  -0.1063105234 AA  
    8    0   21    0   0.1006144749 AA  
    9    0   16    0  -0.0827555560 AA  
    8    0   16    0  -0.0414059187 AA  
    9    0   26    0  -0.0172317587 AA  
    9    0   21    0   0.0170306034 AA  
    7    0   25    0  -0.0143243455 AA  
    7    0   23    0  -0.0107499668 AA  
    7    0   17    0  -0.0092986344 AA  
    8    0   43    0   0.0088269669 AA  
    7    0   19    0   0.0083498080 AA  
    6    0   13    0  -0.0080400859 AA  
--------------------------------------------------------------------------------
   3       2    0.36597      0.0000      0.0000      0.0000  .00000000D+00
__________________________________________________________________________
 
__________________________________________________________________________
  TDA excitation ergy:             0.365965793044 a.u.    9.9584 eV
  Total TDA electronic energy:   -78.141177115736 a.u.
 
  Dominant contributions: 
  SCF eigenvalue ordering used in list below. 
--------------------------------------------------------------------------------
    I    j    A    b
--------------------------------------------------------------------------------
    7    0   11    0  -0.9460798512 AA  
    9    0   16    0  -0.2647588996 AA  
    8    0   13    0  -0.1308431277 AA  
    7    0   25    0   0.0754439587 AA  
    7    0   17    0   0.0629232346 AA  
    7    0   23    0   0.0478641266 AA  
    5    0   34    0  -0.0392006568 AA  
    7    0   14    0  -0.0316156583 AA  
    7    0   19    0  -0.0310740411 AA  
    5    0   22    0   0.0214126679 AA  
    9    0   13    0  -0.0152890761 AA  
    8    0   26    0  -0.0151803758 AA  
    5    0   10    0  -0.0136615403 AA  
    5    0   18    0  -0.0129369530 AA  
    4    0   33    0   0.0125745584 AA  
--------------------------------------------------------------------------------
__________________________________________________________________________
  @DOEOMEE-I, Excitation energies computed by the EOMEE-CCSD/CCSD-LR method.
  @DOEOMEE-I, right-hand eigenvectors will be computed.
  Beginning symmetry block   2.   3 roots requested.
  @DOEOMEE-I, Matrix dimension for diagonalization:    45852
  Creating initial guess for root
________________________________________________________________________
            Subspace          Eigenvalue           
 Iteration  Dimension   (a.u.)         (eV)       Overlap      Residual
________________________________________________________________________
  @NEWGES-I, Using TDA initial guess.
  1   1  0.3061634177D+00  0.8331130141D+01  0.0000000000D+00  0.1627741609D+01
  2   2  0.2369980931D+00  0.6449045975D+01  0.9388257859D+00  0.2931816988D+00
  3   3  0.2195696102D+00  0.5974792847D+01  0.9768623851D+00  0.5403565581D-01
  4   4  0.2160849204D+00  0.5879969616D+01  0.9973346079D+00  0.3608890636D-01
  5   5  0.2154771213D+00  0.5863430561D+01  0.9989035915D+00  0.9495916553D-02
  6   6  0.2153992382D+00  0.5861311256D+01  0.9998933942D+00  0.3792865982D-02
  L-O-C-K-I-N-G O-N R-O-O-T 
  7   7  0.2154059873D+00  0.5861494907D+01  0.9999904670D+00  0.1040719082D-02
  8   8  0.2154016257D+00  0.5861376221D+01  0.9999993168D+00  0.7156088528D-03
  9   9  0.2153996397D+00  0.5861322180D+01  0.9999995488D+00  0.1975881280D-03
 10  10  0.2154002167D+00  0.5861337881D+01  0.9999999586D+00  0.1380222503D-03
 11  11  0.2154001827D+00  0.5861336956D+01  0.9999999872D+00  0.3492701074D-04
 12  12  0.2154001964D+00  0.5861337329D+01  0.9999999993D+00  0.1331832838D-04
 13  13  0.2154002498D+00  0.5861338782D+01  0.9999999999D+00  0.3786217271D-05
  Converged eigenvalue:   0.215400249816715       a.u.
   Total EOMEE-CCSD electronic energy      -78.642625904667085 a.u.
  Converged eigenvector 
  SCF eigenvalue ordering used in list below. 
--------------------------------------------------------------------------------
    I    j    A    b
--------------------------------------------------------------------------------
    9    0   13    0  -0.6526131841 AA  
    9    9   13   10  -0.2173289174 ABAB
    9    9   10   13  -0.2173289174 ABAB
    9    9   13   28   0.0562592856 ABAB
    9    9   28   13   0.0562592856 ABAB
    9    9   13   24   0.0505987815 ABAB
    9    9   24   13   0.0505987815 ABAB
    9    9   13   18   0.0421749626 ABAB
    9    9   18   13   0.0421749626 ABAB
    9    9   13   30  -0.0367243963 ABAB
    9    9   30   13  -0.0367243963 ABAB
    8    0   13    0  -0.0338756979 AA  
    9    8   15   11   0.0323659482 ABAB
    8    9   11   15   0.0323659482 ABAB
    9    0   26    0  -0.0307086812 AA  
--------------------------------------------------------------------------------
  Converged eigenvector, normalized to one 
  SCF eigenvalue ordering used in list below. 
--------------------------------------------------------------------------------
    I    j    A    b
--------------------------------------------------------------------------------
    9    0   13    0  -0.6526131841 AA  
    9    9   13   10  -0.2173289174 ABAB
    9    9   10   13  -0.2173289174 ABAB
    9    9   13   28   0.0562592856 ABAB
    9    9   28   13   0.0562592856 ABAB
    9    9   13   24   0.0505987815 ABAB
    9    9   24   13   0.0505987815 ABAB
    9    9   13   18   0.0421749626 ABAB
    9    9   18   13   0.0421749626 ABAB
    9    9   13   30  -0.0367243963 ABAB
    9    9   30   13  -0.0367243963 ABAB
    8    0   13    0  -0.0338756979 AA  
    9    8   15   11   0.0323659482 ABAB
    8    9   11   15   0.0323659482 ABAB
    9    0   26    0  -0.0307086812 AA  
--------------------------------------------------------------------------------

  Eigenvector is saved on CCRE_2_1  

  Adding new vector to expansion space.
  Guess for next eigenvalue   0.337698092839899     
 14  14  0.3418303247D+00  0.9301676023D+01  0.6793818740D+00  0.1481315994D+00
 15  15  0.3379699751D+00  0.9196630571D+01  0.9927986466D+00  0.5957896167D-01
 16  16  0.3374704746D+00  0.9183038471D+01  0.9992962413D+00  0.1523341047D-01
 17  17  0.3374017954D+00  0.9181169614D+01  0.9999228201D+00  0.3356961504D-02
  L-O-C-K-I-N-G O-N R-O-O-T 
 18  18  0.3373980826D+00  0.9181068583D+01  0.9999836585D+00  0.1214051619D-02
 19  19  0.3373957795D+00  0.9181005913D+01  0.9999976144D+00  0.5561872705D-03
 20  20  0.3373961348D+00  0.9181015581D+01  0.9999995225D+00  0.3174688811D-03
 21  21  0.3373963392D+00  0.9181021145D+01  0.9999999378D+00  0.8608464398D-04
 22  22  0.3373964367D+00  0.9181023796D+01  0.9999999948D+00  0.3696419552D-04
 23  23  0.3373963840D+00  0.9181022362D+01  0.9999999981D+00  0.1243247842D-04
 24  24  0.3373963815D+00  0.9181022295D+01  0.9999999998D+00  0.4433534856D-05
  Converged eigenvalue:   0.337396381499067       a.u.
   Total EOMEE-CCSD electronic energy      -78.520629772984734 a.u.
  Converged eigenvector 
  SCF eigenvalue ordering used in list below. 
--------------------------------------------------------------------------------
    I    j    A    b
--------------------------------------------------------------------------------
    8    0   13    0   0.5433970614 AA  
    7    0   11    0  -0.4002005229 AA  
    8    0   26    0   0.0606828520 AA  
    5    8   11   11  -0.0564884947 ABAB
    8    5   11   11  -0.0564884947 ABAB
    8    0   21    0  -0.0562029149 AA  
    9    9   13   10  -0.0485603905 ABAB
    9    9   10   13  -0.0485603905 ABAB
    8    8   15   11  -0.0430500372 ABAB
    8    8   11   15  -0.0430500372 ABAB
    7    0   25    0   0.0404538635 AA  
    5    8   13   13   0.0299393166 ABAB
    8    5   13   13   0.0299393166 ABAB
    8    0   16    0   0.0276238859 AA  
    7    0   17    0   0.0269211505 AA  
--------------------------------------------------------------------------------
  Converged eigenvector, normalized to one 
  SCF eigenvalue ordering used in list below. 
--------------------------------------------------------------------------------
    I    j    A    b
--------------------------------------------------------------------------------
    8    0   13    0   0.5433970614 AA  
    7    0   11    0  -0.4002005229 AA  
    8    0   26    0   0.0606828520 AA  
    5    8   11   11  -0.0564884947 ABAB
    8    5   11   11  -0.0564884947 ABAB
    8    0   21    0  -0.0562029149 AA  
    9    9   13   10  -0.0485603905 ABAB
    9    9   10   13  -0.0485603905 ABAB
    8    8   15   11  -0.0430500372 ABAB
    8    8   11   15  -0.0430500372 ABAB
    7    0   25    0   0.0404538635 AA  
    5    8   13   13   0.0299393166 ABAB
    8    5   13   13   0.0299393166 ABAB
    8    0   16    0   0.0276238859 AA  
    7    0   17    0   0.0269211505 AA  
--------------------------------------------------------------------------------

  Eigenvector is saved on CCRE_2_2  

  Adding new vector to expansion space.
  Guess for next eigenvalue   0.365965793043722     
 25  25  0.3521727405D+00  0.9583107465D+01  0.6205575233D+00  0.6475824543D-01
 26  26  0.3503708610D+00  0.9534075830D+01  0.9985736534D+00  0.1407915973D-01
 27  27  0.3501800256D+00  0.9528882935D+01  0.9998959446D+00  0.4426792937D-02
  L-O-C-K-I-N-G O-N R-O-O-T 
 28  28  0.3501596568D+00  0.9528328673D+01  0.9999905214D+00  0.1113955087D-02
 29  29  0.3501600676D+00  0.9528339850D+01  0.9999991289D+00  0.4337064167D-03
 30  30  0.3501598082D+00  0.9528332791D+01  0.9999998420D+00  0.1876779732D-03
 31  31  0.3501596966D+00  0.9528329755D+01  0.9999999670D+00  0.6123410234D-04
 32  32  0.3501598235D+00  0.9528333209D+01  0.9999999965D+00  0.2075155861D-04
 33  33  0.3501598291D+00  0.9528333361D+01  0.9999999997D+00  0.6960838621D-05
  Converged eigenvalue:   0.350159829099355       a.u.
   Total EOMEE-CCSD electronic energy      -78.507866325384441 a.u.
  Converged eigenvector 
  SCF eigenvalue ordering used in list below. 
--------------------------------------------------------------------------------
    I    j    A    b
--------------------------------------------------------------------------------
    7    0   11    0   0.5420074719 AA  
    8    0   13    0   0.4036261584 AA  
    5    8   11   11   0.0710346258 ABAB
    8    5   11   11   0.0710346258 ABAB
    9    0   16    0   0.0576531985 AA  
    7    0   25    0  -0.0502507403 AA  
    8    0   26    0   0.0441941539 AA  
    7    0   17    0  -0.0346877207 AA  
    7    0   23    0  -0.0321954750 AA  
    9    9   13   10  -0.0306103345 ABAB
    9    9   10   13  -0.0306103345 ABAB
    8    0   21    0  -0.0262002810 AA  
    7    4   23   11  -0.0252171746 ABAB
    4    7   11   23  -0.0252171746 ABAB
    7    5   21   11   0.0244100999 ABAB
--------------------------------------------------------------------------------
  Converged eigenvector, normalized to one 
  SCF eigenvalue ordering used in list below. 
--------------------------------------------------------------------------------
    I    j    A    b
--------------------------------------------------------------------------------
    7    0   11    0   0.5420074719 AA  
    8    0   13    0   0.4036261584 AA  
    5    8   11   11   0.0710346258 ABAB
    8    5   11   11   0.0710346258 ABAB
    9    0   16    0   0.0576531985 AA  
    7    0   25    0  -0.0502507403 AA  
    8    0   26    0   0.0441941539 AA  
    7    0   17    0  -0.0346877207 AA  
    7    0   23    0  -0.0321954750 AA  
    9    9   13   10  -0.0306103345 ABAB
    9    9   10   13  -0.0306103345 ABAB
    8    0   21    0  -0.0262002810 AA  
    7    4   23   11  -0.0252171746 ABAB
    4    7   11   23  -0.0252171746 ABAB
    7    5   21   11   0.0244100999 ABAB
--------------------------------------------------------------------------------

  Eigenvector is saved on CCRE_2_3  

  Solution of   3 roots required   33 iterations.
 @CHECKOUT-I, Total execution time (CPU/WALL):       18.95/       2.38 seconds.
--executable xvee finished with status     0 in        2.40 seconds (walltime).
  The final electronic energy is       -78.507866325384441 a.u. 
  This computation required                            4.06 seconds (walltime).
