/src/tsommerfeld/qchem/exe/qcprog.exe .input0.673077.2017.qcin.1 /src/jdavis/qchem.scratch/qchem2017/

                  Welcome to Q-Chem
     A Quantum Leap Into The Future Of Chemistry


 Q-Chem 5.4 (devel), Q-Chem, Inc., Pleasanton, CA (2021)

 E. Epifanovsky,  A. T. B. Gilbert,  Xintian Feng,  Joonho Lee,  Yuezhi Mao,  
 N. Mardirossian,  P. Pokhilko,  A. White,  M. Wormit,  M. P. Coons,  
 A. L. Dempwolff,  Zhengting Gan,  D. Hait,  P. R. Horn,  L. D. Jacobson,  
 I. Kaliman,  J. Kussmann,  A. W. Lange,  Ka Un Lao,  D. S. Levine,  Jie Liu,  
 S. C. McKenzie,  A. F. Morrison,  K. Nanda,  F. Plasser,  D. R. Rehn,  
 M. L. Vidal,  Zhi-Qiang You,  Ying Zhu,  B. Alam,  B. Albrecht,  
 A. Aldossary,  E. Alguire,  J. H. Andersen,  D. Barton,  K. Begam,  A. Behn,  
 Y. A. Bernard,  E. J. Berquist,  H. Burton,  A. Carreras,  K. Carter-Fenk,  
 R. Chakraborty,  A. D. Chien,  K. D. Closser,  V. Cofer-Shabica,  
 S. Dasgupta,  Jia Deng,  M. de Wergifosse,  M. Diedenhofen,  Hainam Do,  
 S. Ehlert,  Po-Tung Fang,  S. Fatehi,  Qingguo Feng,  T. Friedhoff,  
 J. Gayvert,  Qinghui Ge,  G. Gidofalvi,  M. Goldey,  J. Gomes,  
 C. Gonzalez-Espinoza,  S. Gulania,  A. Gunina,  M. W. D. Hanson-Heine,  
 P. H. P. Harbach,  A. W. Hauser,  M. F. Herbst,  M. Hernandez Vera,  
 M. Hodecker,  Z. C. Holden,  S. Houck,  Xunkun Huang,  Kerwin Hui,  
 B. C. Huynh,  M. Ivanov,  Hyunjun Ji,  Hanjie Jiang,  B. Kaduk,  S. Kaehler,  
 K. Khistyaev,  Jaehoon Kim,  P. Klunzinger,  Z. Koczor-Benda,  
 Joong Hoon Koh,  D. Kosenkov,  L. Koulias,  T. Kowalczyk,  C. M. Krauter,  
 K. Kue,  A. Kunitsa,  T. Kus,  A. Landau,  K. V. Lawler,  D. Lefrancois,  
 S. Lehtola,  Rain Li,  Yi-Pei Li,  Jiashu Liang,  M. Liebenthal,  
 Hung-Hsuan Lin,  You-Sheng Lin,  Fenglai Liu,  Kuan-Yu Liu,  
 M. Loipersberger,  A. Luenser,  A. Manjanath,  P. Manohar,  E. Mansoor,  
 S. F. Manzer,  Shan-Ping Mao,  A. V. Marenich,  T. Markovich,  S. Mason,  
 S. A. Maurer,  P. F. McLaughlin,  M. F. S. J. Menger,  J.-M. Mewes,  
 S. A. Mewes,  P. Morgante,  J. W. Mullinax,  K. J. Oosterbaan,  G. Paran,  
 Alexander C. Paul,  Suranjan K. Paul,  F. Pavosevic,  Zheng Pei,  S. Prager,  
 E. I. Proynov,  E. Ramos,  B. Rana,  A. E. Rask,  A. Rettig,  R. M. Richard,  
 F. Rob,  E. Rossomme,  T. Scheele,  M. Scheurer,  M. Schneider,  
 N. Sergueev,  S. M. Sharada,  W. Skomorowski,  D. W. Small,  C. J. Stein,  
 Yu-Chuan Su,  E. J. Sundstrom,  Zhen Tao,  J. Thirman,  T. Tsuchimochi,  
 N. M. Tubman,  S. P. Veccham,  O. Vydrov,  J. Wenzel,  J. Witte,  A. Yamada,  
 Kun Yao,  S. Yeganeh,  S. R. Yost,  A. Zech,  Igor Ying Zhang,  Xing Zhang,  
 Yu Zhang,  D. Zuev,  A. Aspuru-Guzik,  A. T. Bell,  N. A. Besley,  
 K. B. Bravaya,  B. R. Brooks,  D. Casanova,  Jeng-Da Chai,  S. Coriani,  
 C. J. Cramer,  A. E. DePrince, III,  R. A. DiStasio Jr.,  A. Dreuw,  
 B. D. Dunietz,  T. R. Furlani,  W. A. Goddard III,  S. Grimme,  
 S. Hammes-Schiffer,  T. Head-Gordon,  W. J. Hehre,  Chao-Ping Hsu,  
 T.-C. Jagau,  Yousung Jung,  A. Klamt,  Jing Kong,  D. S. Lambrecht,  
 WanZhen Liang,  N. J. Mayhall,  C. W. McCurdy,  J. B. Neaton,  
 C. Ochsenfeld,  J. A. Parkhill,  R. Peverati,  V. A. Rassolov,  Yihan Shao,  
 L. V. Slipchenko,  T. Stauch,  R. P. Steele,  J. E. Subotnik,  
 A. J. W. Thom,  A. Tkatchenko,  D. G. Truhlar,  T. Van Voorhis,  
 T. A. Wesolowski,  K. B. Whaley,  H. L. Woodcock III,  P. M. Zimmerman,  
 S. Faraji,  P. M. W. Gill,  M. Head-Gordon,  J. M. Herbert,  A. I. Krylov

 Additional authors for Version 5.4.1: 
 S. Kotaru,  Shaozhi Li,  Xiangyuan Li,  F. Matz,  A. Molle,  Haisheng Ren,  
 Yingli Su,  Hung-Yi Tsai,  C. Utku,  Fang Wang

 Contributors to earlier versions of Q-Chem not listed above: 
 R. D. Adamson,  B. Austin,  R. Baer,  J. Baker,  G. J. O. Beran,  
 K. Brandhorst,  S. T. Brown,  E. F. C. Byrd,  A. K. Chakraborty,  
 G. K. L. Chan,  Chun-Min Chang,  Yunqing Chen,  C.-L. Cheng,  
 Siu Hung Chien,  D. M. Chipman,  D. L. Crittenden,  H. Dachsel,  
 R. J. Doerksen,  A. D. Dutoi,  R. G. Edgar,  J. Fosso-Tande,  
 L. Fusti-Molnar,  D. Ghosh,  A. Ghysels,  A. Golubeva-Zadorozhnaya,  
 J. Gonthier,  M. S. Gordon,  S. R. Gwaltney,  G. Hawkins,  J. E. Herr,  
 A. Heyden,  S. Hirata,  E. G. Hohenstein,  G. Kedziora,  F. J. Keil,  
 C. Kelley,  Jihan Kim,  R. A. King,  R. Z. Khaliullin,  P. P. Korambath,  
 W. Kurlancheek,  A. Laurent,  A. M. Lee,  M. S. Lee,  S. V. Levchenko,  
 Ching Yeh Lin,  D. Liotard,  E. Livshits,  R. C. Lochan,  I. Lotan,  
 L. A. Martinez-Martinez,  P. E. Maslen,  N. Nair,  D. P. O'Neill,  
 D. Neuhauser,  E. Neuscamman,  C. M. Oana,  R. Olivares-Amaya,  R. Olson,  
 T. M. Perrine,  B. Peters,  P. A. Pieniazek,  A. Prociuk,  Y. M. Rhee,  
 J. Ritchie,  M. A. Rohrdanz,  E. Rosta,  N. J. Russ,  H. F. Schaefer III,  
 M. W. Schmidt,  N. E. Schultz,  S. Sharma,  N. Shenvi,  C. D. Sherrill,  
 A. C. Simmonett,  A. Sodt,  T. Stein,  D. Stuck,  K. S. Thanthiriwatte,  
 V. Vanovschi,  L. Vogt,  Tao Wang,  A. Warshel,  M. A. Watson,  
 C. F. Williams,  Q. Wu,  X. Xu,  Jun Yang,  W. Zhang,  Yan Zhao

 Please cite Q-Chem as follows:
 Y. Shao et al., Mol. Phys. 113, 184-215 (2015)
 DOI: 10.1080/00268976.2014.952696

 Q-Chem 5.4.1 for Intel X86 EM64T Linux

 Parts of Q-Chem use Armadillo 9.900.5 (Nocturnal Misbehaviour).
 http://arma.sourceforge.net/

 Q-Chem begins on Fri Feb 25 17:34:19 2022  

 Host: node01
0

     Scratch files written to /src/jdavis/qchem.scratch/qchem2017//
 Processing $rem in /src/tsommerfeld/qchem/config/preferences:
 Processing $rem in /home/jdavis/.qchemrc:

 Checking the input file for inconsistencies... 	...done.

--------------------------------------------------------------
User input:
--------------------------------------------------------------
$molecule
0 1
C        -0.6645000000    0.0000000000   -0.2082049804
C         0.6645000000    0.0000000000   -0.2082049804
H        -1.1590800000    0.0000000000    0.7541440196
H         1.1590800000    0.0000000000    0.7541440196
H        -1.1590800000    0.0000000000   -1.1705529804
H         1.1590800000    0.0000000000   -1.1705529804
$end

$rem
   METHOD adc(2)
   BASIS gen
   PURECART 11
   EA_STATES [0,0,10,0,0,0,0,0]
   scf_convergence 8
   ADC_DAVIDSON_MAXITER 120
   ADC_DAVIDSON_MAXSUBSPACE 200
   adc_nguess_singles 100
   THRESH 14
   S2THRESH 14
   adc_davidson_conv 5
   adc_davidson_thresh 14
   THREADS 10
   MEM_TOTAL 95000
   STATE_ANALYSIS TRUE
$end
$basis
C     1
S    10   1.00
      8.236000D+03           5.310000D-04
      1.235000D+03           4.108000D-03
      2.808000D+02           2.108700D-02
      7.927000D+01           8.185300D-02
      2.559000D+01           2.348170D-01
      8.997000D+00           4.344010D-01
      3.319000D+00           3.461290D-01
      9.059000D-01           3.937800D-02
      3.643000D-01          -8.983000D-03
      1.285000D-01           2.385000D-03
S    1   1.00
      9.059000D-01           1.000000D+00
S    10   1.00
      8.236000D+03          -1.130000D-04
      1.235000D+03          -8.780000D-04
      2.808000D+02          -4.540000D-03
      7.927000D+01          -1.813300D-02
      2.559000D+01          -5.576000D-02
      8.997000D+00          -1.268950D-01
      3.319000D+00          -1.703520D-01
      9.059000D-01           1.403820D-01
      3.643000D-01           5.986840D-01
      1.285000D-01           3.953890D-01
S    1   1.00
      1.285000D-01           1.000000D+00
P    1   1.00
      3.827000D-01           1.000000D+00
P    5   1.00
      1.871000D+01           1.403100D-02
      4.133000D+00           8.686600D-02
      1.200000D+00           2.902160D-01
      3.827000D-01           5.010080D-01
      1.209000D-01           3.434060D-01
P    1   1.00
      1.209000D-01           1.000000D+00
P   1   1.00
      0.02325      1.0000000
P   1   1.00
      0.011625      1.0000000
D    1   1.00
      1.097000D+00           1.000000D+00
D    1   1.00
      3.180000D-01           1.000000D+00
F    1   1.00
      7.610000D-01           1.0000000
****
C     2
S    10   1.00
      8.236000D+03           5.310000D-04
      1.235000D+03           4.108000D-03
      2.808000D+02           2.108700D-02
      7.927000D+01           8.185300D-02
      2.559000D+01           2.348170D-01
      8.997000D+00           4.344010D-01
      3.319000D+00           3.461290D-01
      9.059000D-01           3.937800D-02
      3.643000D-01          -8.983000D-03
      1.285000D-01           2.385000D-03
S    1   1.00
      9.059000D-01           1.000000D+00
S    10   1.00
      8.236000D+03          -1.130000D-04
      1.235000D+03          -8.780000D-04
      2.808000D+02          -4.540000D-03
      7.927000D+01          -1.813300D-02
      2.559000D+01          -5.576000D-02
      8.997000D+00          -1.268950D-01
      3.319000D+00          -1.703520D-01
      9.059000D-01           1.403820D-01
      3.643000D-01           5.986840D-01
      1.285000D-01           3.953890D-01
S    1   1.00
      1.285000D-01           1.000000D+00
P    1   1.00
      3.827000D-01           1.000000D+00
P    5   1.00
      1.871000D+01           1.403100D-02
      4.133000D+00           8.686600D-02
      1.200000D+00           2.902160D-01
      3.827000D-01           5.010080D-01
      1.209000D-01           3.434060D-01
P    1   1.00
      1.209000D-01           1.000000D+00
P   1   1.00
      0.02325      1.0000000
P   1   1.00
      0.011625      1.0000000
D    1   1.00
      1.097000D+00           1.000000D+00
D    1   1.00
      3.180000D-01           1.000000D+00
F    1   1.00
      7.610000D-01           1.0000000
****
H 3
cc-pVTZ
****
H 4
cc-pVTZ
****
H 5
cc-pVTZ
****
H 6
cc-pVTZ
****
$end
--------------------------------------------------------------
 Atom   2: ( -0.6645000000, -0.0000001250,  0.0000000000)
         ->( -0.6645000000,  0.0000001250, -0.0000000000)
 Atom   1: (  0.6645000000, -0.0000001250, -0.0000000000)
         ->(  0.6645000000,  0.0000000000,  0.0000000000)
 Atom   6: ( -1.1590800000, -0.9623481250, -0.0000000000)
         ->( -1.1590800000, -0.9623488750,  0.0000000000)
 Atom   5: (  1.1590800000, -0.9623481250, -0.0000000000)
         ->(  1.1590800000, -0.9623488750, -0.0000000000)
 ----------------------------------------------------------------
             Standard Nuclear Orientation (Angstroms)
    I     Atom           X                Y                Z
 ----------------------------------------------------------------
    1      C       0.6645000000     0.0000000000     0.0000000000
    2      C      -0.6645000000     0.0000001250    -0.0000000000
    3      H       1.1590800000     0.9623488750     0.0000000000
    4      H      -1.1590800000     0.9623488750     0.0000000000
    5      H       1.1590800000    -0.9623488750    -0.0000000000
    6      H      -1.1590800000    -0.9623488750     0.0000000000
 ----------------------------------------------------------------
 Molecular Point Group                 D2h   NOp =  8
 Largest Abelian Subgroup              D2h   NOp =  8
 Nuclear Repulsion Energy =          33.58921667 hartrees
 There are        8 alpha and        8 beta electrons
 Requested basis set is non-standard
 There are 48 shells and 128 basis functions
 Total memory of 95000 MB is distributed as follows: 
   MEM_STATIC is set to 192 MB
   QALLOC/CCMAN JOB total memory use is  94808 MB
 Warning: actual memory use might exceed 95000 MB

 Total QAlloc Memory Limit  95000 MB
 Mega-Array Size       188 MB
 MEM_STATIC part       192 MB

                       Distance Matrix (Angstroms)
             C (  1)   C (  2)   H (  3)   H (  4)   H (  5)
   C (  2)  1.329000
   H (  3)  1.082000  2.061931
   H (  4)  2.061931  1.082000  2.318160
   H (  5)  1.082000  2.061931  1.924698  3.013026
   H (  6)  2.061931  1.082000  3.013026  1.924698  2.318160
 
 A cutoff of  1.0D-14 yielded   1176 shell pairs
 There are      8432 function pairs (     10417 Cartesian)
 Smallest overlap matrix eigenvalue = 7.33E-04

 Scale SEOQF with 1.000000e-01/1.000000e-01/1.000000e-01

 Standard Electronic Orientation quadrupole field applied
 Nucleus-field energy     =     0.0000000006 hartrees
 ================ Generating on-the-fly SAD Guess ================
Attempting to make child job directory: /src/jdavis/qchem.scratch/qchem2017//Frg1/
Attempting to make child job directory: /src/jdavis/qchem.scratch/qchem2017//Frg2/
Creating input file /src/jdavis/qchem.scratch/qchem2017/Frg1.input
using default PutDataFrgm: nothing
calling putenv with: QCSCRATCH=/src/jdavis/qchem.scratch/qchem2017/ 
Spawning Job For Fragment 0
Done Job For Fragment 0
calling putenv with: QCSCRATCH=/src/jdavis/qchem.scratch 
calling putenv with: QCTHREADS=1 
Creating input file /src/jdavis/qchem.scratch/qchem2017/Frg2.input
using default PutDataFrgm: nothing
calling putenv with: QCSCRATCH=/src/jdavis/qchem.scratch/qchem2017/ 
Spawning Job For Fragment 1
Done Job For Fragment 1
calling putenv with: QCSCRATCH=/src/jdavis/qchem.scratch 
calling putenv with: QCTHREADS=1 
 Time for running child jobs:  CPU 1.75 s  wall 53.77 s
 ============= Method Specific SAD Guess Constructed =============
 Guess from on-the-fly superposition of atomic densities
 Warning: Energy on first SCF cycle will be non-variational
 A restricted Hartree-Fock SCF calculation will be
 performed using Pulay DIIS extrapolation
 SCF converges when DIIS error is below 1.0E-08
 using 10 threads for integral computing
 -------------------------------------------------------
 OpenMP Integral computing Module                
 Release: version 1.0, May 2013, Q-Chem Inc. Pittsburgh 
 -------------------------------------------------------
 ---------------------------------------
  Cycle       Energy         DIIS Error
 ---------------------------------------
    1     -78.4646910069      3.89E-02
    2     -78.0360720775      2.90E-03
    3     -78.0577344714      7.92E-04
    4     -78.0595184435      2.78E-04
    5     -78.0597272827      3.03E-05
    6     -78.0597319102      6.28E-06
    7     -78.0597321802      1.68E-06
    8     -78.0597322046      1.76E-07
    9     -78.0597322081      2.21E-08
   10     -78.0597322085      2.34E-09 Convergence criterion met
 ---------------------------------------
 SCF time:  CPU 15.46 s  wall 1.55 s
 SCF   energy in the final basis set = -78.05973221
 Total energy in the final basis set = -78.05973221
================================================================================
|                                                                              |
|                                 A D C  M A N                                 |
|                                                                              |
 ------------------------------------------------------------------------------ 
|                                                                              |
| Components:                                                                  |
|                                                                              |
| - libvmm - 1.3-trunk                                                         |
|   Authors:                                                                   |
|   Evgeny Epifanovsky, Ilya Kaliman                                           |
|                                                                              |
| - libtensor - 2.5-trunk                                                      |
|   Authors:                                                                   |
|   Evgeny Epifanovsky, Michael Wormit, Dmitry Zuev, Sam Manzer,               |
|   Ilya Kaliman                                                               |
|                                                                              |
| - libwfa - 1.1-trunk                                                         |
|   Authors:                                                                   |
|   Felix Plasser, Stefanie Mewes (Baeppler), Benjamin Thomitzni,              |
|   Michael Wormit, Feng Chen, Anna I. Krylov, Pavel Pokhilko                  |
|                                                                              |
| - libadc - 1.1-trunk                                                         |
|   Authors:                                                                   |
|   Michael Wormit, Adrian L. Dempwolff, Philipp H. P. Harbach,                |
|   Caroline Krauter, Dirk Rehn, Matthias Schneider, Jan Wenzel                |
|                                                                              |
| - adcman - 2.6-trunk                                                         |
|   Authors:                                                                   |
|   Michael Wormit, Adrian L. Dempwolff, Philipp H. P. Harbach,                |
|   Caroline Krauter, Daniel Lefrancois, Jan-Michael Mewes, Dirk Rehn,         |
|   Matthias Schneider, Jan Wenzel, Andreas Dreuw                              |
|                                                                              |
| Authors of earlier versions of ADCMAN:                                       |
| Andreas Dreuw, Jan Hendrik Starcke, Dirk Rehn, Michael Wormit                |
|                                                                              |
================================================================================

 
 Alpha MOs, Restricted
 -- Occupied --                  
-11.228 -11.226  -1.039  -0.781  -0.660  -0.568  -0.516  -0.377
  1 Ag    1 B3u   2 Ag    2 B3u   1 B2u   3 Ag    1 B1g   1 B1u                
 -- Virtual --                   
  0.023   0.023   0.026   0.034   0.035   0.043   0.092   0.093
  3 B3u   2 B2u   2 B1u   2 B1g   1 B2g   4 Ag    3 B2u   4 B3u                
  0.096   0.100   0.106   0.108   0.177   0.186   0.274   0.280
  2 B2g   5 Ag    3 B1u   3 B1g   6 Ag    3 B2g   4 B2u   5 B3u                
  0.325   0.370   0.391   0.490   0.509   0.539   0.595   0.620
  4 B1g   6 B3u   7 Ag    5 B2u   8 Ag    4 B1u   7 B3u   4 B2g                
  0.634   0.643   0.666   0.678   0.749   0.802   0.828   0.897
  9 Ag    6 B2u   1 B3g   8 B3u   5 B1g   9 B3u   1 Au    5 B1u                
  0.905   0.992   1.021   1.039   1.185   1.190   1.254   1.264
  6 B1g  10 Ag    7 B1g   7 B2u   6 B1u   5 B2g   2 B3g  11 Ag                 
  1.334   1.374   1.379   1.479   1.481   1.515   1.545   1.635
 10 B3u   6 B2g   8 B2u  11 B3u   9 B2u  12 Ag   12 B3u   2 Au                 
  1.645   1.831   1.853   1.968   2.297   2.422   2.558   2.581
  8 B1g  13 B3u  13 Ag    9 B1g  14 Ag    7 B1u  15 Ag    7 B2g                
  2.652   2.710   2.761   2.765   2.848   2.915   3.064   3.098
 10 B2u  11 B2u   8 B1u  14 B3u  10 B1g   3 B3g  11 B1g   9 B1u                
  3.105   3.122   3.124   3.152   3.178   3.238   3.275   3.338
  4 B3g  16 Ag   12 B2u   3 Au   17 Ag    8 B2g  15 B3u  13 B2u                
  3.405   3.426   3.426   3.456   3.472   3.550   3.583   3.641
  9 B2g   4 Au   16 B3u  17 B3u  12 B1g  10 B1u  18 Ag    5 B3g                
  3.744   3.814   3.884   3.921   3.972   3.977   4.013   4.016
 14 B2u  13 B1g  18 B3u  14 B1g  10 B2g   5 Au   15 B2u  19 Ag                 
  4.058   4.186   4.191   4.201   4.202   4.330   4.351   4.473
 11 B1u  19 B3u  15 B1g  20 Ag    6 B3g  12 B1u  11 B2g  16 B2u                
  4.521   4.606   4.649   4.757   4.813   4.930   4.975   5.044
 20 B3u   6 Au   21 Ag   21 B3u  12 B2g  13 B1u  22 Ag   16 B1g                
  5.143   5.216   5.301   5.306   5.426   5.453   5.538   5.563
 17 B2u   7 B3g  23 Ag   22 B3u   7 Au   17 B1g  13 B2g  24 Ag                 
  5.628   5.961   6.095   6.274   6.540   6.874  11.906  14.803
 18 B2u  23 B3u  18 B1g  19 B2u  24 B3u  19 B1g  25 Ag   25 B3u                
 
 Beta MOs, Restricted
 -- Occupied --                  
-11.228 -11.226  -1.039  -0.781  -0.660  -0.568  -0.516  -0.377
  1 Ag    1 B3u   2 Ag    2 B3u   1 B2u   3 Ag    1 B1g   1 B1u                
 -- Virtual --                   
  0.023   0.023   0.026   0.034   0.035   0.043   0.092   0.093
  3 B3u   2 B2u   2 B1u   2 B1g   1 B2g   4 Ag    3 B2u   4 B3u                
  0.096   0.100   0.106   0.108   0.177   0.186   0.274   0.280
  2 B2g   5 Ag    3 B1u   3 B1g   6 Ag    3 B2g   4 B2u   5 B3u                
  0.325   0.370   0.391   0.490   0.509   0.539   0.595   0.620
  4 B1g   6 B3u   7 Ag    5 B2u   8 Ag    4 B1u   7 B3u   4 B2g                
  0.634   0.643   0.666   0.678   0.749   0.802   0.828   0.897
  9 Ag    6 B2u   1 B3g   8 B3u   5 B1g   9 B3u   1 Au    5 B1u                
  0.905   0.992   1.021   1.039   1.185   1.190   1.254   1.264
  6 B1g  10 Ag    7 B1g   7 B2u   6 B1u   5 B2g   2 B3g  11 Ag                 
  1.334   1.374   1.379   1.479   1.481   1.515   1.545   1.635
 10 B3u   6 B2g   8 B2u  11 B3u   9 B2u  12 Ag   12 B3u   2 Au                 
  1.645   1.831   1.853   1.968   2.297   2.422   2.558   2.581
  8 B1g  13 B3u  13 Ag    9 B1g  14 Ag    7 B1u  15 Ag    7 B2g                
  2.652   2.710   2.761   2.765   2.848   2.915   3.064   3.098
 10 B2u  11 B2u   8 B1u  14 B3u  10 B1g   3 B3g  11 B1g   9 B1u                
  3.105   3.122   3.124   3.152   3.178   3.238   3.275   3.338
  4 B3g  16 Ag   12 B2u   3 Au   17 Ag    8 B2g  15 B3u  13 B2u                
  3.405   3.426   3.426   3.456   3.472   3.550   3.583   3.641
  9 B2g   4 Au   16 B3u  17 B3u  12 B1g  10 B1u  18 Ag    5 B3g                
  3.744   3.814   3.884   3.921   3.972   3.977   4.013   4.016
 14 B2u  13 B1g  18 B3u  14 B1g  10 B2g   5 Au   15 B2u  19 Ag                 
  4.058   4.186   4.191   4.201   4.202   4.330   4.351   4.473
 11 B1u  19 B3u  15 B1g  20 Ag    6 B3g  12 B1u  11 B2g  16 B2u                
  4.521   4.606   4.649   4.757   4.813   4.930   4.975   5.044
 20 B3u   6 Au   21 Ag   21 B3u  12 B2g  13 B1u  22 Ag   16 B1g                
  5.143   5.216   5.301   5.306   5.426   5.453   5.538   5.563
 17 B2u   7 B3g  23 Ag   22 B3u   7 Au   17 B1g  13 B2g  24 Ag                 
  5.628   5.961   6.095   6.274   6.540   6.874  11.906  14.803
 18 B2u  23 B3u  18 B1g  19 B2u  24 B3u  19 B1g  25 Ag   25 B3u                

--------------------------------------------------------------------------------
                                   HF Summary                                   
--------------------------------------------------------------------------------
  Energy:                                                  -78.0597322085 a.u.
  Dip. moment [a.u.]:                  [   0.000000,   -0.000000,   -0.000000]
  Total dipole [Debye]:                                               0.000001
  <r^2> [a.u.]:                        [  47.679063,   22.101498,   11.968695]
  Total <r^2> [a.u.]:                                                81.749257
--------------------------------------------------------------------------------

--------------------------------------------------------------------------------
                                 MP(2) Summary                                  
--------------------------------------------------------------------------------
  MP energy contribution:                                   -0.3668949885 a.u.
  Total energy:                                            -78.4266271970 a.u.
  Dip. moment [a.u.]:                  [   0.000000,   -0.000000,    0.000000]
  Total dipole [Debye]:                                               0.000000
  <r^2> [a.u.]:                        [  47.649382,   21.993465,   11.731477]
  Total <r^2> [a.u.]:                                                81.374323

  Density matrix analysis:
  ------------------------
  NOs (alpha)
    Occupation of frontier NOs:
       0.0226   0.9661
    Number of electrons:  8.000000
  NOs (beta)
    Occupation of frontier NOs:
       0.0226   0.9661
    Number of electrons:  8.000000
  NOs (spin-traced)
    Occupation of frontier NOs:
       0.0452   1.9322
    Number of electrons: 16.000000
    Number of unpaired electrons: n_u =  0.45261, n_u,nl =  0.05288
    NO participation ratio (PR_NO): 14.820655
  
  
  Mulliken Population Analysis
  Atom  Charge (e)    Spin (e)  h+ (alpha)   h+ (beta)  e- (alpha)   e- (beta)
  ----------------------------------------------------------------------------
   1 C   -0.314060    0.000000    0.043737    0.043737   -0.060199   -0.060199
   2 C   -0.314060    0.000000    0.043737    0.043737   -0.060199   -0.060199
   3 H    0.157025    0.000000    0.013006    0.013006   -0.004774   -0.004774
   4 H    0.157053   -0.000000    0.013006    0.013006   -0.004775   -0.004775
   5 H    0.157035    0.000000    0.013006    0.013006   -0.004775   -0.004775
   6 H    0.157008   -0.000000    0.013006    0.013006   -0.004774   -0.004774
  ----------------------------------------------------------------------------
  Sum:    0.000000    0.000000    0.139497    0.139497   -0.139497   -0.139497
  
  Multipole moment analysis of the density matrix
    Molecular charge:                      0.000000
    Number of electrons:                   16.000000
      Center of electronic charge [Ang]: [ -0.000000,   0.000000,  -0.000000]
    Total nuclear charge:                  16.000000
      Center of nuclear charge [Ang]:    [  0.000000,   0.000000,   0.000000]
    Dipole moment [D]:                     0.000000
      Cartesian components [D]:          [  0.000000,  -0.000000,   0.000000]
    RMS size of the density [Ang]:         1.193397
      Cartesian components [Ang]:        [  0.913208,   0.620423,   0.453124]
  
  Exciton analysis of the difference density matrix
  Total:
    <r_h> [Ang]:                  [ -0.000000,   0.000000,   0.000000]
    <r_e> [Ang]:                  [ -0.000000,  -0.000000,  -0.000000]
    |<r_e - r_h>| [Ang]:            0.000000
    Hole size [Ang]:                1.446767
      Cartesian components [Ang]: [  0.971444,   0.750124,   0.765993]
    Electron size [Ang]:            1.310271
      Cartesian components [Ang]: [  0.955987,   0.673982,   0.590464]
  
  Alpha spin:
    <r_h> [Ang]:                  [ -0.000000,   0.000000,   0.000000]
    <r_e> [Ang]:                  [ -0.000000,  -0.000000,  -0.000000]
    |<r_e - r_h>| [Ang]:            0.000000
    Hole size [Ang]:                1.446767
      Cartesian components [Ang]: [  0.971444,   0.750124,   0.765993]
    Electron size [Ang]:            1.310271
      Cartesian components [Ang]: [  0.955987,   0.673982,   0.590464]
  
  Beta spin:
    <r_h> [Ang]:                  [ -0.000000,   0.000000,   0.000000]
    <r_e> [Ang]:                  [ -0.000000,  -0.000000,  -0.000000]
    |<r_e - r_h>| [Ang]:            0.000000
    Hole size [Ang]:                1.446767
      Cartesian components [Ang]: [  0.971444,   0.750124,   0.765993]
    Electron size [Ang]:            1.310271
      Cartesian components [Ang]: [  0.955987,   0.673982,   0.590464]
--------------------------------------------------------------------------------
Less particle guess vectors found than requested: 13 (found), 100 (requested).
Adjusting number of hole-2particle guess vectors to 87.
  Starting Davidson for electron-attached states of irrep B2g ... 
--------------------------------------------------------------------------------
   It NVec Conv  Avg. Norm  Max. Norm  Conv. states           Remark
--------------------------------------------------------------------------------
       100    0  4.632e-02  4.333e-01  0.0353 n n n n n n n n Guess.
    1  110    6  4.790e-04  3.662e-03  0.0348 n n n y y y y y 
    2  120   10  4.270e-07  3.122e-06  0.0348 y y y y y y y y Converged.
--------------------------------------------------------------------------------
  Davidson Summary: 
 ------------------------------------------------------------
  State  0: electron attachment energy =   0.0348 a.u.   (converged)
  State  1: electron attachment energy =   0.0717 a.u.   (converged)
  State  2: electron attachment energy =   0.1392 a.u.   (converged)
  State  3: electron attachment energy =   0.4350 a.u.   (converged)
  State  4: electron attachment energy =   0.4350 a.u.   (converged)
  State  5: electron attachment energy =   0.4387 a.u.   (converged)
  State  6: electron attachment energy =   0.4387 a.u.   (converged)
  State  7: electron attachment energy =   0.4441 a.u.   (converged)
  State  8: electron attachment energy =   0.4441 a.u.   (converged)
  State  9: electron attachment energy =   0.4992 a.u.   (converged)
 ------------------------------------------------------------


--------------------------------------------------------------------------------
                        Electron-Attached State Summary
--------------------------------------------------------------------------------

  Electron-attached state 1 (B2g)                                  [converged]
  ----------------------------------------------------------------------------
  Term symbol:  1 (2) B2g                                   R^2 =  3.70958e-07

  Total energy:                                            -78.3918480488 a.u.
  Electron attachment energy:                                      0.946389 eV

  Pole strength:                                                      0.998813

  Dip. moment [a.u.]:                  [   0.000000,   -0.000000,   -0.000000]
  Total dipole [Debye]:                                               0.000001
  <r^2> [a.u.]:                        [ 125.521555,   47.744722,   88.884025]
  Total <r^2> [a.u.]:                                               262.150302

  V1^2 = 0.9990, V2^2 = 0.0010

  Important amplitudes:
       occ i       vir a        vir b           v   
    -------------------------------------------------
                               1 (B2g) B      0.9976
                               2 (B2g) B      0.0502
    -------------------------------------------------

  Density matrix analysis:
  ------------------------
  NOs (alpha)
    Occupation of frontier NOs:
       0.0226   0.9660
    Number of electrons:  8.000000
  NOs (beta)
    Occupation of frontier NOs:
       0.0229   0.9660
    Number of electrons:  9.000000
  NOs (spin-traced)
    Occupation of frontier NOs:
       0.0452   0.9992
    Number of electrons: 17.000000
    Number of unpaired electrons: n_u =  1.45388, n_u,nl =  1.05317
    NO participation ratio (PR_NO):  2.087915
  
  
  Mulliken Population Analysis
  Atom  Charge (e)    Spin (e)  h+ (alpha)   h+ (beta)  e- (alpha)   e- (beta)
  ----------------------------------------------------------------------------
   1 C   -0.810017    0.501109    0.002038    0.002143    0.000539   -0.500676
   2 C   -0.810017    0.501109    0.002038    0.002143    0.000539   -0.500676
   3 H    0.155003   -0.000554   -0.000087    0.000153   -0.001201   -0.000886
   4 H    0.155031   -0.000555   -0.000087    0.000153   -0.001201   -0.000886
   5 H    0.155014   -0.000555   -0.000087    0.000153   -0.001201   -0.000886
   6 H    0.154986   -0.000554   -0.000087    0.000153   -0.001201   -0.000886
  ----------------------------------------------------------------------------
  Sum:   -1.000000    1.000000    0.003726    0.004897   -0.003726   -1.004897
  
  Multipole moment analysis of the density matrix
    Molecular charge:                      -1.000000
    Number of electrons:                   17.000000
      Center of electronic charge [Ang]: [ -0.000000,   0.000000,   0.000000]
    Total nuclear charge:                  16.000000
      Center of nuclear charge [Ang]:    [  0.000000,   0.000000,   0.000000]
    Dipole moment [D]:                     0.000001
      Cartesian components [D]:          [  0.000000,  -0.000001,  -0.000000]
    RMS size of the density [Ang]:         2.078030
      Cartesian components [Ang]:        [  1.437924,   0.886828,   1.210009]
  
  Exciton analysis of the difference density matrix
  Total:
    <r_h> [Ang]:                  [  0.000000,  -0.000000,   0.000000]
    <r_e> [Ang]:                  [  0.000000,   0.000000,   0.000000]
    |<r_e - r_h>| [Ang]:            0.000000
    Hole size [Ang]:                2.229020
      Cartesian components [Ang]: [  1.359019,   1.124642,   1.362636]
    Electron size [Ang]:            7.087463
      Cartesian components [Ang]: [  4.651429,   2.675865,   4.629912]
  
  Alpha spin:
    <r_h> [Ang]:                  [  0.000000,  -0.000000,   0.000000]
    <r_e> [Ang]:                  [  0.000000,  -0.000000,   0.000000]
    |<r_e - r_h>| [Ang]:            0.000000
    Hole size [Ang]:                1.591774
      Cartesian components [Ang]: [  1.129001,   0.891343,   0.681621]
    Electron size [Ang]:            2.137378
      Cartesian components [Ang]: [  1.297214,   1.452864,   0.880231]
  
  Beta spin:
    <r_h> [Ang]:                  [  0.000000,  -0.000000,   0.000000]
    <r_e> [Ang]:                  [  0.000000,   0.000000,   0.000000]
    |<r_e - r_h>| [Ang]:            0.000000
    Hole size [Ang]:                2.611668
      Cartesian components [Ang]: [  1.510731,   1.273823,   1.707594]
    Electron size [Ang]:            7.099396
      Cartesian components [Ang]: [  4.659374,   2.679360,   4.638177]
  ----------------------------------------------------------------------------


  Electron-attached state 2 (B2g)                                  [converged]
  ----------------------------------------------------------------------------
  Term symbol:  2 (2) B2g                                   R^2 =  3.12209e-06

  Total energy:                                            -78.3549581713 a.u.
  Electron attachment energy:                                      1.950213 eV

  Pole strength:                                                      0.953408

  Dip. moment [a.u.]:                  [   0.000000,   -0.000000,   -0.000000]
  Total dipole [Debye]:                                               0.000001
  <r^2> [a.u.]:                        [  69.668214,   29.807006,   32.251608]
  Total <r^2> [a.u.]:                                               131.726829

  V1^2 = 0.9643, V2^2 = 0.0357

  Important amplitudes:
       occ i       vir a        vir b           v   
    -------------------------------------------------
                               2 (B2g) B     -0.9034
                               3 (B2g) B      0.3751
    -------------------------------------------------

  Density matrix analysis:
  ------------------------
  NOs (alpha)
    Occupation of frontier NOs:
       0.0190   0.9640
    Number of electrons:  8.000000
  NOs (beta)
    Occupation of frontier NOs:
       0.0224   0.9724
    Number of electrons:  9.000000
  NOs (spin-traced)
    Occupation of frontier NOs:
       0.0320   0.9873
    Number of electrons: 17.000000
    Number of unpaired electrons: n_u =  1.46965, n_u,nl =  1.05321
    NO participation ratio (PR_NO):  2.184750
  
  
  Mulliken Population Analysis
  Atom  Charge (e)    Spin (e)  h+ (alpha)   h+ (beta)  e- (alpha)   e- (beta)
  ----------------------------------------------------------------------------
   1 C   -0.726354    0.527353    0.076940    0.057552   -0.019410   -0.527375
   2 C   -0.726354    0.527353    0.076940    0.057552   -0.019410   -0.527375
   3 H    0.113173   -0.013676    0.001189    0.008503   -0.029953   -0.023591
   4 H    0.113197   -0.013678    0.001187    0.008502   -0.029954   -0.023591
   5 H    0.113181   -0.013678    0.001188    0.008503   -0.029954   -0.023591
   6 H    0.113157   -0.013675    0.001189    0.008503   -0.029952   -0.023591
  ----------------------------------------------------------------------------
  Sum:   -1.000000    1.000000    0.158634    0.149114   -0.158634   -1.149114
  
  Multipole moment analysis of the density matrix
    Molecular charge:                      -1.000000
    Number of electrons:                   17.000000
      Center of electronic charge [Ang]: [ -0.000000,   0.000000,   0.000000]
    Total nuclear charge:                  16.000000
      Center of nuclear charge [Ang]:    [  0.000000,   0.000000,   0.000000]
    Dipole moment [D]:                     0.000001
      Cartesian components [D]:          [  0.000000,  -0.000001,  -0.000000]
    RMS size of the density [Ang]:         1.473037
      Cartesian components [Ang]:        [  1.071258,   0.700706,   0.728874]
  
  Exciton analysis of the difference density matrix
  Total:
    <r_h> [Ang]:                  [  0.000000,  -0.000000,  -0.000000]
    <r_e> [Ang]:                  [  0.000000,  -0.000000,   0.000000]
    |<r_e - r_h>| [Ang]:            0.000000
    Hole size [Ang]:                1.499005
      Cartesian components [Ang]: [  1.038779,   0.757391,   0.770918]
    Electron size [Ang]:            3.363151
      Cartesian components [Ang]: [  2.229088,   1.344660,   2.129282]
  
  Alpha spin:
    <r_h> [Ang]:                  [  0.000000,  -0.000000,   0.000000]
    <r_e> [Ang]:                  [  0.000000,  -0.000000,   0.000000]
    |<r_e - r_h>| [Ang]:            0.000000
    Hole size [Ang]:                1.441479
      Cartesian components [Ang]: [  1.015501,   0.727305,   0.719478]
    Electron size [Ang]:            2.192223
      Cartesian components [Ang]: [  1.420193,   1.268719,   1.085931]
  
  Beta spin:
    <r_h> [Ang]:                  [  0.000000,  -0.000000,  -0.000000]
    <r_e> [Ang]:                  [  0.000000,  -0.000000,   0.000000]
    |<r_e - r_h>| [Ang]:            0.000000
    Hole size [Ang]:                1.557874
      Cartesian components [Ang]: [  1.062984,   0.788138,   0.822115]
    Electron size [Ang]:            3.494107
      Cartesian components [Ang]: [  2.318693,   1.354809,   2.235384]
  ----------------------------------------------------------------------------


  Electron-attached state 3 (B2g)                                  [converged]
  ----------------------------------------------------------------------------
  Term symbol:  3 (2) B2g                                   R^2 =  2.86573e-06

  Total energy:                                            -78.2874765613 a.u.
  Electron attachment energy:                                      3.786481 eV

  Pole strength:                                                      0.961646

  Dip. moment [a.u.]:                  [   0.000000,   -0.000000,    0.000000]
  Total dipole [Debye]:                                               0.000001
  <r^2> [a.u.]:                        [  77.316021,   32.256960,   40.358211]
  Total <r^2> [a.u.]:                                               149.931192

  V1^2 = 0.9690, V2^2 = 0.0310

  Important amplitudes:
       occ i       vir a        vir b           v   
    -------------------------------------------------
                               3 (B2g) B     -0.8914
                               2 (B2g) B     -0.4096
    -------------------------------------------------

  Density matrix analysis:
  ------------------------
  NOs (alpha)
    Occupation of frontier NOs:
       0.0222   0.9608
    Number of electrons:  8.000000
  NOs (beta)
    Occupation of frontier NOs:
       0.0281   0.9708
    Number of electrons:  9.000000
  NOs (spin-traced)
    Occupation of frontier NOs:
       0.0425   0.9841
    Number of electrons: 17.000000
    Number of unpaired electrons: n_u =  1.48115, n_u,nl =  1.05847
    NO participation ratio (PR_NO):  2.229986
  
  
  Mulliken Population Analysis
  Atom  Charge (e)    Spin (e)  h+ (alpha)   h+ (beta)  e- (alpha)   e- (beta)
  ----------------------------------------------------------------------------
   1 C   -0.729547    0.505206    0.063815    0.045439   -0.018956   -0.505785
   2 C   -0.729547    0.505206    0.063815    0.045439   -0.018956   -0.505785
   3 H    0.114769   -0.002602    0.000802    0.001412   -0.023231   -0.021239
   4 H    0.114794   -0.002604    0.000801    0.001412   -0.023232   -0.021240
   5 H    0.114778   -0.002604    0.000801    0.001412   -0.023231   -0.021239
   6 H    0.114753   -0.002602    0.000802    0.001413   -0.023230   -0.021239
  ----------------------------------------------------------------------------
  Sum:   -1.000000    1.000000    0.130836    0.096527   -0.130836   -1.096527
  
  Multipole moment analysis of the density matrix
    Molecular charge:                      -1.000000
    Number of electrons:                   17.000000
      Center of electronic charge [Ang]: [ -0.000000,   0.000000,  -0.000000]
    Total nuclear charge:                  16.000000
      Center of nuclear charge [Ang]:    [  0.000000,   0.000000,   0.000000]
    Dipole moment [D]:                     0.000001
      Cartesian components [D]:          [  0.000000,  -0.000001,   0.000000]
    RMS size of the density [Ang]:         1.571530
      Cartesian components [Ang]:        [  1.128526,   0.728934,   0.815347]
  
  Exciton analysis of the difference density matrix
  Total:
    <r_h> [Ang]:                  [  0.000000,  -0.000000,   0.000000]
    <r_e> [Ang]:                  [  0.000000,  -0.000000,  -0.000000]
    |<r_e - r_h>| [Ang]:            0.000000
    Hole size [Ang]:                1.318865
      Cartesian components [Ang]: [  0.965819,   0.678210,   0.588751]
    Electron size [Ang]:            3.995471
      Cartesian components [Ang]: [  2.634650,   1.557842,   2.568177]
  
  Alpha spin:
    <r_h> [Ang]:                  [  0.000000,  -0.000000,   0.000000]
    <r_e> [Ang]:                  [  0.000000,  -0.000000,   0.000000]
    |<r_e - r_h>| [Ang]:            0.000000
    Hole size [Ang]:                1.344987
      Cartesian components [Ang]: [  0.966374,   0.672095,   0.650691]
    Electron size [Ang]:            2.148890
      Cartesian components [Ang]: [  1.410129,   1.234495,   1.051326]
  
  Beta spin:
    <r_h> [Ang]:                  [  0.000000,  -0.000001,  -0.000000]
    <r_e> [Ang]:                  [  0.000000,   0.000000,  -0.000000]
    |<r_e - r_h>| [Ang]:            0.000001
    Hole size [Ang]:                1.282609
      Cartesian components [Ang]: [  0.965067,   0.686412,   0.492514]
    Electron size [Ang]:            4.161439
      Cartesian components [Ang]: [  2.744513,   1.592044,   2.692698]
  ----------------------------------------------------------------------------


  Electron-attached state 4 (B2g)                                  [converged]
  ----------------------------------------------------------------------------
  Term symbol:  4 (2) B2g                                   R^2 =  3.21686e-10

  Total energy:                                            -77.9916123685 a.u.
  Electron attachment energy:                                     11.837356 eV

  Pole strength:                                                      0.000000

  Dip. moment [a.u.]:                  [   0.000000,   -0.000000,    0.000000]
  Total dipole [Debye]:                                               0.000000
  <r^2> [a.u.]:                        [ 158.654149,  191.552243,   65.814005]
  Total <r^2> [a.u.]:                                               416.020396

  V1^2 = 0.0000, V2^2 = 1.0000

  Important amplitudes:
       occ i       vir a        vir b           v   
    -------------------------------------------------
     1 (B1u) A    2 (B1g) A    2 (B2u) B      0.5391
     1 (B1u) B    2 (B1g) B    2 (B2u) B      0.4485
    -------------------------------------------------

  Density matrix analysis:
  ------------------------
  NOs (alpha)
    Occupation of frontier NOs:
       0.3695   0.5813
    Number of electrons:  8.000000
  NOs (beta)
    Occupation of frontier NOs:
       0.4188   0.5642
    Number of electrons:  9.000000
  NOs (spin-traced)
    Occupation of frontier NOs:
       0.9336   1.0000
    Number of electrons: 17.000000
    Number of unpaired electrons: n_u =  3.31673, n_u,nl =  3.02685
    NO participation ratio (PR_NO):  3.819139
  
  
  Mulliken Population Analysis
  Atom  Charge (e)    Spin (e)  h+ (alpha)   h+ (beta)  e- (alpha)   e- (beta)
  ----------------------------------------------------------------------------
   1 C   -0.803629    0.486610    0.291913    0.196526   -0.293392   -0.684616
   2 C   -0.803629    0.486610    0.291913    0.196526   -0.293392   -0.684616
   3 H    0.151811    0.006693    0.003455    0.002326   -0.002715   -0.008279
   4 H    0.151835    0.006697    0.003455    0.002326   -0.002715   -0.008283
   5 H    0.151818    0.006697    0.003455    0.002326   -0.002715   -0.008283
   6 H    0.151794    0.006693    0.003455    0.002326   -0.002715   -0.008279
  ----------------------------------------------------------------------------
  Sum:   -1.000000    1.000000    0.597644    0.402356   -0.597644   -1.402356
  
  Multipole moment analysis of the density matrix
    Molecular charge:                      -1.000000
    Number of electrons:                   17.000000
      Center of electronic charge [Ang]: [ -0.000000,   0.000000,  -0.000000]
    Total nuclear charge:                  16.000000
      Center of nuclear charge [Ang]:    [  0.000000,   0.000000,   0.000000]
    Dipole moment [D]:                     0.000000
      Cartesian components [D]:          [  0.000000,  -0.000000,   0.000000]
    RMS size of the density [Ang]:         2.617785
      Cartesian components [Ang]:        [  1.616599,   1.776316,   1.041204]
  
  Exciton analysis of the difference density matrix
  Total:
    <r_h> [Ang]:                  [ -0.000000,   0.000000,   0.000000]
    <r_e> [Ang]:                  [ -0.000000,  -0.000000,  -0.000000]
    |<r_e - r_h>| [Ang]:            0.000000
    Hole size [Ang]:                1.247265
      Cartesian components [Ang]: [  0.742551,   0.513901,   0.860345]
    Electron size [Ang]:            6.901671
      Cartesian components [Ang]: [  3.977178,   4.885969,   2.818230]
  
  Alpha spin:
    <r_h> [Ang]:                  [ -0.000000,   0.000000,   0.000000]
    <r_e> [Ang]:                  [ -0.000000,  -0.000000,   0.000000]
    |<r_e - r_h>| [Ang]:            0.000000
    Hole size [Ang]:                1.247265
      Cartesian components [Ang]: [  0.742551,   0.513901,   0.860345]
    Electron size [Ang]:            7.308954
      Cartesian components [Ang]: [  4.769810,   4.797013,   2.767380]
  
  Beta spin:
    <r_h> [Ang]:                  [ -0.000000,   0.000000,   0.000000]
    <r_e> [Ang]:                  [ -0.000000,   0.000000,  -0.000000]
    |<r_e - r_h>| [Ang]:            0.000000
    Hole size [Ang]:                1.247265
      Cartesian components [Ang]: [  0.742551,   0.513901,   0.860345]
    Electron size [Ang]:            6.720601
      Cartesian components [Ang]: [  3.586535,   4.923391,   2.839624]
  ----------------------------------------------------------------------------


  Electron-attached state 5 (B2g)                                  [converged]
  ----------------------------------------------------------------------------
  Term symbol:  5 (2) B2g                                   R^2 =  5.14941e-10

  Total energy:                                            -77.9916123397 a.u.
  Electron attachment energy:                                     11.837356 eV

  Pole strength:                                                      0.000000

  Dip. moment [a.u.]:                  [   0.000000,   -0.000000,    0.000000]
  Total dipole [Debye]:                                               0.000000
  <r^2> [a.u.]:                        [ 158.654205,  191.552341,   65.814042]
  Total <r^2> [a.u.]:                                               416.020589

  V1^2 = 0.0000, V2^2 = 1.0000

  Important amplitudes:
       occ i       vir a        vir b           v   
    -------------------------------------------------
     1 (B1u) A    2 (B2u) A    2 (B1g) B      0.5702
     1 (B1u) B    2 (B1g) B    2 (B2u) B     -0.3635
    -------------------------------------------------

  Density matrix analysis:
  ------------------------
  NOs (alpha)
    Occupation of frontier NOs:
       0.2324   0.6503
    Number of electrons:  8.000000
  NOs (beta)
    Occupation of frontier NOs:
       0.3498   0.7020
    Number of electrons:  9.000000
  NOs (spin-traced)
    Occupation of frontier NOs:
       0.9336   1.0000
    Number of electrons: 17.000000
    Number of unpaired electrons: n_u =  3.31673, n_u,nl =  3.02685
    NO participation ratio (PR_NO):  3.819139
  
  
  Mulliken Population Analysis
  Atom  Charge (e)    Spin (e)  h+ (alpha)   h+ (beta)  e- (alpha)   e- (beta)
  ----------------------------------------------------------------------------
   1 C   -0.803629    0.491022    0.359339    0.129100   -0.358613   -0.619395
   2 C   -0.803629    0.491022    0.359339    0.129100   -0.358613   -0.619395
   3 H    0.151811    0.004490    0.004253    0.001528   -0.004615   -0.006380
   4 H    0.151835    0.004489    0.004253    0.001528   -0.004617   -0.006381
   5 H    0.151818    0.004489    0.004253    0.001528   -0.004617   -0.006381
   6 H    0.151794    0.004490    0.004253    0.001528   -0.004615   -0.006380
  ----------------------------------------------------------------------------
  Sum:   -1.000000    1.000000    0.735689    0.264311   -0.735689   -1.264311
  
  Multipole moment analysis of the density matrix
    Molecular charge:                      -1.000000
    Number of electrons:                   17.000000
      Center of electronic charge [Ang]: [ -0.000000,   0.000000,  -0.000000]
    Total nuclear charge:                  16.000000
      Center of nuclear charge [Ang]:    [  0.000000,   0.000000,   0.000000]
    Dipole moment [D]:                     0.000000
      Cartesian components [D]:          [  0.000000,  -0.000000,   0.000000]
    RMS size of the density [Ang]:         2.617786
      Cartesian components [Ang]:        [  1.616600,   1.776317,   1.041204]
  
  Exciton analysis of the difference density matrix
  Total:
    <r_h> [Ang]:                  [ -0.000000,   0.000000,   0.000000]
    <r_e> [Ang]:                  [ -0.000000,  -0.000000,  -0.000000]
    |<r_e - r_h>| [Ang]:            0.000000
    Hole size [Ang]:                1.247265
      Cartesian components [Ang]: [  0.742551,   0.513901,   0.860345]
    Electron size [Ang]:            6.901673
      Cartesian components [Ang]: [  3.977179,   4.885971,   2.818231]
  
  Alpha spin:
    <r_h> [Ang]:                  [ -0.000000,   0.000000,   0.000000]
    <r_e> [Ang]:                  [ -0.000000,   0.000000,   0.000000]
    |<r_e - r_h>| [Ang]:            0.000000
    Hole size [Ang]:                1.247265
      Cartesian components [Ang]: [  0.742551,   0.513901,   0.860345]
    Electron size [Ang]:            6.552202
      Cartesian components [Ang]: [  3.191511,   4.957061,   2.858874]
  
  Beta spin:
    <r_h> [Ang]:                  [ -0.000000,   0.000000,   0.000000]
    <r_e> [Ang]:                  [ -0.000000,  -0.000000,  -0.000000]
    |<r_e - r_h>| [Ang]:            0.000000
    Hole size [Ang]:                1.247265
      Cartesian components [Ang]: [  0.742551,   0.513901,   0.860345]
    Electron size [Ang]:            7.097110
      Cartesian components [Ang]: [  4.369814,   4.844124,   2.794309]
  ----------------------------------------------------------------------------


  Electron-attached state 6 (B2g)                                  [converged]
  ----------------------------------------------------------------------------
  Term symbol:  6 (2) B2g                                   R^2 =  1.07575e-08

  Total energy:                                            -77.9879617244 a.u.
  Electron attachment energy:                                     11.936695 eV

  Pole strength:                                                      0.000003

  Dip. moment [a.u.]:                  [   0.000000,   -0.000000,    0.000000]
  Total dipole [Debye]:                                               0.000001
  <r^2> [a.u.]:                        [ 155.723084,   77.001473,  176.943401]
  Total <r^2> [a.u.]:                                               409.667958

  V1^2 = 0.0000, V2^2 = 1.0000

  Important amplitudes:
       occ i       vir a        vir b           v   
    -------------------------------------------------
     1 (B1u) A    2 (B1u) A    1 (B2g) B     -0.5771
     1 (B1u) B    1 (B2g) B    2 (B1u) B      0.3046
    -------------------------------------------------

  Density matrix analysis:
  ------------------------
  NOs (alpha)
    Occupation of frontier NOs:
       0.1549   0.6661
    Number of electrons:  8.000000
  NOs (beta)
    Occupation of frontier NOs:
       0.3341   0.7807
    Number of electrons:  9.000000
  NOs (spin-traced)
    Occupation of frontier NOs:
       0.9332   1.0001
    Number of electrons: 17.000000
    Number of unpaired electrons: n_u =  3.31591, n_u,nl =  3.02673
    NO participation ratio (PR_NO):  3.819233
  
  
  Mulliken Population Analysis
  Atom  Charge (e)    Spin (e)  h+ (alpha)   h+ (beta)  e- (alpha)   e- (beta)
  ----------------------------------------------------------------------------
   1 C   -0.825629    0.492738    0.397816    0.090622   -0.407231   -0.592776
   2 C   -0.825629    0.492738    0.397816    0.090622   -0.407231   -0.592776
   3 H    0.162809    0.003631    0.004708    0.001073   -0.000001    0.000004
   4 H    0.162837    0.003631    0.004708    0.001073   -0.000001    0.000004
   5 H    0.162820    0.003631    0.004708    0.001073   -0.000001    0.000004
   6 H    0.162792    0.003631    0.004708    0.001073   -0.000001    0.000004
  ----------------------------------------------------------------------------
  Sum:   -1.000000    1.000000    0.814464    0.185536   -0.814464   -1.185536
  
  Multipole moment analysis of the density matrix
    Molecular charge:                      -1.000000
    Number of electrons:                   17.000000
      Center of electronic charge [Ang]: [ -0.000000,   0.000000,  -0.000000]
    Total nuclear charge:                  16.000000
      Center of nuclear charge [Ang]:    [  0.000000,   0.000000,   0.000000]
    Dipole moment [D]:                     0.000001
      Cartesian components [D]:          [  0.000000,  -0.000001,   0.000000]
    RMS size of the density [Ang]:         2.597722
      Cartesian components [Ang]:        [  1.601597,   1.126228,   1.707237]
  
  Exciton analysis of the difference density matrix
  Total:
    <r_h> [Ang]:                  [ -0.000000,   0.000000,   0.000000]
    <r_e> [Ang]:                  [ -0.000000,   0.000000,  -0.000000]
    |<r_e - r_h>| [Ang]:            0.000000
    Hole size [Ang]:                1.247249
      Cartesian components [Ang]: [  0.742546,   0.513894,   0.860329]
    Electron size [Ang]:            6.836930
      Cartesian components [Ang]: [  3.925245,   2.798919,   4.847897]
  
  Alpha spin:
    <r_h> [Ang]:                  [ -0.000000,   0.000000,   0.000000]
    <r_e> [Ang]:                  [ -0.000000,   0.000000,  -0.000000]
    |<r_e - r_h>| [Ang]:            0.000000
    Hole size [Ang]:                1.247249
      Cartesian components [Ang]: [  0.742546,   0.513894,   0.860331]
    Electron size [Ang]:            6.593553
      Cartesian components [Ang]: [  3.315992,   2.849508,   4.935528]
  
  Beta spin:
    <r_h> [Ang]:                  [ -0.000000,   0.000000,   0.000000]
    <r_e> [Ang]:                  [ -0.000000,   0.000000,   0.000000]
    |<r_e - r_h>| [Ang]:            0.000000
    Hole size [Ang]:                1.247246
      Cartesian components [Ang]: [  0.742548,   0.513895,   0.860323]
    Electron size [Ang]:            6.999227
      Cartesian components [Ang]: [  4.293998,   2.763628,   4.786765]
  ----------------------------------------------------------------------------


  Electron-attached state 7 (B2g)                                  [converged]
  ----------------------------------------------------------------------------
  Term symbol:  7 (2) B2g                                   R^2 =  2.67253e-09

  Total energy:                                            -77.9879605865 a.u.
  Electron attachment energy:                                     11.936726 eV

  Pole strength:                                                      0.000008

  Dip. moment [a.u.]:                  [   0.000000,   -0.000000,    0.000000]
  Total dipole [Debye]:                                               0.000001
  <r^2> [a.u.]:                        [ 155.726598,   77.002171,  176.945198]
  Total <r^2> [a.u.]:                                               409.673967

  V1^2 = 0.0000, V2^2 = 1.0000

  Important amplitudes:
       occ i       vir a        vir b           v   
    -------------------------------------------------
     1 (B1u) A    1 (B2g) A    2 (B1u) B      0.5090
     1 (B1u) B    1 (B2g) B    2 (B1u) B      0.4905
    -------------------------------------------------

  Density matrix analysis:
  ------------------------
  NOs (alpha)
    Occupation of frontier NOs:
       0.4480   0.5182
    Number of electrons:  8.000000
  NOs (beta)
    Occupation of frontier NOs:
       0.4819   0.4856
    Number of electrons:  9.000000
  NOs (spin-traced)
    Occupation of frontier NOs:
       0.9330   1.0001
    Number of electrons: 17.000000
    Number of unpaired electrons: n_u =  3.31558, n_u,nl =  3.02668
    NO participation ratio (PR_NO):  3.819332
  
  
  Mulliken Population Analysis
  Atom  Charge (e)    Spin (e)  h+ (alpha)   h+ (beta)  e- (alpha)   e- (beta)
  ----------------------------------------------------------------------------
   1 C   -0.825620    0.499558    0.253438    0.235008   -0.259439   -0.740567
   2 C   -0.825620    0.499558    0.253438    0.235008   -0.259439   -0.740567
   3 H    0.162805    0.000221    0.002999    0.002781    0.000001   -0.000002
   4 H    0.162832    0.000221    0.002999    0.002781    0.000001   -0.000002
   5 H    0.162815    0.000221    0.002999    0.002781    0.000001   -0.000002
   6 H    0.162788    0.000221    0.002999    0.002781    0.000001   -0.000002
  ----------------------------------------------------------------------------
  Sum:   -1.000000    1.000000    0.518875    0.481141   -0.518875   -1.481141
  
  Multipole moment analysis of the density matrix
    Molecular charge:                      -1.000000
    Number of electrons:                   17.000000
      Center of electronic charge [Ang]: [ -0.000000,   0.000000,  -0.000000]
    Total nuclear charge:                  16.000000
      Center of nuclear charge [Ang]:    [  0.000000,   0.000000,   0.000000]
    Dipole moment [D]:                     0.000001
      Cartesian components [D]:          [  0.000000,  -0.000001,   0.000000]
    RMS size of the density [Ang]:         2.597741
      Cartesian components [Ang]:        [  1.601615,   1.126233,   1.707246]
  
  Exciton analysis of the difference density matrix
  Total:
    <r_h> [Ang]:                  [ -0.000000,   0.000000,   0.000000]
    <r_e> [Ang]:                  [ -0.000000,   0.000000,  -0.000000]
    |<r_e - r_h>| [Ang]:            0.000000
    Hole size [Ang]:                1.247336
      Cartesian components [Ang]: [  0.742581,   0.513937,   0.860400]
    Electron size [Ang]:            6.836974
      Cartesian components [Ang]: [  3.925296,   2.798930,   4.847912]
  
  Alpha spin:
    <r_h> [Ang]:                  [ -0.000000,   0.000000,   0.000000]
    <r_e> [Ang]:                  [  0.000000,   0.000000,   0.000000]
    |<r_e - r_h>| [Ang]:            0.000000
    Hole size [Ang]:                1.247234
      Cartesian components [Ang]: [  0.742543,   0.513889,   0.860315]
    Electron size [Ang]:            7.202500
      Cartesian components [Ang]: [  4.725814,   2.717658,   4.707124]
  
  Beta spin:
    <r_h> [Ang]:                  [ -0.000000,   0.000000,   0.000000]
    <r_e> [Ang]:                  [ -0.000000,   0.000000,  -0.000000]
    |<r_e - r_h>| [Ang]:            0.000000
    Hole size [Ang]:                1.247445
      Cartesian components [Ang]: [  0.742622,   0.513989,   0.860493]
    Electron size [Ang]:            6.704210
      Cartesian components [Ang]: [  3.603034,   2.826849,   4.896275]
  ----------------------------------------------------------------------------


  Electron-attached state 8 (B2g)                                  [converged]
  ----------------------------------------------------------------------------
  Term symbol:  8 (2) B2g                                   R^2 =  2.49357e-09

  Total energy:                                            -77.9825146714 a.u.
  Electron attachment energy:                                     12.084916 eV

  Pole strength:                                                      0.000000

  Dip. moment [a.u.]:                  [  -0.000000,   -0.000000,   -0.000000]
  Total dipole [Debye]:                                               0.000001
  <r^2> [a.u.]:                        [ 218.698403,   81.934882,   70.335984]
  Total <r^2> [a.u.]:                                               370.969269

  V1^2 = 0.0000, V2^2 = 1.0000

  Important amplitudes:
       occ i       vir a        vir b           v   
    -------------------------------------------------
     1 (B1u) A    3 (B3u) A    4 (Ag ) B      0.5728
     1 (B1u) B    4 (Ag ) B    3 (B3u) B     -0.3492
    -------------------------------------------------

  Density matrix analysis:
  ------------------------
  NOs (alpha)
    Occupation of frontier NOs:
       0.2122   0.6562
    Number of electrons:  8.000000
  NOs (beta)
    Occupation of frontier NOs:
       0.3439   0.7225
    Number of electrons:  9.000000
  NOs (spin-traced)
    Occupation of frontier NOs:
       0.9336   1.0001
    Number of electrons: 17.000000
    Number of unpaired electrons: n_u =  3.31588, n_u,nl =  3.02681
    NO participation ratio (PR_NO):  3.818316
  
  
  Mulliken Population Analysis
  Atom  Charge (e)    Spin (e)  h+ (alpha)   h+ (beta)  e- (alpha)   e- (beta)
  ----------------------------------------------------------------------------
   1 C   -0.836631    0.514670    0.369349    0.119089   -0.373300   -0.637710
   2 C   -0.836631    0.514670    0.369349    0.119089   -0.373300   -0.637710
   3 H    0.168309   -0.007335    0.004371    0.001409   -0.002397    0.007900
   4 H    0.168340   -0.007334    0.004371    0.001409   -0.002395    0.007901
   5 H    0.168323   -0.007334    0.004371    0.001409   -0.002395    0.007901
   6 H    0.168292   -0.007335    0.004371    0.001409   -0.002397    0.007900
  ----------------------------------------------------------------------------
  Sum:   -1.000000    1.000000    0.756183    0.243817   -0.756183   -1.243817
  
  Multipole moment analysis of the density matrix
    Molecular charge:                      -1.000000
    Number of electrons:                   17.000000
      Center of electronic charge [Ang]: [  0.000000,   0.000000,   0.000000]
    Total nuclear charge:                  16.000000
      Center of nuclear charge [Ang]:    [  0.000000,   0.000000,   0.000000]
    Dipole moment [D]:                     0.000001
      Cartesian components [D]:          [ -0.000000,  -0.000001,  -0.000000]
    RMS size of the density [Ang]:         2.471984
      Cartesian components [Ang]:        [  1.898014,   1.161746,   1.076380]
  
  Exciton analysis of the difference density matrix
  Total:
    <r_h> [Ang]:                  [ -0.000000,   0.000000,   0.000000]
    <r_e> [Ang]:                  [  0.000000,   0.000000,   0.000000]
    |<r_e - r_h>| [Ang]:            0.000000
    Hole size [Ang]:                1.247265
      Cartesian components [Ang]: [  0.742551,   0.513901,   0.860345]
    Electron size [Ang]:            6.428473
      Cartesian components [Ang]: [  4.921890,   2.919709,   2.928407]
  
  Alpha spin:
    <r_h> [Ang]:                  [ -0.000000,   0.000000,   0.000000]
    <r_e> [Ang]:                  [  0.000000,   0.000000,  -0.000000]
    |<r_e - r_h>| [Ang]:            0.000000
    Hole size [Ang]:                1.247265
      Cartesian components [Ang]: [  0.742551,   0.513901,   0.860345]
    Electron size [Ang]:            6.527002
      Cartesian components [Ang]: [  5.055223,   2.921469,   2.917447]
  
  Beta spin:
    <r_h> [Ang]:                  [ -0.000000,   0.000000,   0.000000]
    <r_e> [Ang]:                  [ -0.000000,   0.000000,   0.000000]
    |<r_e - r_h>| [Ang]:            0.000000
    Hole size [Ang]:                1.247265
      Cartesian components [Ang]: [  0.742551,   0.513901,   0.860345]
    Electron size [Ang]:            6.367827
      Cartesian components [Ang]: [  4.839034,   2.918639,   2.935050]
  ----------------------------------------------------------------------------


  Electron-attached state 9 (B2g)                                  [converged]
  ----------------------------------------------------------------------------
  Term symbol:  9 (2) B2g                                   R^2 =  1.03798e-09

  Total energy:                                            -77.9825057422 a.u.
  Electron attachment energy:                                     12.085159 eV

  Pole strength:                                                      0.000024

  Dip. moment [a.u.]:                  [  -0.000000,   -0.000000,   -0.000000]
  Total dipole [Debye]:                                               0.000001
  <r^2> [a.u.]:                        [ 218.711146,   81.938925,   70.340362]
  Total <r^2> [a.u.]:                                               370.990433

  V1^2 = 0.0000, V2^2 = 1.0000

  Important amplitudes:
       occ i       vir a        vir b           v   
    -------------------------------------------------
     1 (B1u) A    4 (Ag ) A    3 (B3u) B      0.5323
     1 (B1u) B    4 (Ag ) B    3 (B3u) B      0.4598
    -------------------------------------------------

  Density matrix analysis:
  ------------------------
  NOs (alpha)
    Occupation of frontier NOs:
       0.3899   0.5669
    Number of electrons:  8.000000
  NOs (beta)
    Occupation of frontier NOs:
       0.4336   0.5438
    Number of electrons:  9.000000
  NOs (spin-traced)
    Occupation of frontier NOs:
       0.9336   1.0001
    Number of electrons: 17.000000
    Number of unpaired electrons: n_u =  3.31598, n_u,nl =  3.02682
    NO participation ratio (PR_NO):  3.818355
  
  
  Mulliken Population Analysis
  Atom  Charge (e)    Spin (e)  h+ (alpha)   h+ (beta)  e- (alpha)   e- (beta)
  ----------------------------------------------------------------------------
   1 C   -0.836616    0.484959    0.281896    0.206532   -0.300694   -0.710289
   2 C   -0.836616    0.484959    0.281896    0.206532   -0.300694   -0.710289
   3 H    0.168301    0.007522    0.003336    0.002444    0.006063   -0.000567
   4 H    0.168332    0.007519    0.003336    0.002444    0.006063   -0.000564
   5 H    0.168315    0.007519    0.003336    0.002444    0.006063   -0.000564
   6 H    0.168284    0.007522    0.003336    0.002444    0.006063   -0.000567
  ----------------------------------------------------------------------------
  Sum:   -1.000000    1.000000    0.577136    0.422840   -0.577136   -1.422840
  
  Multipole moment analysis of the density matrix
    Molecular charge:                      -1.000000
    Number of electrons:                   17.000000
      Center of electronic charge [Ang]: [  0.000000,   0.000000,   0.000000]
    Total nuclear charge:                  16.000000
      Center of nuclear charge [Ang]:    [  0.000000,   0.000000,   0.000000]
    Dipole moment [D]:                     0.000001
      Cartesian components [D]:          [ -0.000000,  -0.000001,  -0.000000]
    RMS size of the density [Ang]:         2.472054
      Cartesian components [Ang]:        [  1.898070,   1.161774,   1.076413]
  
  Exciton analysis of the difference density matrix
  Total:
    <r_h> [Ang]:                  [ -0.000000,   0.000000,   0.000000]
    <r_e> [Ang]:                  [  0.000000,   0.000000,   0.000000]
    |<r_e - r_h>| [Ang]:            0.000000
    Hole size [Ang]:                1.247265
      Cartesian components [Ang]: [  0.742552,   0.513901,   0.860345]
    Electron size [Ang]:            6.428740
      Cartesian components [Ang]: [  4.922099,   2.919823,   2.928527]
  
  Alpha spin:
    <r_h> [Ang]:                  [ -0.000000,   0.000000,   0.000000]
    <r_e> [Ang]:                  [ -0.000000,  -0.000000,   0.000000]
    |<r_e - r_h>| [Ang]:            0.000000
    Hole size [Ang]:                1.247265
      Cartesian components [Ang]: [  0.742551,   0.513901,   0.860345]
    Electron size [Ang]:            6.297262
      Cartesian components [Ang]: [  4.741710,   2.917489,   2.942779]
  
  Beta spin:
    <r_h> [Ang]:                  [ -0.000000,   0.000000,   0.000000]
    <r_e> [Ang]:                  [  0.000000,   0.000000,   0.000000]
    |<r_e - r_h>| [Ang]:            0.000000
    Hole size [Ang]:                1.247266
      Cartesian components [Ang]: [  0.742552,   0.513902,   0.860345]
    Electron size [Ang]:            6.481310
      Cartesian components [Ang]: [  4.993412,   2.920769,   2.922726]
  ----------------------------------------------------------------------------


  Electron-attached state 10 (B2g)                                  [converged]
  ----------------------------------------------------------------------------
  Term symbol:  10 (2) B2g                                  R^2 =  3.67955e-07

  Total energy:                                            -77.9273836437 a.u.
  Electron attachment energy:                                     13.585108 eV

  Pole strength:                                                      0.004033

  Dip. moment [a.u.]:                  [   0.000000,   -0.000000,   -0.000000]
  Total dipole [Debye]:                                               0.000001
  <r^2> [a.u.]:                        [ 109.178685,   61.350336,  129.815703]
  Total <r^2> [a.u.]:                                               300.344724

  V1^2 = 0.0040, V2^2 = 0.9960

  Important amplitudes:
       occ i       vir a        vir b           v   
    -------------------------------------------------
     1 (B1u) A    2 (B2g) A    2 (B1u) B     -0.5238
     1 (B1u) A    2 (B1u) A    2 (B2g) B     -0.4695
    -------------------------------------------------

  Density matrix analysis:
  ------------------------
  NOs (alpha)
    Occupation of frontier NOs:
       0.4409   0.5530
    Number of electrons:  8.000000
  NOs (beta)
    Occupation of frontier NOs:
       0.4509   0.5549
    Number of electrons:  9.000000
  NOs (spin-traced)
    Occupation of frontier NOs:
       0.9372   0.9962
    Number of electrons: 17.000000
    Number of unpaired electrons: n_u =  3.30955, n_u,nl =  3.02549
    NO participation ratio (PR_NO):  3.814087
  
  
  Mulliken Population Analysis
  Atom  Charge (e)    Spin (e)  h+ (alpha)   h+ (beta)  e- (alpha)   e- (beta)
  ----------------------------------------------------------------------------
   1 C   -0.818129    0.489587    0.483693    0.003057   -0.490934   -0.499885
   2 C   -0.818129    0.489587    0.483693    0.003057   -0.490934   -0.499885
   3 H    0.159059    0.005207    0.005706    0.000052   -0.002086   -0.001638
   4 H    0.159087    0.005206    0.005706    0.000052   -0.002086   -0.001638
   5 H    0.159070    0.005207    0.005706    0.000052   -0.002086   -0.001638
   6 H    0.159042    0.005207    0.005706    0.000052   -0.002086   -0.001638
  ----------------------------------------------------------------------------
  Sum:   -1.000000    1.000000    0.990210    0.006323   -0.990210   -1.006323
  
  Multipole moment analysis of the density matrix
    Molecular charge:                      -1.000000
    Number of electrons:                   17.000000
      Center of electronic charge [Ang]: [ -0.000000,   0.000000,   0.000000]
    Total nuclear charge:                  16.000000
      Center of nuclear charge [Ang]:    [  0.000000,   0.000000,   0.000000]
    Dipole moment [D]:                     0.000001
      Cartesian components [D]:          [  0.000000,  -0.000001,  -0.000000]
    RMS size of the density [Ang]:         2.224266
      Cartesian components [Ang]:        [  1.341052,   1.005276,   1.462313]
  
  Exciton analysis of the difference density matrix
  Total:
    <r_h> [Ang]:                  [ -0.000000,   0.000000,   0.000000]
    <r_e> [Ang]:                  [  0.000000,   0.000000,   0.000000]
    |<r_e - r_h>| [Ang]:            0.000000
    Hole size [Ang]:                1.247109
      Cartesian components [Ang]: [  0.742693,   0.513961,   0.859960]
    Electron size [Ang]:            5.611463
      Cartesian components [Ang]: [  2.984168,   2.377381,   4.114768]
  
  Alpha spin:
    <r_h> [Ang]:                  [ -0.000000,   0.000000,   0.000000]
    <r_e> [Ang]:                  [  0.000000,   0.000000,   0.000000]
    |<r_e - r_h>| [Ang]:            0.000000
    Hole size [Ang]:                1.247192
      Cartesian components [Ang]: [  0.742624,   0.513926,   0.860161]
    Electron size [Ang]:            5.522193
      Cartesian components [Ang]: [  2.996190,   2.320810,   4.016379]
  
  Beta spin:
    <r_h> [Ang]:                  [  0.000000,   0.000000,  -0.000000]
    <r_e> [Ang]:                  [  0.000000,   0.000000,   0.000000]
    |<r_e - r_h>| [Ang]:            0.000000
    Hole size [Ang]:                1.234079
      Cartesian components [Ang]: [  0.753502,   0.519447,   0.827866]
    Electron size [Ang]:            5.697939
      Cartesian components [Ang]: [  2.972292,   2.431763,   4.209337]
  ----------------------------------------------------------------------------


--------------------------------------------------------------------------------
  Time of ADC calculation:  CPU 99.63 s  wall 22.58 s
================================================================================
 
 --------------------------------------------------------------
             Orbital Energies (a.u.) and Symmetries
 --------------------------------------------------------------
 
 Alpha MOs, Restricted
 -- Occupied --                  
-11.228 -11.226  -1.039  -0.781  -0.660  -0.568  -0.516  -0.377
  1 Ag    1 B3u   2 Ag    2 B3u   1 B2u   3 Ag    1 B1g   1 B1u                
 -- Virtual --                   
  0.023   0.023   0.026   0.034   0.035   0.043   0.092   0.093
  3 B3u   2 B2u   2 B1u   2 B1g   1 B2g   4 Ag    3 B2u   4 B3u                
  0.096   0.100   0.106   0.108   0.177   0.186   0.274   0.280
  2 B2g   5 Ag    3 B1u   3 B1g   6 Ag    3 B2g   4 B2u   5 B3u                
  0.325   0.370   0.391   0.490   0.509   0.539   0.595   0.620
  4 B1g   6 B3u   7 Ag    5 B2u   8 Ag    4 B1u   7 B3u   4 B2g                
  0.634   0.643   0.666   0.678   0.749   0.802   0.828   0.897
  9 Ag    6 B2u   1 B3g   8 B3u   5 B1g   9 B3u   1 Au    5 B1u                
  0.905   0.992   1.021   1.039   1.185   1.190   1.254   1.264
  6 B1g  10 Ag    7 B1g   7 B2u   6 B1u   5 B2g   2 B3g  11 Ag                 
  1.334   1.374   1.379   1.479   1.481   1.515   1.545   1.635
 10 B3u   6 B2g   8 B2u  11 B3u   9 B2u  12 Ag   12 B3u   2 Au                 
  1.645   1.831   1.853   1.968   2.297   2.422   2.558   2.581
  8 B1g  13 B3u  13 Ag    9 B1g  14 Ag    7 B1u  15 Ag    7 B2g                
  2.652   2.710   2.761   2.765   2.848   2.915   3.064   3.098
 10 B2u  11 B2u   8 B1u  14 B3u  10 B1g   3 B3g  11 B1g   9 B1u                
  3.105   3.122   3.124   3.152   3.178   3.238   3.275   3.338
  4 B3g  16 Ag   12 B2u   3 Au   17 Ag    8 B2g  15 B3u  13 B2u                
  3.405   3.426   3.426   3.456   3.472   3.550   3.583   3.641
  9 B2g   4 Au   16 B3u  17 B3u  12 B1g  10 B1u  18 Ag    5 B3g                
  3.744   3.814   3.884   3.921   3.972   3.977   4.013   4.016
 14 B2u  13 B1g  18 B3u  14 B1g  10 B2g   5 Au   15 B2u  19 Ag                 
  4.058   4.186   4.191   4.201   4.202   4.330   4.351   4.473
 11 B1u  19 B3u  15 B1g  20 Ag    6 B3g  12 B1u  11 B2g  16 B2u                
  4.521   4.606   4.649   4.757   4.813   4.930   4.975   5.044
 20 B3u   6 Au   21 Ag   21 B3u  12 B2g  13 B1u  22 Ag   16 B1g                
  5.143   5.216   5.301   5.306   5.426   5.453   5.538   5.563
 17 B2u   7 B3g  23 Ag   22 B3u   7 Au   17 B1g  13 B2g  24 Ag                 
  5.628   5.961   6.095   6.274   6.540   6.874  11.906  14.803
 18 B2u  23 B3u  18 B1g  19 B2u  24 B3u  19 B1g  25 Ag   25 B3u                
 
 Beta MOs, Restricted
 -- Occupied --                  
-11.228 -11.226  -1.039  -0.781  -0.660  -0.568  -0.516  -0.377
  1 Ag    1 B3u   2 Ag    2 B3u   1 B2u   3 Ag    1 B1g   1 B1u                
 -- Virtual --                   
  0.023   0.023   0.026   0.034   0.035   0.043   0.092   0.093
  3 B3u   2 B2u   2 B1u   2 B1g   1 B2g   4 Ag    3 B2u   4 B3u                
  0.096   0.100   0.106   0.108   0.177   0.186   0.274   0.280
  2 B2g   5 Ag    3 B1u   3 B1g   6 Ag    3 B2g   4 B2u   5 B3u                
  0.325   0.370   0.391   0.490   0.509   0.539   0.595   0.620
  4 B1g   6 B3u   7 Ag    5 B2u   8 Ag    4 B1u   7 B3u   4 B2g                
  0.634   0.643   0.666   0.678   0.749   0.802   0.828   0.897
  9 Ag    6 B2u   1 B3g   8 B3u   5 B1g   9 B3u   1 Au    5 B1u                
  0.905   0.992   1.021   1.039   1.185   1.190   1.254   1.264
  6 B1g  10 Ag    7 B1g   7 B2u   6 B1u   5 B2g   2 B3g  11 Ag                 
  1.334   1.374   1.379   1.479   1.481   1.515   1.545   1.635
 10 B3u   6 B2g   8 B2u  11 B3u   9 B2u  12 Ag   12 B3u   2 Au                 
  1.645   1.831   1.853   1.968   2.297   2.422   2.558   2.581
  8 B1g  13 B3u  13 Ag    9 B1g  14 Ag    7 B1u  15 Ag    7 B2g                
  2.652   2.710   2.761   2.765   2.848   2.915   3.064   3.098
 10 B2u  11 B2u   8 B1u  14 B3u  10 B1g   3 B3g  11 B1g   9 B1u                
  3.105   3.122   3.124   3.152   3.178   3.238   3.275   3.338
  4 B3g  16 Ag   12 B2u   3 Au   17 Ag    8 B2g  15 B3u  13 B2u                
  3.405   3.426   3.426   3.456   3.472   3.550   3.583   3.641
  9 B2g   4 Au   16 B3u  17 B3u  12 B1g  10 B1u  18 Ag    5 B3g                
  3.744   3.814   3.884   3.921   3.972   3.977   4.013   4.016
 14 B2u  13 B1g  18 B3u  14 B1g  10 B2g   5 Au   15 B2u  19 Ag                 
  4.058   4.186   4.191   4.201   4.202   4.330   4.351   4.473
 11 B1u  19 B3u  15 B1g  20 Ag    6 B3g  12 B1u  11 B2g  16 B2u                
  4.521   4.606   4.649   4.757   4.813   4.930   4.975   5.044
 20 B3u   6 Au   21 Ag   21 B3u  12 B2g  13 B1u  22 Ag   16 B1g                
  5.143   5.216   5.301   5.306   5.426   5.453   5.538   5.563
 17 B2u   7 B3g  23 Ag   22 B3u   7 Au   17 B1g  13 B2g  24 Ag                 
  5.628   5.961   6.095   6.274   6.540   6.874  11.906  14.803
 18 B2u  23 B3u  18 B1g  19 B2u  24 B3u  19 B1g  25 Ag   25 B3u                
 --------------------------------------------------------------
 
          Ground-State Mulliken Net Atomic Charges

     Atom                 Charge (a.u.)
  ----------------------------------------
      1 C                    -0.281135
      2 C                    -0.281135
      3 H                     0.140562
      4 H                     0.140591
      5 H                     0.140573
      6 H                     0.140544
  ----------------------------------------
  Sum of atomic charges =     0.000000

 -----------------------------------------------------------------
                    Cartesian Multipole Moments
 -----------------------------------------------------------------
    Charge (ESU x 10^10)
                 0.0000
    Dipole Moment (Debye)
         X       0.0000      Y      -0.0000      Z      -0.0000
       Tot       0.0000
    Quadrupole Moments (Debye-Ang)
        XX     -12.8673     XY       0.0000     YY     -11.9340
        XZ       0.0000     YZ      -0.0000     ZZ     -16.0983
    Octopole Moments (Debye-Ang^2)
       XXX       0.0000    XXY      -0.0000    XYY       0.0000
       YYY      -0.0000    XXZ      -0.0000    XYZ      -0.0000
       YYZ       0.0000    XZZ       0.0000    YZZ      -0.0000
       ZZZ      -0.0000
    Hexadecapole Moments (Debye-Ang^3)
      XXXX     -68.1406   XXXY       0.0000   XXYY     -13.1148
      XYYY       0.0000   YYYY     -26.8407   XXXZ       0.0000
      XXYZ      -0.0000   XYYZ       0.0000   YYYZ      -0.0000
      XXZZ     -15.5059   XYZZ       0.0000   YYZZ      -9.0321
      XZZZ       0.0000   YZZZ      -0.0000   ZZZZ     -21.5495
 -----------------------------------------------------------------
 Total job time:  104.57s(wall), 148.88s(cpu) 
 Fri Feb 25 17:36:04 2022

        *************************************************************
        *                                                           *
        *  Thank you very much for using Q-Chem.  Have a nice day.  *
        *                                                           *
        *************************************************************


