/src/tsommerfeld/qchem/exe/qcprog.exe .input1.660256.3660.qcin.1 /src/jdavis/qchem.scratch/qchem3660/

                  Welcome to Q-Chem
     A Quantum Leap Into The Future Of Chemistry


 Q-Chem 5.4 (devel), Q-Chem, Inc., Pleasanton, CA (2021)

 E. Epifanovsky,  A. T. B. Gilbert,  Xintian Feng,  Joonho Lee,  Yuezhi Mao,  
 N. Mardirossian,  P. Pokhilko,  A. White,  M. Wormit,  M. P. Coons,  
 A. L. Dempwolff,  Zhengting Gan,  D. Hait,  P. R. Horn,  L. D. Jacobson,  
 I. Kaliman,  J. Kussmann,  A. W. Lange,  Ka Un Lao,  D. S. Levine,  Jie Liu,  
 S. C. McKenzie,  A. F. Morrison,  K. Nanda,  F. Plasser,  D. R. Rehn,  
 M. L. Vidal,  Zhi-Qiang You,  Ying Zhu,  B. Alam,  B. Albrecht,  
 A. Aldossary,  E. Alguire,  J. H. Andersen,  D. Barton,  K. Begam,  A. Behn,  
 Y. A. Bernard,  E. J. Berquist,  H. Burton,  A. Carreras,  K. Carter-Fenk,  
 R. Chakraborty,  A. D. Chien,  K. D. Closser,  V. Cofer-Shabica,  
 S. Dasgupta,  Jia Deng,  M. de Wergifosse,  M. Diedenhofen,  Hainam Do,  
 S. Ehlert,  Po-Tung Fang,  S. Fatehi,  Qingguo Feng,  T. Friedhoff,  
 J. Gayvert,  Qinghui Ge,  G. Gidofalvi,  M. Goldey,  J. Gomes,  
 C. Gonzalez-Espinoza,  S. Gulania,  A. Gunina,  M. W. D. Hanson-Heine,  
 P. H. P. Harbach,  A. W. Hauser,  M. F. Herbst,  M. Hernandez Vera,  
 M. Hodecker,  Z. C. Holden,  S. Houck,  Xunkun Huang,  Kerwin Hui,  
 B. C. Huynh,  M. Ivanov,  Hyunjun Ji,  Hanjie Jiang,  B. Kaduk,  S. Kaehler,  
 K. Khistyaev,  Jaehoon Kim,  P. Klunzinger,  Z. Koczor-Benda,  
 Joong Hoon Koh,  D. Kosenkov,  L. Koulias,  T. Kowalczyk,  C. M. Krauter,  
 K. Kue,  A. Kunitsa,  T. Kus,  A. Landau,  K. V. Lawler,  D. Lefrancois,  
 S. Lehtola,  Rain Li,  Yi-Pei Li,  Jiashu Liang,  M. Liebenthal,  
 Hung-Hsuan Lin,  You-Sheng Lin,  Fenglai Liu,  Kuan-Yu Liu,  
 M. Loipersberger,  A. Luenser,  A. Manjanath,  P. Manohar,  E. Mansoor,  
 S. F. Manzer,  Shan-Ping Mao,  A. V. Marenich,  T. Markovich,  S. Mason,  
 S. A. Maurer,  P. F. McLaughlin,  M. F. S. J. Menger,  J.-M. Mewes,  
 S. A. Mewes,  P. Morgante,  J. W. Mullinax,  K. J. Oosterbaan,  G. Paran,  
 Alexander C. Paul,  Suranjan K. Paul,  F. Pavosevic,  Zheng Pei,  S. Prager,  
 E. I. Proynov,  E. Ramos,  B. Rana,  A. E. Rask,  A. Rettig,  R. M. Richard,  
 F. Rob,  E. Rossomme,  T. Scheele,  M. Scheurer,  M. Schneider,  
 N. Sergueev,  S. M. Sharada,  W. Skomorowski,  D. W. Small,  C. J. Stein,  
 Yu-Chuan Su,  E. J. Sundstrom,  Zhen Tao,  J. Thirman,  T. Tsuchimochi,  
 N. M. Tubman,  S. P. Veccham,  O. Vydrov,  J. Wenzel,  J. Witte,  A. Yamada,  
 Kun Yao,  S. Yeganeh,  S. R. Yost,  A. Zech,  Igor Ying Zhang,  Xing Zhang,  
 Yu Zhang,  D. Zuev,  A. Aspuru-Guzik,  A. T. Bell,  N. A. Besley,  
 K. B. Bravaya,  B. R. Brooks,  D. Casanova,  Jeng-Da Chai,  S. Coriani,  
 C. J. Cramer,  A. E. DePrince, III,  R. A. DiStasio Jr.,  A. Dreuw,  
 B. D. Dunietz,  T. R. Furlani,  W. A. Goddard III,  S. Grimme,  
 S. Hammes-Schiffer,  T. Head-Gordon,  W. J. Hehre,  Chao-Ping Hsu,  
 T.-C. Jagau,  Yousung Jung,  A. Klamt,  Jing Kong,  D. S. Lambrecht,  
 WanZhen Liang,  N. J. Mayhall,  C. W. McCurdy,  J. B. Neaton,  
 C. Ochsenfeld,  J. A. Parkhill,  R. Peverati,  V. A. Rassolov,  Yihan Shao,  
 L. V. Slipchenko,  T. Stauch,  R. P. Steele,  J. E. Subotnik,  
 A. J. W. Thom,  A. Tkatchenko,  D. G. Truhlar,  T. Van Voorhis,  
 T. A. Wesolowski,  K. B. Whaley,  H. L. Woodcock III,  P. M. Zimmerman,  
 S. Faraji,  P. M. W. Gill,  M. Head-Gordon,  J. M. Herbert,  A. I. Krylov

 Additional authors for Version 5.4.1: 
 S. Kotaru,  Shaozhi Li,  Xiangyuan Li,  F. Matz,  A. Molle,  Haisheng Ren,  
 Yingli Su,  Hung-Yi Tsai,  C. Utku,  Fang Wang

 Contributors to earlier versions of Q-Chem not listed above: 
 R. D. Adamson,  B. Austin,  R. Baer,  J. Baker,  G. J. O. Beran,  
 K. Brandhorst,  S. T. Brown,  E. F. C. Byrd,  A. K. Chakraborty,  
 G. K. L. Chan,  Chun-Min Chang,  Yunqing Chen,  C.-L. Cheng,  
 Siu Hung Chien,  D. M. Chipman,  D. L. Crittenden,  H. Dachsel,  
 R. J. Doerksen,  A. D. Dutoi,  R. G. Edgar,  J. Fosso-Tande,  
 L. Fusti-Molnar,  D. Ghosh,  A. Ghysels,  A. Golubeva-Zadorozhnaya,  
 J. Gonthier,  M. S. Gordon,  S. R. Gwaltney,  G. Hawkins,  J. E. Herr,  
 A. Heyden,  S. Hirata,  E. G. Hohenstein,  G. Kedziora,  F. J. Keil,  
 C. Kelley,  Jihan Kim,  R. A. King,  R. Z. Khaliullin,  P. P. Korambath,  
 W. Kurlancheek,  A. Laurent,  A. M. Lee,  M. S. Lee,  S. V. Levchenko,  
 Ching Yeh Lin,  D. Liotard,  E. Livshits,  R. C. Lochan,  I. Lotan,  
 L. A. Martinez-Martinez,  P. E. Maslen,  N. Nair,  D. P. O'Neill,  
 D. Neuhauser,  E. Neuscamman,  C. M. Oana,  R. Olivares-Amaya,  R. Olson,  
 T. M. Perrine,  B. Peters,  P. A. Pieniazek,  A. Prociuk,  Y. M. Rhee,  
 J. Ritchie,  M. A. Rohrdanz,  E. Rosta,  N. J. Russ,  H. F. Schaefer III,  
 M. W. Schmidt,  N. E. Schultz,  S. Sharma,  N. Shenvi,  C. D. Sherrill,  
 A. C. Simmonett,  A. Sodt,  T. Stein,  D. Stuck,  K. S. Thanthiriwatte,  
 V. Vanovschi,  L. Vogt,  Tao Wang,  A. Warshel,  M. A. Watson,  
 C. F. Williams,  Q. Wu,  X. Xu,  Jun Yang,  W. Zhang,  Yan Zhao

 Please cite Q-Chem as follows:
 Y. Shao et al., Mol. Phys. 113, 184-215 (2015)
 DOI: 10.1080/00268976.2014.952696

 Q-Chem 5.4.1 for Intel X86 EM64T Linux

 Parts of Q-Chem use Armadillo 9.900.5 (Nocturnal Misbehaviour).
 http://arma.sourceforge.net/

 Q-Chem begins on Fri Feb 25 18:12:36 2022  

 Host: node01
0

     Scratch files written to /src/jdavis/qchem.scratch/qchem3660//
 Processing $rem in /src/tsommerfeld/qchem/config/preferences:
 Processing $rem in /home/jdavis/.qchemrc:

 Checking the input file for inconsistencies... 	...done.

--------------------------------------------------------------
User input:
--------------------------------------------------------------
$molecule
0 1
C        -0.6645000000    0.0000000000   -0.2082049804
C         0.6645000000    0.0000000000   -0.2082049804
H        -1.1590800000    0.0000000000    0.7541440196
H         1.1590800000    0.0000000000    0.7541440196
H        -1.1590800000    0.0000000000   -1.1705529804
H         1.1590800000    0.0000000000   -1.1705529804
$end

$rem
   METHOD adc(2)
   BASIS gen
   PURECART 11
   EA_STATES [0,0,10,0,0,0,0,0]
   scf_convergence 8
   ADC_DAVIDSON_MAXITER 120
   ADC_DAVIDSON_MAXSUBSPACE 200
   adc_nguess_singles 100
   THRESH 14
   S2THRESH 14
   adc_davidson_conv 5
   adc_davidson_thresh 14
   THREADS 10
   MEM_TOTAL 95000
   STATE_ANALYSIS TRUE
$end
$basis
C     1
S    10   1.00
      8.236000D+03           5.310000D-04
      1.235000D+03           4.108000D-03
      2.808000D+02           2.108700D-02
      7.927000D+01           8.185300D-02
      2.559000D+01           2.348170D-01
      8.997000D+00           4.344010D-01
      3.319000D+00           3.461290D-01
      9.059000D-01           3.937800D-02
      3.643000D-01          -8.983000D-03
      1.285000D-01           2.385000D-03
S    1   1.00
      9.059000D-01           1.000000D+00
S    10   1.00
      8.236000D+03          -1.130000D-04
      1.235000D+03          -8.780000D-04
      2.808000D+02          -4.540000D-03
      7.927000D+01          -1.813300D-02
      2.559000D+01          -5.576000D-02
      8.997000D+00          -1.268950D-01
      3.319000D+00          -1.703520D-01
      9.059000D-01           1.403820D-01
      3.643000D-01           5.986840D-01
      1.285000D-01           3.953890D-01
S    1   1.00
      1.285000D-01           1.000000D+00
P    1   1.00
      3.827000D-01           1.000000D+00
P    5   1.00
      1.871000D+01           1.403100D-02
      4.133000D+00           8.686600D-02
      1.200000D+00           2.902160D-01
      3.827000D-01           5.010080D-01
      1.209000D-01           3.434060D-01
P    1   1.00
      1.209000D-01           1.000000D+00
P   1   1.00
      0.05735      1.0000000
P   1   1.00
      0.028675      1.0000000
D    1   1.00
      1.097000D+00           1.000000D+00
D    1   1.00
      3.180000D-01           1.000000D+00
F    1   1.00
      7.610000D-01           1.0000000
****
C     2
S    10   1.00
      8.236000D+03           5.310000D-04
      1.235000D+03           4.108000D-03
      2.808000D+02           2.108700D-02
      7.927000D+01           8.185300D-02
      2.559000D+01           2.348170D-01
      8.997000D+00           4.344010D-01
      3.319000D+00           3.461290D-01
      9.059000D-01           3.937800D-02
      3.643000D-01          -8.983000D-03
      1.285000D-01           2.385000D-03
S    1   1.00
      9.059000D-01           1.000000D+00
S    10   1.00
      8.236000D+03          -1.130000D-04
      1.235000D+03          -8.780000D-04
      2.808000D+02          -4.540000D-03
      7.927000D+01          -1.813300D-02
      2.559000D+01          -5.576000D-02
      8.997000D+00          -1.268950D-01
      3.319000D+00          -1.703520D-01
      9.059000D-01           1.403820D-01
      3.643000D-01           5.986840D-01
      1.285000D-01           3.953890D-01
S    1   1.00
      1.285000D-01           1.000000D+00
P    1   1.00
      3.827000D-01           1.000000D+00
P    5   1.00
      1.871000D+01           1.403100D-02
      4.133000D+00           8.686600D-02
      1.200000D+00           2.902160D-01
      3.827000D-01           5.010080D-01
      1.209000D-01           3.434060D-01
P    1   1.00
      1.209000D-01           1.000000D+00
P   1   1.00
      0.05735      1.0000000
P   1   1.00
      0.028675      1.0000000
D    1   1.00
      1.097000D+00           1.000000D+00
D    1   1.00
      3.180000D-01           1.000000D+00
F    1   1.00
      7.610000D-01           1.0000000
****
H 3
cc-pVTZ
****
H 4
cc-pVTZ
****
H 5
cc-pVTZ
****
H 6
cc-pVTZ
****
$end
--------------------------------------------------------------
 Atom   2: ( -0.6645000000, -0.0000001250,  0.0000000000)
         ->( -0.6645000000,  0.0000001250, -0.0000000000)
 Atom   1: (  0.6645000000, -0.0000001250, -0.0000000000)
         ->(  0.6645000000,  0.0000000000,  0.0000000000)
 Atom   6: ( -1.1590800000, -0.9623481250, -0.0000000000)
         ->( -1.1590800000, -0.9623488750,  0.0000000000)
 Atom   5: (  1.1590800000, -0.9623481250, -0.0000000000)
         ->(  1.1590800000, -0.9623488750, -0.0000000000)
 ----------------------------------------------------------------
             Standard Nuclear Orientation (Angstroms)
    I     Atom           X                Y                Z
 ----------------------------------------------------------------
    1      C       0.6645000000     0.0000000000     0.0000000000
    2      C      -0.6645000000     0.0000001250    -0.0000000000
    3      H       1.1590800000     0.9623488750     0.0000000000
    4      H      -1.1590800000     0.9623488750     0.0000000000
    5      H       1.1590800000    -0.9623488750    -0.0000000000
    6      H      -1.1590800000    -0.9623488750     0.0000000000
 ----------------------------------------------------------------
 Molecular Point Group                 D2h   NOp =  8
 Largest Abelian Subgroup              D2h   NOp =  8
 Nuclear Repulsion Energy =          33.58921667 hartrees
 There are        8 alpha and        8 beta electrons
 Requested basis set is non-standard
 There are 48 shells and 128 basis functions
 Total memory of 95000 MB is distributed as follows: 
   MEM_STATIC is set to 192 MB
   QALLOC/CCMAN JOB total memory use is  94808 MB
 Warning: actual memory use might exceed 95000 MB

 Total QAlloc Memory Limit  95000 MB
 Mega-Array Size       188 MB
 MEM_STATIC part       192 MB

                       Distance Matrix (Angstroms)
             C (  1)   C (  2)   H (  3)   H (  4)   H (  5)
   C (  2)  1.329000
   H (  3)  1.082000  2.061931
   H (  4)  2.061931  1.082000  2.318160
   H (  5)  1.082000  2.061931  1.924698  3.013026
   H (  6)  2.061931  1.082000  3.013026  1.924698  2.318160
 
 A cutoff of  1.0D-14 yielded   1176 shell pairs
 There are      8432 function pairs (     10417 Cartesian)
 Smallest overlap matrix eigenvalue = 7.12E-04

 Scale SEOQF with 1.000000e-01/1.000000e-01/1.000000e-01

 Standard Electronic Orientation quadrupole field applied
 Nucleus-field energy     =     0.0000000006 hartrees
 ================ Generating on-the-fly SAD Guess ================
Attempting to make child job directory: /src/jdavis/qchem.scratch/qchem3660//Frg1/
Attempting to make child job directory: /src/jdavis/qchem.scratch/qchem3660//Frg2/
Creating input file /src/jdavis/qchem.scratch/qchem3660/Frg1.input
using default PutDataFrgm: nothing
calling putenv with: QCSCRATCH=/src/jdavis/qchem.scratch/qchem3660/ 
Spawning Job For Fragment 0
Done Job For Fragment 0
calling putenv with: QCSCRATCH=/src/jdavis/qchem.scratch 
calling putenv with: QCTHREADS=1 
Creating input file /src/jdavis/qchem.scratch/qchem3660/Frg2.input
using default PutDataFrgm: nothing
calling putenv with: QCSCRATCH=/src/jdavis/qchem.scratch/qchem3660/ 
Spawning Job For Fragment 1
Done Job For Fragment 1
calling putenv with: QCSCRATCH=/src/jdavis/qchem.scratch 
calling putenv with: QCTHREADS=1 
 Time for running child jobs:  CPU 1.75 s  wall 53.79 s
 ============= Method Specific SAD Guess Constructed =============
 Guess from on-the-fly superposition of atomic densities
 Warning: Energy on first SCF cycle will be non-variational
 A restricted Hartree-Fock SCF calculation will be
 performed using Pulay DIIS extrapolation
 SCF converges when DIIS error is below 1.0E-08
 using 10 threads for integral computing
 -------------------------------------------------------
 OpenMP Integral computing Module                
 Release: version 1.0, May 2013, Q-Chem Inc. Pittsburgh 
 -------------------------------------------------------
 ---------------------------------------
  Cycle       Energy         DIIS Error
 ---------------------------------------
    1     -78.4651939014      3.89E-02
    2     -78.0360056336      2.90E-03
    3     -78.0576745926      7.92E-04
    4     -78.0594611635      2.78E-04
    5     -78.0596708613      3.07E-05
    6     -78.0596756473      6.53E-06
    7     -78.0596759504      1.78E-06
    8     -78.0596759829      1.85E-07
    9     -78.0596759876      2.36E-08
   10     -78.0596759879      2.48E-09 Convergence criterion met
 ---------------------------------------
 SCF time:  CPU 15.85 s  wall 1.59 s
 SCF   energy in the final basis set = -78.05967599
 Total energy in the final basis set = -78.05967599
================================================================================
|                                                                              |
|                                 A D C  M A N                                 |
|                                                                              |
 ------------------------------------------------------------------------------ 
|                                                                              |
| Components:                                                                  |
|                                                                              |
| - libvmm - 1.3-trunk                                                         |
|   Authors:                                                                   |
|   Evgeny Epifanovsky, Ilya Kaliman                                           |
|                                                                              |
| - libtensor - 2.5-trunk                                                      |
|   Authors:                                                                   |
|   Evgeny Epifanovsky, Michael Wormit, Dmitry Zuev, Sam Manzer,               |
|   Ilya Kaliman                                                               |
|                                                                              |
| - libwfa - 1.1-trunk                                                         |
|   Authors:                                                                   |
|   Felix Plasser, Stefanie Mewes (Baeppler), Benjamin Thomitzni,              |
|   Michael Wormit, Feng Chen, Anna I. Krylov, Pavel Pokhilko                  |
|                                                                              |
| - libadc - 1.1-trunk                                                         |
|   Authors:                                                                   |
|   Michael Wormit, Adrian L. Dempwolff, Philipp H. P. Harbach,                |
|   Caroline Krauter, Dirk Rehn, Matthias Schneider, Jan Wenzel                |
|                                                                              |
| - adcman - 2.6-trunk                                                         |
|   Authors:                                                                   |
|   Michael Wormit, Adrian L. Dempwolff, Philipp H. P. Harbach,                |
|   Caroline Krauter, Daniel Lefrancois, Jan-Michael Mewes, Dirk Rehn,         |
|   Matthias Schneider, Jan Wenzel, Andreas Dreuw                              |
|                                                                              |
| Authors of earlier versions of ADCMAN:                                       |
| Andreas Dreuw, Jan Hendrik Starcke, Dirk Rehn, Michael Wormit                |
|                                                                              |
================================================================================

 
 Alpha MOs, Restricted
 -- Occupied --                  
-11.228 -11.226  -1.040  -0.781  -0.661  -0.568  -0.516  -0.377
  1 Ag    1 B3u   2 Ag    2 B3u   1 B2u   3 Ag    1 B1g   1 B1u                
 -- Virtual --                   
  0.055   0.057   0.065   0.077   0.079   0.091   0.151   0.153
  3 B3u   2 B2u   2 B1u   1 B2g   2 B1g   4 Ag    2 B2g   5 Ag                 
  0.210   0.217   0.237   0.243   0.246   0.294   0.306   0.321
  4 B3u   3 B2u   6 Ag    3 B1g   3 B1u   5 B3u   4 B2u   3 B2g                
  0.456   0.457   0.464   0.619   0.638   0.649   0.661   0.666
  6 B3u   7 Ag    4 B1g   8 Ag    5 B2u   6 B2u   7 B3u   9 Ag                 
  0.666   0.675   0.739   0.751   0.804   0.828   0.851   0.904
  1 B3g   8 B3u   4 B1u   5 B1g   4 B2g   1 Au    9 B3u   5 B1u                
  0.981   1.009   1.042   1.058   1.188   1.203   1.254   1.358
  6 B1g  10 Ag    7 B1g   7 B2u   6 B1u   5 B2g   2 B3g  10 B3u                
  1.360   1.402   1.469   1.495   1.500   1.537   1.635   1.651
 11 Ag    6 B2g   8 B2u   9 B2u  11 B3u  12 Ag    2 Au   12 B3u                
  1.708   1.833   1.867   1.983   2.298   2.583   2.633   2.679
  8 B1g  13 B3u  13 Ag    9 B1g  14 Ag    7 B1u  15 Ag    7 B2g                
  2.709   2.768   2.798   2.838   2.880   2.915   3.070   3.102
 10 B2u   8 B1u  11 B2u  14 B3u  10 B1g   3 B3g  11 B1g   9 B1u                
  3.105   3.136   3.152   3.155   3.185   3.261   3.323   3.340
  4 B3g  12 B2u   3 Au   16 Ag   17 Ag    8 B2g  15 B3u  13 B2u                
  3.414   3.426   3.441   3.481   3.500   3.550   3.598   3.641
  9 B2g   4 Au   16 B3u  17 B3u  12 B1g  10 B1u  18 Ag    5 B3g                
  3.743   3.815   3.899   3.962   3.977   3.981   4.014   4.037
 14 B2u  13 B1g  18 B3u  14 B1g   5 Au   10 B2g  15 B2u  19 Ag                 
  4.061   4.189   4.193   4.202   4.211   4.331   4.351   4.491
 11 B1u  19 B3u  15 B1g   6 B3g  20 Ag   12 B1u  11 B2g  16 B2u                
  4.534   4.606   4.686   4.766   4.813   4.939   4.975   5.055
 20 B3u   6 Au   21 Ag   21 B3u  12 B2g  13 B1u  22 Ag   16 B1g                
  5.152   5.216   5.306   5.309   5.426   5.470   5.543   5.563
 17 B2u   7 B3g  22 B3u  23 Ag    7 Au   17 B1g  13 B2g  24 Ag                 
  5.673   6.012   6.108   6.307   6.595   6.875  12.101  14.805
 18 B2u  23 B3u  18 B1g  19 B2u  24 B3u  19 B1g  25 Ag   25 B3u                
 
 Beta MOs, Restricted
 -- Occupied --                  
-11.228 -11.226  -1.040  -0.781  -0.661  -0.568  -0.516  -0.377
  1 Ag    1 B3u   2 Ag    2 B3u   1 B2u   3 Ag    1 B1g   1 B1u                
 -- Virtual --                   
  0.055   0.057   0.065   0.077   0.079   0.091   0.151   0.153
  3 B3u   2 B2u   2 B1u   1 B2g   2 B1g   4 Ag    2 B2g   5 Ag                 
  0.210   0.217   0.237   0.243   0.246   0.294   0.306   0.321
  4 B3u   3 B2u   6 Ag    3 B1g   3 B1u   5 B3u   4 B2u   3 B2g                
  0.456   0.457   0.464   0.619   0.638   0.649   0.661   0.666
  6 B3u   7 Ag    4 B1g   8 Ag    5 B2u   6 B2u   7 B3u   9 Ag                 
  0.666   0.675   0.739   0.751   0.804   0.828   0.851   0.904
  1 B3g   8 B3u   4 B1u   5 B1g   4 B2g   1 Au    9 B3u   5 B1u                
  0.981   1.009   1.042   1.058   1.188   1.203   1.254   1.358
  6 B1g  10 Ag    7 B1g   7 B2u   6 B1u   5 B2g   2 B3g  10 B3u                
  1.360   1.402   1.469   1.495   1.500   1.537   1.635   1.651
 11 Ag    6 B2g   8 B2u   9 B2u  11 B3u  12 Ag    2 Au   12 B3u                
  1.708   1.833   1.867   1.983   2.298   2.583   2.633   2.679
  8 B1g  13 B3u  13 Ag    9 B1g  14 Ag    7 B1u  15 Ag    7 B2g                
  2.709   2.768   2.798   2.838   2.880   2.915   3.070   3.102
 10 B2u   8 B1u  11 B2u  14 B3u  10 B1g   3 B3g  11 B1g   9 B1u                
  3.105   3.136   3.152   3.155   3.185   3.261   3.323   3.340
  4 B3g  12 B2u   3 Au   16 Ag   17 Ag    8 B2g  15 B3u  13 B2u                
  3.414   3.426   3.441   3.481   3.500   3.550   3.598   3.641
  9 B2g   4 Au   16 B3u  17 B3u  12 B1g  10 B1u  18 Ag    5 B3g                
  3.743   3.815   3.899   3.962   3.977   3.981   4.014   4.037
 14 B2u  13 B1g  18 B3u  14 B1g   5 Au   10 B2g  15 B2u  19 Ag                 
  4.061   4.189   4.193   4.202   4.211   4.331   4.351   4.491
 11 B1u  19 B3u  15 B1g   6 B3g  20 Ag   12 B1u  11 B2g  16 B2u                
  4.534   4.606   4.686   4.766   4.813   4.939   4.975   5.055
 20 B3u   6 Au   21 Ag   21 B3u  12 B2g  13 B1u  22 Ag   16 B1g                
  5.152   5.216   5.306   5.309   5.426   5.470   5.543   5.563
 17 B2u   7 B3g  22 B3u  23 Ag    7 Au   17 B1g  13 B2g  24 Ag                 
  5.673   6.012   6.108   6.307   6.595   6.875  12.101  14.805
 18 B2u  23 B3u  18 B1g  19 B2u  24 B3u  19 B1g  25 Ag   25 B3u                

--------------------------------------------------------------------------------
                                   HF Summary                                   
--------------------------------------------------------------------------------
  Energy:                                                  -78.0596759879 a.u.
  Dip. moment [a.u.]:                  [   0.000000,   -0.000000,   -0.000000]
  Total dipole [Debye]:                                               0.000001
  <r^2> [a.u.]:                        [  47.675337,   22.101079,   11.968372]
  Total <r^2> [a.u.]:                                                81.744788
--------------------------------------------------------------------------------

--------------------------------------------------------------------------------
                                 MP(2) Summary                                  
--------------------------------------------------------------------------------
  MP energy contribution:                                   -0.3673740530 a.u.
  Total energy:                                            -78.4270500410 a.u.
  Dip. moment [a.u.]:                  [  -0.000000,   -0.000000,   -0.000000]
  Total dipole [Debye]:                                               0.000001
  <r^2> [a.u.]:                        [  47.645074,   21.992992,   11.730269]
  Total <r^2> [a.u.]:                                                81.368336

  Density matrix analysis:
  ------------------------
  NOs (alpha)
    Occupation of frontier NOs:
       0.0226   0.9661
    Number of electrons:  8.000000
  NOs (beta)
    Occupation of frontier NOs:
       0.0226   0.9661
    Number of electrons:  8.000000
  NOs (spin-traced)
    Occupation of frontier NOs:
       0.0452   1.9322
    Number of electrons: 16.000000
    Number of unpaired electrons: n_u =  0.45285, n_u,nl =  0.05291
    NO participation ratio (PR_NO): 14.824743
  
  
  Mulliken Population Analysis
  Atom  Charge (e)    Spin (e)  h+ (alpha)   h+ (beta)  e- (alpha)   e- (beta)
  ----------------------------------------------------------------------------
   1 C   -0.298663    0.000000    0.043880    0.043880   -0.060346   -0.060346
   2 C   -0.298663   -0.000000    0.043880    0.043880   -0.060346   -0.060346
   3 H    0.149316    0.000000    0.012974    0.012974   -0.004740   -0.004740
   4 H    0.149369   -0.000000    0.012973    0.012973   -0.004741   -0.004741
   5 H    0.149346   -0.000000    0.012973    0.012973   -0.004741   -0.004741
   6 H    0.149294   -0.000000    0.012974    0.012974   -0.004740   -0.004740
  ----------------------------------------------------------------------------
  Sum:    0.000000   -0.000000    0.139653    0.139653   -0.139653   -0.139653
  
  Multipole moment analysis of the density matrix
    Molecular charge:                      -0.000000
    Number of electrons:                   16.000000
      Center of electronic charge [Ang]: [  0.000000,   0.000000,   0.000000]
    Total nuclear charge:                  16.000000
      Center of nuclear charge [Ang]:    [  0.000000,   0.000000,   0.000000]
    Dipole moment [D]:                     0.000001
      Cartesian components [D]:          [ -0.000000,  -0.000001,  -0.000000]
    RMS size of the density [Ang]:         1.193353
      Cartesian components [Ang]:        [  0.913167,   0.620416,   0.453101]
  
  Exciton analysis of the difference density matrix
  Total:
    <r_h> [Ang]:                  [ -0.000000,   0.000000,  -0.000000]
    <r_e> [Ang]:                  [  0.000000,   0.000000,   0.000000]
    |<r_e - r_h>| [Ang]:            0.000000
    Hole size [Ang]:                1.446125
      Cartesian components [Ang]: [  0.970845,   0.749357,   0.766291]
    Electron size [Ang]:            1.309142
      Cartesian components [Ang]: [  0.955091,   0.673178,   0.590326]
  
  Alpha spin:
    <r_h> [Ang]:                  [ -0.000000,   0.000000,  -0.000000]
    <r_e> [Ang]:                  [  0.000000,   0.000000,   0.000000]
    |<r_e - r_h>| [Ang]:            0.000000
    Hole size [Ang]:                1.446125
      Cartesian components [Ang]: [  0.970845,   0.749357,   0.766291]
    Electron size [Ang]:            1.309142
      Cartesian components [Ang]: [  0.955091,   0.673178,   0.590326]
  
  Beta spin:
    <r_h> [Ang]:                  [ -0.000000,   0.000000,  -0.000000]
    <r_e> [Ang]:                  [  0.000000,   0.000000,   0.000000]
    |<r_e - r_h>| [Ang]:            0.000000
    Hole size [Ang]:                1.446125
      Cartesian components [Ang]: [  0.970845,   0.749357,   0.766291]
    Electron size [Ang]:            1.309142
      Cartesian components [Ang]: [  0.955091,   0.673178,   0.590326]
--------------------------------------------------------------------------------
Less particle guess vectors found than requested: 13 (found), 100 (requested).
Adjusting number of hole-2particle guess vectors to 87.
  Starting Davidson for electron-attached states of irrep B2g ... 
--------------------------------------------------------------------------------
   It NVec Conv  Avg. Norm  Max. Norm  Conv. states           Remark
--------------------------------------------------------------------------------
       100    0  5.202e-02  3.601e-01  0.0776 n n n n n n n n Guess.
    1  110    4  8.278e-04  5.561e-03  0.0636 n n n y y n n y 
    2  120   10  5.989e-07  4.212e-06  0.0636 y y y y y y y y Converged.
--------------------------------------------------------------------------------
  Davidson Summary: 
 ------------------------------------------------------------
  State  0: electron attachment energy =   0.0636 a.u.   (converged)
  State  1: electron attachment energy =   0.1064 a.u.   (converged)
  State  2: electron attachment energy =   0.2835 a.u.   (converged)
  State  3: electron attachment energy =   0.5129 a.u.   (converged)
  State  4: electron attachment energy =   0.5129 a.u.   (converged)
  State  5: electron attachment energy =   0.5191 a.u.   (converged)
  State  6: electron attachment energy =   0.5192 a.u.   (converged)
  State  7: electron attachment energy =   0.5233 a.u.   (converged)
  State  8: electron attachment energy =   0.5234 a.u.   (converged)
  State  9: electron attachment energy =   0.5853 a.u.   (converged)
 ------------------------------------------------------------


--------------------------------------------------------------------------------
                        Electron-Attached State Summary
--------------------------------------------------------------------------------

  Electron-attached state 1 (B2g)                                  [converged]
  ----------------------------------------------------------------------------
  Term symbol:  1 (2) B2g                                   R^2 =  3.53072e-06

  Total energy:                                            -78.3634113553 a.u.
  Electron attachment energy:                                      1.731697 eV

  Pole strength:                                                      0.967053

  Dip. moment [a.u.]:                  [  -0.000000,   -0.000000,   -0.000000]
  Total dipole [Debye]:                                               0.000001
  <r^2> [a.u.]:                        [  67.879162,   28.986439,   30.649312]
  Total <r^2> [a.u.]:                                               127.514913

  V1^2 = 0.9746, V2^2 = 0.0254

  Important amplitudes:
       occ i       vir a        vir b           v   
    -------------------------------------------------
                               1 (B2g) B      0.9067
                               2 (B2g) B     -0.3776
    -------------------------------------------------

  Density matrix analysis:
  ------------------------
  NOs (alpha)
    Occupation of frontier NOs:
       0.0200   0.9642
    Number of electrons:  8.000000
  NOs (beta)
    Occupation of frontier NOs:
       0.0249   0.9697
    Number of electrons:  9.000000
  NOs (spin-traced)
    Occupation of frontier NOs:
       0.0379   0.9886
    Number of electrons: 17.000000
    Number of unpaired electrons: n_u =  1.46881, n_u,nl =  1.05432
    NO participation ratio (PR_NO):  2.175898
  
  
  Mulliken Population Analysis
  Atom  Charge (e)    Spin (e)  h+ (alpha)   h+ (beta)  e- (alpha)   e- (beta)
  ----------------------------------------------------------------------------
   1 C   -0.736310    0.523585    0.053952    0.043470   -0.010983   -0.524086
   2 C   -0.736310    0.523585    0.053952    0.043470   -0.010983   -0.524086
   3 H    0.118140   -0.011793    0.000504    0.005502   -0.021989   -0.015193
   4 H    0.118191   -0.011792    0.000504    0.005501   -0.021989   -0.015194
   5 H    0.118169   -0.011792    0.000504    0.005501   -0.021988   -0.015194
   6 H    0.118119   -0.011793    0.000504    0.005502   -0.021989   -0.015193
  ----------------------------------------------------------------------------
  Sum:   -1.000000    1.000000    0.109921    0.108945   -0.109921   -1.108945
  
  Multipole moment analysis of the density matrix
    Molecular charge:                      -1.000000
    Number of electrons:                   17.000000
      Center of electronic charge [Ang]: [  0.000000,   0.000000,   0.000000]
    Total nuclear charge:                  16.000000
      Center of nuclear charge [Ang]:    [  0.000000,   0.000000,   0.000000]
    Dipole moment [D]:                     0.000001
      Cartesian components [D]:          [ -0.000000,  -0.000001,  -0.000000]
    RMS size of the density [Ang]:         1.449296
      Cartesian components [Ang]:        [  1.057414,   0.690994,   0.710538]
  
  Exciton analysis of the difference density matrix
  Total:
    <r_h> [Ang]:                  [  0.000000,   0.000000,   0.000000]
    <r_e> [Ang]:                  [ -0.000000,   0.000000,   0.000000]
    |<r_e - r_h>| [Ang]:            0.000000
    Hole size [Ang]:                1.507377
      Cartesian components [Ang]: [  1.044415,   0.763702,   0.773396]
    Electron size [Ang]:            3.318125
      Cartesian components [Ang]: [  2.201034,   1.308220,   2.110441]
  
  Alpha spin:
    <r_h> [Ang]:                  [  0.000000,   0.000000,   0.000000]
    <r_e> [Ang]:                  [ -0.000000,  -0.000000,   0.000000]
    |<r_e - r_h>| [Ang]:            0.000000
    Hole size [Ang]:                1.419826
      Cartesian components [Ang]: [  1.012293,   0.726467,   0.680747]
    Electron size [Ang]:            2.168868
      Cartesian components [Ang]: [  1.408843,   1.272295,   1.049007]
  
  Beta spin:
    <r_h> [Ang]:                  [  0.000000,   0.000000,   0.000000]
    <r_e> [Ang]:                  [  0.000000,   0.000000,   0.000000]
    |<r_e - r_h>| [Ang]:            0.000000
    Hole size [Ang]:                1.590836
      Cartesian components [Ang]: [  1.075853,   0.799516,   0.856781]
    Electron size [Ang]:            3.411014
      Cartesian components [Ang]: [  2.264512,   1.311728,   2.187778]
  ----------------------------------------------------------------------------


  Electron-attached state 2 (B2g)                                  [converged]
  ----------------------------------------------------------------------------
  Term symbol:  2 (2) B2g                                   R^2 =  4.21169e-06

  Total energy:                                            -78.3206640806 a.u.
  Electron attachment energy:                                      2.894909 eV

  Pole strength:                                                      0.957986

  Dip. moment [a.u.]:                  [  -0.000000,   -0.000000,    0.000000]
  Total dipole [Debye]:                                               0.000001
  <r^2> [a.u.]:                        [  71.658882,   30.391691,   34.391181]
  Total <r^2> [a.u.]:                                               136.441755

  V1^2 = 0.9670, V2^2 = 0.0330

  Important amplitudes:
       occ i       vir a        vir b           v   
    -------------------------------------------------
                               2 (B2g) B      0.8780
                               1 (B2g) B      0.4131
    -------------------------------------------------

  Density matrix analysis:
  ------------------------
  NOs (alpha)
    Occupation of frontier NOs:
       0.0206   0.9623
    Number of electrons:  8.000000
  NOs (beta)
    Occupation of frontier NOs:
       0.0260   0.9716
    Number of electrons:  9.000000
  NOs (spin-traced)
    Occupation of frontier NOs:
       0.0377   0.9856
    Number of electrons: 17.000000
    Number of unpaired electrons: n_u =  1.47628, n_u,nl =  1.05604
    NO participation ratio (PR_NO):  2.210086
  
  
  Mulliken Population Analysis
  Atom  Charge (e)    Spin (e)  h+ (alpha)   h+ (beta)  e- (alpha)   e- (beta)
  ----------------------------------------------------------------------------
   1 C   -0.706914    0.506802    0.070314    0.050051   -0.021038   -0.507578
   2 C   -0.706914    0.506802    0.070314    0.050051   -0.021038   -0.507578
   3 H    0.103443   -0.003402    0.001196    0.004006   -0.025834   -0.025242
   4 H    0.103493   -0.003400    0.001196    0.004005   -0.025834   -0.025243
   5 H    0.103471   -0.003400    0.001196    0.004005   -0.025834   -0.025243
   6 H    0.103422   -0.003402    0.001197    0.004006   -0.025834   -0.025241
  ----------------------------------------------------------------------------
  Sum:   -1.000000    1.000000    0.145413    0.116124   -0.145413   -1.116124
  
  Multipole moment analysis of the density matrix
    Molecular charge:                      -1.000000
    Number of electrons:                   17.000000
      Center of electronic charge [Ang]: [  0.000000,   0.000000,  -0.000000]
    Total nuclear charge:                  16.000000
      Center of nuclear charge [Ang]:    [  0.000000,   0.000000,   0.000000]
    Dipole moment [D]:                     0.000001
      Cartesian components [D]:          [ -0.000000,  -0.000001,   0.000000]
    RMS size of the density [Ang]:         1.499168
      Cartesian components [Ang]:        [  1.086455,   0.707545,   0.752662]
  
  Exciton analysis of the difference density matrix
  Total:
    <r_h> [Ang]:                  [ -0.000000,   0.000000,   0.000000]
    <r_e> [Ang]:                  [ -0.000000,   0.000000,  -0.000000]
    |<r_e - r_h>| [Ang]:            0.000000
    Hole size [Ang]:                1.341449
      Cartesian components [Ang]: [  0.977426,   0.686383,   0.610739]
    Electron size [Ang]:            3.549357
      Cartesian components [Ang]: [  2.351277,   1.400702,   2.259970]
  
  Alpha spin:
    <r_h> [Ang]:                  [ -0.000000,   0.000000,   0.000000]
    <r_e> [Ang]:                  [ -0.000000,  -0.000000,   0.000000]
    |<r_e - r_h>| [Ang]:            0.000000
    Hole size [Ang]:                1.348780
      Cartesian components [Ang]: [  0.976040,   0.676229,   0.639740]
    Electron size [Ang]:            2.137075
      Cartesian components [Ang]: [  1.402138,   1.233224,   1.039355]
  
  Beta spin:
    <r_h> [Ang]:                  [ -0.000000,   0.000000,   0.000000]
    <r_e> [Ang]:                  [  0.000000,   0.000000,  -0.000000]
    |<r_e - r_h>| [Ang]:            0.000000
    Hole size [Ang]:                1.332212
      Cartesian components [Ang]: [  0.979158,   0.698890,   0.572355]
    Electron size [Ang]:            3.693809
      Cartesian components [Ang]: [  2.447988,   1.421069,   2.373214]
  ----------------------------------------------------------------------------


  Electron-attached state 3 (B2g)                                  [converged]
  ----------------------------------------------------------------------------
  Term symbol:  3 (2) B2g                                   R^2 =  2.37914e-06

  Total energy:                                            -78.1435079095 a.u.
  Electron attachment energy:                                      7.715574 eV

  Pole strength:                                                      0.965529

  Dip. moment [a.u.]:                  [   0.000000,   -0.000001,    0.000000]
  Total dipole [Debye]:                                               0.000001
  <r^2> [a.u.]:                        [  66.970331,   28.793046,   30.441925]
  Total <r^2> [a.u.]:                                               126.205302

  V1^2 = 0.9685, V2^2 = 0.0315

  Important amplitudes:
       occ i       vir a        vir b           v   
    -------------------------------------------------
                               3 (B2g) B      0.9564
                               2 (B2g) B      0.2156
    -------------------------------------------------

  Density matrix analysis:
  ------------------------
  NOs (alpha)
    Occupation of frontier NOs:
       0.0277   0.9547
    Number of electrons:  8.000000
  NOs (beta)
    Occupation of frontier NOs:
       0.0329   0.9670
    Number of electrons:  9.000000
  NOs (spin-traced)
    Occupation of frontier NOs:
       0.0573   0.9754
    Number of electrons: 17.000000
    Number of unpaired electrons: n_u =  1.50266, n_u,nl =  1.06922
    NO participation ratio (PR_NO):  2.328169
  
  
  Mulliken Population Analysis
  Atom  Charge (e)    Spin (e)  h+ (alpha)   h+ (beta)  e- (alpha)   e- (beta)
  ----------------------------------------------------------------------------
   1 C   -0.722108    0.503113    0.048689    0.036369   -0.008855   -0.499648
   2 C   -0.722108    0.503113    0.048689    0.036369   -0.008855   -0.499648
   3 H    0.111039   -0.001557   -0.001141   -0.001418   -0.018776   -0.016942
   4 H    0.111091   -0.001556   -0.001141   -0.001419   -0.018776   -0.016942
   5 H    0.111069   -0.001556   -0.001141   -0.001419   -0.018776   -0.016942
   6 H    0.111018   -0.001557   -0.001141   -0.001418   -0.018776   -0.016942
  ----------------------------------------------------------------------------
  Sum:   -1.000000    1.000000    0.092815    0.067063   -0.092815   -1.067063
  
  Multipole moment analysis of the density matrix
    Molecular charge:                      -1.000000
    Number of electrons:                   17.000000
      Center of electronic charge [Ang]: [ -0.000000,   0.000000,  -0.000000]
    Total nuclear charge:                  16.000000
      Center of nuclear charge [Ang]:    [  0.000000,   0.000000,   0.000000]
    Dipole moment [D]:                     0.000001
      Cartesian components [D]:          [  0.000000,  -0.000001,   0.000000]
    RMS size of the density [Ang]:         1.441835
      Cartesian components [Ang]:        [  1.050311,   0.688685,   0.708130]
  
  Exciton analysis of the difference density matrix
  Total:
    <r_h> [Ang]:                  [  0.000000,   0.000000,   0.000000]
    <r_e> [Ang]:                  [ -0.000000,   0.000000,  -0.000000]
    |<r_e - r_h>| [Ang]:            0.000000
    Hole size [Ang]:                1.350149
      Cartesian components [Ang]: [  0.973434,   0.711331,   0.607729]
    Electron size [Ang]:            3.328097
      Cartesian components [Ang]: [  2.190045,   1.308235,   2.137394]
  
  Alpha spin:
    <r_h> [Ang]:                  [  0.000000,   0.000000,   0.000000]
    <r_e> [Ang]:                  [ -0.000000,  -0.000000,   0.000000]
    |<r_e - r_h>| [Ang]:            0.000000
    Hole size [Ang]:                1.272902
      Cartesian components [Ang]: [  0.932367,   0.649471,   0.573722]
    Electron size [Ang]:            2.094124
      Cartesian components [Ang]: [  1.380963,   1.225099,   0.988650]
  
  Beta spin:
    <r_h> [Ang]:                  [ -0.000000,   0.000000,   0.000000]
    <r_e> [Ang]:                  [ -0.000000,   0.000000,  -0.000000]
    |<r_e - r_h>| [Ang]:            0.000000
    Hole size [Ang]:                1.450287
      Cartesian components [Ang]: [  1.027567,   0.788985,   0.651875]
    Electron size [Ang]:            3.414413
      Cartesian components [Ang]: [  2.246689,   1.315218,   2.209255]
  ----------------------------------------------------------------------------


  Electron-attached state 4 (B2g)                                  [converged]
  ----------------------------------------------------------------------------
  Term symbol:  4 (2) B2g                                   R^2 =  2.66019e-10

  Total energy:                                            -77.9141944286 a.u.
  Electron attachment energy:                                     13.955511 eV

  Pole strength:                                                      0.000000

  Dip. moment [a.u.]:                  [  -0.000000,    0.000000,   -0.000000]
  Total dipole [Debye]:                                               0.000001
  <r^2> [a.u.]:                        [  98.212390,   98.852222,   34.241356]
  Total <r^2> [a.u.]:                                               231.305968

  V1^2 = 0.0000, V2^2 = 1.0000

  Important amplitudes:
       occ i       vir a        vir b           v   
    -------------------------------------------------
     1 (B1u) A    2 (B1g) A    2 (B2u) B      0.5338
     1 (B1u) B    2 (B1g) B    2 (B2u) B      0.4574
    -------------------------------------------------

  Density matrix analysis:
  ------------------------
  NOs (alpha)
    Occupation of frontier NOs:
       0.3855   0.5701
    Number of electrons:  8.000000
  NOs (beta)
    Occupation of frontier NOs:
       0.4304   0.5481
    Number of electrons:  9.000000
  NOs (spin-traced)
    Occupation of frontier NOs:
       0.9335   1.0004
    Number of electrons: 17.000000
    Number of unpaired electrons: n_u =  3.31471, n_u,nl =  3.02673
    NO participation ratio (PR_NO):  3.817493
  
  
  Mulliken Population Analysis
  Atom  Charge (e)    Spin (e)  h+ (alpha)   h+ (beta)  e- (alpha)   e- (beta)
  ----------------------------------------------------------------------------
   1 C   -0.614279    0.466808    0.283960    0.204345   -0.208365   -0.595557
   2 C   -0.614279    0.466808    0.283960    0.204345   -0.208365   -0.595557
   3 H    0.057125    0.016596    0.003400    0.002447   -0.041198   -0.056841
   4 H    0.057177    0.016596    0.003400    0.002447   -0.041198   -0.056841
   5 H    0.057154    0.016596    0.003400    0.002447   -0.041198   -0.056841
   6 H    0.057103    0.016596    0.003400    0.002447   -0.041198   -0.056841
  ----------------------------------------------------------------------------
  Sum:   -1.000000    1.000000    0.581522    0.418477   -0.581522   -1.418477
  
  Multipole moment analysis of the density matrix
    Molecular charge:                      -1.000000
    Number of electrons:                   17.000000
      Center of electronic charge [Ang]: [  0.000000,   0.000000,   0.000000]
    Total nuclear charge:                  16.000000
      Center of nuclear charge [Ang]:    [  0.000000,   0.000000,   0.000000]
    Dipole moment [D]:                     0.000001
      Cartesian components [D]:          [ -0.000000,   0.000001,  -0.000000]
    RMS size of the density [Ang]:         1.951956
      Cartesian components [Ang]:        [  1.271920,   1.276056,   0.751021]
  
  Exciton analysis of the difference density matrix
  Total:
    <r_h> [Ang]:                  [ -0.000000,   0.000000,  -0.000000]
    <r_e> [Ang]:                  [ -0.000000,  -0.000000,   0.000000]
    |<r_e - r_h>| [Ang]:            0.000000
    Hole size [Ang]:                1.247829
      Cartesian components [Ang]: [  0.742733,   0.514312,   0.860761]
    Electron size [Ang]:            4.666042
      Cartesian components [Ang]: [  2.712190,   3.300553,   1.876787]
  
  Alpha spin:
    <r_h> [Ang]:                  [ -0.000000,   0.000000,  -0.000000]
    <r_e> [Ang]:                  [  0.000000,  -0.000000,   0.000000]
    |<r_e - r_h>| [Ang]:            0.000000
    Hole size [Ang]:                1.247829
      Cartesian components [Ang]: [  0.742733,   0.514312,   0.860761]
    Electron size [Ang]:            4.933503
      Cartesian components [Ang]: [  3.242460,   3.238072,   1.827785]
  
  Beta spin:
    <r_h> [Ang]:                  [ -0.000000,   0.000000,  -0.000000]
    <r_e> [Ang]:                  [ -0.000000,  -0.000000,  -0.000000]
    |<r_e - r_h>| [Ang]:            0.000000
    Hole size [Ang]:                1.247829
      Cartesian components [Ang]: [  0.742733,   0.514312,   0.860761]
    Electron size [Ang]:            4.551853
      Cartesian components [Ang]: [  2.462009,   3.325828,   1.896510]
  ----------------------------------------------------------------------------


  Electron-attached state 5 (B2g)                                  [converged]
  ----------------------------------------------------------------------------
  Term symbol:  5 (2) B2g                                   R^2 =  4.87103e-10

  Total energy:                                            -77.9141939168 a.u.
  Electron attachment energy:                                     13.955525 eV

  Pole strength:                                                      0.000002

  Dip. moment [a.u.]:                  [  -0.000000,    0.000000,   -0.000000]
  Total dipole [Debye]:                                               0.000001
  <r^2> [a.u.]:                        [  98.212459,   98.852139,   34.241521]
  Total <r^2> [a.u.]:                                               231.306119

  V1^2 = 0.0000, V2^2 = 1.0000

  Important amplitudes:
       occ i       vir a        vir b           v   
    -------------------------------------------------
     1 (B1u) A    2 (B2u) A    2 (B1g) B     -0.5723
     1 (B1u) B    2 (B1g) B    2 (B2u) B      0.3523
    -------------------------------------------------

  Density matrix analysis:
  ------------------------
  NOs (alpha)
    Occupation of frontier NOs:
       0.2165   0.6554
    Number of electrons:  8.000000
  NOs (beta)
    Occupation of frontier NOs:
       0.3454   0.7181
    Number of electrons:  9.000000
  NOs (spin-traced)
    Occupation of frontier NOs:
       0.9335   1.0004
    Number of electrons: 17.000000
    Number of unpaired electrons: n_u =  3.31473, n_u,nl =  3.02674
    NO participation ratio (PR_NO):  3.817508
  
  
  Mulliken Population Analysis
  Atom  Charge (e)    Spin (e)  h+ (alpha)   h+ (beta)  e- (alpha)   e- (beta)
  ----------------------------------------------------------------------------
   1 C   -0.614275    0.394676    0.367112    0.121192   -0.327580   -0.476337
   2 C   -0.614275    0.394676    0.367112    0.121192   -0.327580   -0.476337
   3 H    0.057123    0.052662    0.004396    0.001451   -0.024162   -0.073879
   4 H    0.057175    0.052662    0.004396    0.001451   -0.024162   -0.073879
   5 H    0.057152    0.052662    0.004396    0.001451   -0.024162   -0.073879
   6 H    0.057101    0.052662    0.004396    0.001451   -0.024162   -0.073879
  ----------------------------------------------------------------------------
  Sum:   -1.000000    1.000000    0.751808    0.248190   -0.751808   -1.248190
  
  Multipole moment analysis of the density matrix
    Molecular charge:                      -1.000000
    Number of electrons:                   17.000000
      Center of electronic charge [Ang]: [  0.000000,   0.000000,   0.000000]
    Total nuclear charge:                  16.000000
      Center of nuclear charge [Ang]:    [  0.000000,   0.000000,   0.000000]
    Dipole moment [D]:                     0.000001
      Cartesian components [D]:          [ -0.000000,   0.000001,  -0.000000]
    RMS size of the density [Ang]:         1.951957
      Cartesian components [Ang]:        [  1.271920,   1.276056,   0.751023]
  
  Exciton analysis of the difference density matrix
  Total:
    <r_h> [Ang]:                  [ -0.000000,   0.000000,  -0.000000]
    <r_e> [Ang]:                  [ -0.000000,  -0.000000,  -0.000000]
    |<r_e - r_h>| [Ang]:            0.000000
    Hole size [Ang]:                1.247828
      Cartesian components [Ang]: [  0.742733,   0.514311,   0.860760]
    Electron size [Ang]:            4.666046
      Cartesian components [Ang]: [  2.712192,   3.300552,   1.876793]
  
  Alpha spin:
    <r_h> [Ang]:                  [ -0.000000,   0.000000,  -0.000000]
    <r_e> [Ang]:                  [ -0.000000,  -0.000000,  -0.000000]
    |<r_e - r_h>| [Ang]:            0.000000
    Hole size [Ang]:                1.247829
      Cartesian components [Ang]: [  0.742733,   0.514312,   0.860761]
    Electron size [Ang]:            4.448152
      Cartesian components [Ang]: [  2.216671,   3.348085,   1.913833]
  
  Beta spin:
    <r_h> [Ang]:                  [ -0.000000,   0.000000,  -0.000000]
    <r_e> [Ang]:                  [  0.000000,  -0.000000,  -0.000000]
    |<r_e - r_h>| [Ang]:            0.000000
    Hole size [Ang]:                1.247825
      Cartesian components [Ang]: [  0.742732,   0.514310,   0.860757]
    Electron size [Ang]:            4.792509
      Cartesian components [Ang]: [  2.971038,   3.271589,   1.854126]
  ----------------------------------------------------------------------------


  Electron-attached state 6 (B2g)                                  [converged]
  ----------------------------------------------------------------------------
  Term symbol:  6 (2) B2g                                   R^2 =  1.32534e-08

  Total energy:                                            -77.9079036009 a.u.
  Electron attachment energy:                                     14.126693 eV

  Pole strength:                                                      0.000354

  Dip. moment [a.u.]:                  [  -0.000000,   -0.000000,   -0.000000]
  Total dipole [Debye]:                                               0.000001
  <r^2> [a.u.]:                        [  91.236767,   44.853934,   80.468787]
  Total <r^2> [a.u.]:                                               216.559488

  V1^2 = 0.0004, V2^2 = 0.9996

  Important amplitudes:
       occ i       vir a        vir b           v   
    -------------------------------------------------
     1 (B1u) A    2 (B1u) A    1 (B2g) B     -0.5589
     1 (B1u) B    1 (B2g) B    2 (B1u) B      0.4043
    -------------------------------------------------

  Density matrix analysis:
  ------------------------
  NOs (alpha)
    Occupation of frontier NOs:
       0.2942   0.6258
    Number of electrons:  8.000000
  NOs (beta)
    Occupation of frontier NOs:
       0.3749   0.6398
    Number of electrons:  9.000000
  NOs (spin-traced)
    Occupation of frontier NOs:
       0.9270   1.0029
    Number of electrons: 17.000000
    Number of unpaired electrons: n_u =  3.29658, n_u,nl =  3.02390
    NO participation ratio (PR_NO):  3.816310
  
  
  Mulliken Population Analysis
  Atom  Charge (e)    Spin (e)  h+ (alpha)   h+ (beta)  e- (alpha)   e- (beta)
  ----------------------------------------------------------------------------
   1 C   -0.808497    0.494539    0.328686    0.159814   -0.336334   -0.662000
   2 C   -0.808497    0.494539    0.328686    0.159814   -0.336334   -0.662000
   3 H    0.154234    0.002731    0.003933    0.001917   -0.000109   -0.000824
   4 H    0.154286    0.002731    0.003933    0.001917   -0.000109   -0.000824
   5 H    0.154264    0.002731    0.003933    0.001917   -0.000109   -0.000824
   6 H    0.154211    0.002731    0.003933    0.001917   -0.000109   -0.000824
  ----------------------------------------------------------------------------
  Sum:   -1.000000    1.000000    0.673105    0.327296   -0.673105   -1.327296
  
  Multipole moment analysis of the density matrix
    Molecular charge:                      -1.000000
    Number of electrons:                   17.000000
      Center of electronic charge [Ang]: [  0.000000,   0.000000,   0.000000]
    Total nuclear charge:                  16.000000
      Center of nuclear charge [Ang]:    [  0.000000,   0.000000,   0.000000]
    Dipole moment [D]:                     0.000001
      Cartesian components [D]:          [ -0.000000,  -0.000001,  -0.000000]
    RMS size of the density [Ang]:         1.888710
      Cartesian components [Ang]:        [  1.225919,   0.859561,   1.151305]
  
  Exciton analysis of the difference density matrix
  Total:
    <r_h> [Ang]:                  [ -0.000000,   0.000000,  -0.000000]
    <r_e> [Ang]:                  [ -0.000000,   0.000000,   0.000000]
    |<r_e - r_h>| [Ang]:            0.000000
    Hole size [Ang]:                1.251312
      Cartesian components [Ang]: [  0.744148,   0.516099,   0.863520]
    Electron size [Ang]:            4.439363
      Cartesian components [Ang]: [  2.525702,   1.825766,   3.161543]
  
  Alpha spin:
    <r_h> [Ang]:                  [ -0.000000,   0.000000,  -0.000000]
    <r_e> [Ang]:                  [  0.000000,   0.000000,   0.000000]
    |<r_e - r_h>| [Ang]:            0.000000
    Hole size [Ang]:                1.250988
      Cartesian components [Ang]: [  0.744003,   0.515910,   0.863289]
    Electron size [Ang]:            4.388754
      Cartesian components [Ang]: [  2.076040,   1.933353,   3.348636]
  
  Beta spin:
    <r_h> [Ang]:                  [ -0.000000,   0.000000,  -0.000000]
    <r_e> [Ang]:                  [ -0.000000,   0.000000,   0.000000]
    |<r_e - r_h>| [Ang]:            0.000000
    Hole size [Ang]:                1.251979
      Cartesian components [Ang]: [  0.744447,   0.516487,   0.863997]
    Electron size [Ang]:            4.464809
      Cartesian components [Ang]: [  2.725532,   1.768707,   3.062298]
  ----------------------------------------------------------------------------


  Electron-attached state 7 (B2g)                                  [converged]
  ----------------------------------------------------------------------------
  Term symbol:  7 (2) B2g                                   R^2 =  7.99051e-09

  Total energy:                                            -77.9078589376 a.u.
  Electron attachment energy:                                     14.127908 eV

  Pole strength:                                                      0.000726

  Dip. moment [a.u.]:                  [  -0.000000,   -0.000000,   -0.000000]
  Total dipole [Debye]:                                               0.000001
  <r^2> [a.u.]:                        [  91.249803,   44.852694,   80.449153]
  Total <r^2> [a.u.]:                                               216.551650

  V1^2 = 0.0007, V2^2 = 0.9993

  Important amplitudes:
       occ i       vir a        vir b           v   
    -------------------------------------------------
     1 (B1u) A    1 (B2g) A    2 (B1u) B      0.5559
     1 (B1u) B    1 (B2g) B    2 (B1u) B      0.4119
    -------------------------------------------------

  Density matrix analysis:
  ------------------------
  NOs (alpha)
    Occupation of frontier NOs:
       0.3076   0.6197
    Number of electrons:  8.000000
  NOs (beta)
    Occupation of frontier NOs:
       0.3827   0.6262
    Number of electrons:  9.000000
  NOs (spin-traced)
    Occupation of frontier NOs:
       0.9295   1.0024
    Number of electrons: 17.000000
    Number of unpaired electrons: n_u =  3.30339, n_u,nl =  3.02464
    NO participation ratio (PR_NO):  3.816654
  
  
  Mulliken Population Analysis
  Atom  Charge (e)    Spin (e)  h+ (alpha)   h+ (beta)  e- (alpha)   e- (beta)
  ----------------------------------------------------------------------------
   1 C   -0.808622    0.496615    0.322243    0.165913   -0.328915   -0.669200
   2 C   -0.808622    0.496615    0.322243    0.165913   -0.328915   -0.669200
   3 H    0.154296    0.001692    0.003862    0.001981   -0.000526   -0.000338
   4 H    0.154348    0.001692    0.003862    0.001981   -0.000526   -0.000338
   5 H    0.154326    0.001692    0.003862    0.001981   -0.000526   -0.000338
   6 H    0.154274    0.001692    0.003862    0.001981   -0.000526   -0.000338
  ----------------------------------------------------------------------------
  Sum:   -1.000000    1.000000    0.659933    0.339751   -0.659933   -1.339751
  
  Multipole moment analysis of the density matrix
    Molecular charge:                      -1.000000
    Number of electrons:                   17.000000
      Center of electronic charge [Ang]: [  0.000000,   0.000000,   0.000000]
    Total nuclear charge:                  16.000000
      Center of nuclear charge [Ang]:    [  0.000000,   0.000000,   0.000000]
    Dipole moment [D]:                     0.000001
      Cartesian components [D]:          [ -0.000000,  -0.000001,  -0.000000]
    RMS size of the density [Ang]:         1.888676
      Cartesian components [Ang]:        [  1.226006,   0.859550,   1.151165]
  
  Exciton analysis of the difference density matrix
  Total:
    <r_h> [Ang]:                  [ -0.000000,   0.000000,  -0.000000]
    <r_e> [Ang]:                  [ -0.000000,   0.000000,   0.000000]
    |<r_e - r_h>| [Ang]:            0.000000
    Hole size [Ang]:                1.247501
      Cartesian components [Ang]: [  0.742673,   0.514212,   0.860396]
    Electron size [Ang]:            4.439436
      Cartesian components [Ang]: [  2.526259,   1.825753,   3.161206]
  
  Alpha spin:
    <r_h> [Ang]:                  [ -0.000000,   0.000000,  -0.000000]
    <r_e> [Ang]:                  [ -0.000000,   0.000000,   0.000000]
    |<r_e - r_h>| [Ang]:            0.000000
    Hole size [Ang]:                1.244811
      Cartesian components [Ang]: [  0.741682,   0.512915,   0.858127]
    Electron size [Ang]:            4.491460
      Cartesian components [Ang]: [  2.914258,   1.709714,   2.959256]
  
  Beta spin:
    <r_h> [Ang]:                  [ -0.000000,   0.000000,  -0.000000]
    <r_e> [Ang]:                  [  0.000000,   0.000000,   0.000000]
    |<r_e - r_h>| [Ang]:            0.000000
    Hole size [Ang]:                1.252710
      Cartesian components [Ang]: [  0.744595,   0.516722,   0.864788]
    Electron size [Ang]:            4.413584
      Cartesian components [Ang]: [  2.311319,   1.880282,   3.256082]
  ----------------------------------------------------------------------------


  Electron-attached state 8 (B2g)                                  [converged]
  ----------------------------------------------------------------------------
  Term symbol:  8 (2) B2g                                   R^2 =  7.17651e-10

  Total energy:                                            -77.9037221601 a.u.
  Electron attachment energy:                                     14.240476 eV

  Pole strength:                                                      0.000002

  Dip. moment [a.u.]:                  [   0.000000,   -0.000001,    0.000000]
  Total dipole [Debye]:                                               0.000002
  <r^2> [a.u.]:                        [ 138.308230,   49.138081,   38.115263]
  Total <r^2> [a.u.]:                                               225.561574

  V1^2 = 0.0000, V2^2 = 1.0000

  Important amplitudes:
       occ i       vir a        vir b           v   
    -------------------------------------------------
     1 (B1u) A    3 (B3u) A    4 (Ag ) B      0.5773
     1 (B1u) A    4 (Ag ) A    3 (B3u) B      0.2943
    -------------------------------------------------

  Density matrix analysis:
  ------------------------
  NOs (alpha)
    Occupation of frontier NOs:
       0.1734   0.6668
    Number of electrons:  8.000000
  NOs (beta)
    Occupation of frontier NOs:
       0.3337   0.8060
    Number of electrons:  9.000000
  NOs (spin-traced)
    Occupation of frontier NOs:
       0.9335   1.0004
    Number of electrons: 17.000000
    Number of unpaired electrons: n_u =  3.31540, n_u,nl =  3.02679
    NO participation ratio (PR_NO):  3.818145
  
  
  Mulliken Population Analysis
  Atom  Charge (e)    Spin (e)  h+ (alpha)   h+ (beta)  e- (alpha)   e- (beta)
  ----------------------------------------------------------------------------
   1 C   -0.796777    0.531547    0.410071    0.078234   -0.393354   -0.593064
   2 C   -0.796777    0.531547    0.410071    0.078234   -0.393354   -0.593064
   3 H    0.148373   -0.015774    0.004911    0.000937   -0.013269    0.006478
   4 H    0.148426   -0.015774    0.004911    0.000937   -0.013269    0.006478
   5 H    0.148404   -0.015773    0.004911    0.000937   -0.013269    0.006479
   6 H    0.148351   -0.015774    0.004911    0.000937   -0.013269    0.006479
  ----------------------------------------------------------------------------
  Sum:   -1.000000    1.000000    0.839784    0.160214   -0.839784   -1.160214
  
  Multipole moment analysis of the density matrix
    Molecular charge:                      -1.000000
    Number of electrons:                   17.000000
      Center of electronic charge [Ang]: [ -0.000000,   0.000000,  -0.000000]
    Total nuclear charge:                  16.000000
      Center of nuclear charge [Ang]:    [  0.000000,   0.000000,   0.000000]
    Dipole moment [D]:                     0.000002
      Cartesian components [D]:          [  0.000000,  -0.000002,   0.000000]
    RMS size of the density [Ang]:         1.927566
      Cartesian components [Ang]:        [  1.509387,   0.899675,   0.792367]
  
  Exciton analysis of the difference density matrix
  Total:
    <r_h> [Ang]:                  [ -0.000000,   0.000000,  -0.000000]
    <r_e> [Ang]:                  [ -0.000000,   0.000000,  -0.000000]
    |<r_e - r_h>| [Ang]:            0.000000
    Hole size [Ang]:                1.247829
      Cartesian components [Ang]: [  0.742733,   0.514312,   0.860761]
    Electron size [Ang]:            4.579047
      Cartesian components [Ang]: [  3.601385,   1.983170,   2.016118]
  
  Alpha spin:
    <r_h> [Ang]:                  [ -0.000000,   0.000000,  -0.000000]
    <r_e> [Ang]:                  [ -0.000000,   0.000000,  -0.000000]
    |<r_e - r_h>| [Ang]:            0.000000
    Hole size [Ang]:                1.247829
      Cartesian components [Ang]: [  0.742733,   0.514312,   0.860761]
    Electron size [Ang]:            4.576759
      Cartesian components [Ang]: [  3.576063,   2.026627,   2.012779]
  
  Beta spin:
    <r_h> [Ang]:                  [ -0.000000,   0.000000,  -0.000000]
    <r_e> [Ang]:                  [ -0.000000,   0.000000,  -0.000000]
    |<r_e - r_h>| [Ang]:            0.000000
    Hole size [Ang]:                1.247828
      Cartesian components [Ang]: [  0.742733,   0.514311,   0.860760]
    Electron size [Ang]:            4.580701
      Cartesian components [Ang]: [  3.619603,   1.951110,   2.018532]
  ----------------------------------------------------------------------------


  Electron-attached state 9 (B2g)                                  [converged]
  ----------------------------------------------------------------------------
  Term symbol:  9 (2) B2g                                   R^2 =  3.16338e-09

  Total energy:                                            -77.9036888545 a.u.
  Electron attachment energy:                                     14.241382 eV

  Pole strength:                                                      0.000098

  Dip. moment [a.u.]:                  [   0.000000,   -0.000001,    0.000000]
  Total dipole [Debye]:                                               0.000002
  <r^2> [a.u.]:                        [ 138.301288,   49.138935,   38.132962]
  Total <r^2> [a.u.]:                                               225.573185

  V1^2 = 0.0001, V2^2 = 0.9999

  Important amplitudes:
       occ i       vir a        vir b           v   
    -------------------------------------------------
     1 (B1u) B    4 (Ag ) B    3 (B3u) B     -0.5031
     1 (B1u) A    4 (Ag ) A    3 (B3u) B     -0.4966
    -------------------------------------------------

  Density matrix analysis:
  ------------------------
  NOs (alpha)
    Occupation of frontier NOs:
       0.4732   0.4934
    Number of electrons:  8.000000
  NOs (beta)
    Occupation of frontier NOs:
       0.4604   0.5065
    Number of electrons:  9.000000
  NOs (spin-traced)
    Occupation of frontier NOs:
       0.9336   0.9999
    Number of electrons: 17.000000
    Number of unpaired electrons: n_u =  3.31705, n_u,nl =  3.02682
    NO participation ratio (PR_NO):  3.819756
  
  
  Mulliken Population Analysis
  Atom  Charge (e)    Spin (e)  h+ (alpha)   h+ (beta)  e- (alpha)   e- (beta)
  ----------------------------------------------------------------------------
   1 C   -0.796620    0.451555    0.241000    0.247263   -0.264201   -0.722020
   2 C   -0.796620    0.451555    0.241000    0.247263   -0.264201   -0.722020
   3 H    0.148295    0.024223    0.002886    0.002961    0.008715   -0.015583
   4 H    0.148347    0.024222    0.002886    0.002961    0.008715   -0.015583
   5 H    0.148325    0.024222    0.002886    0.002961    0.008715   -0.015582
   6 H    0.148273    0.024222    0.002886    0.002961    0.008715   -0.015582
  ----------------------------------------------------------------------------
  Sum:   -1.000000    1.000000    0.493543    0.506369   -0.493543   -1.506369
  
  Multipole moment analysis of the density matrix
    Molecular charge:                      -1.000000
    Number of electrons:                   17.000000
      Center of electronic charge [Ang]: [ -0.000000,   0.000000,  -0.000000]
    Total nuclear charge:                  16.000000
      Center of nuclear charge [Ang]:    [  0.000000,   0.000000,   0.000000]
    Dipole moment [D]:                     0.000002
      Cartesian components [D]:          [  0.000000,  -0.000002,   0.000000]
    RMS size of the density [Ang]:         1.927615
      Cartesian components [Ang]:        [  1.509349,   0.899683,   0.792550]
  
  Exciton analysis of the difference density matrix
  Total:
    <r_h> [Ang]:                  [ -0.000000,   0.000000,  -0.000000]
    <r_e> [Ang]:                  [ -0.000000,   0.000000,  -0.000000]
    |<r_e - r_h>| [Ang]:            0.000000
    Hole size [Ang]:                1.247875
      Cartesian components [Ang]: [  0.742753,   0.514337,   0.860794]
    Electron size [Ang]:            4.579321
      Cartesian components [Ang]: [  3.601326,   1.983243,   2.016775]
  
  Alpha spin:
    <r_h> [Ang]:                  [ -0.000000,   0.000000,  -0.000000]
    <r_e> [Ang]:                  [ -0.000000,   0.000000,  -0.000000]
    |<r_e - r_h>| [Ang]:            0.000000
    Hole size [Ang]:                1.247793
      Cartesian components [Ang]: [  0.742723,   0.514297,   0.860725]
    Electron size [Ang]:            4.583232
      Cartesian components [Ang]: [  3.644147,   1.906893,   2.022367]
  
  Beta spin:
    <r_h> [Ang]:                  [ -0.000000,   0.000000,  -0.000000]
    <r_e> [Ang]:                  [ -0.000000,   0.000000,  -0.000000]
    |<r_e - r_h>| [Ang]:            0.000000
    Hole size [Ang]:                1.247955
      Cartesian components [Ang]: [  0.742783,   0.514376,   0.860861]
    Electron size [Ang]:            4.578039
      Cartesian components [Ang]: [  3.587185,   2.007626,   2.014940]
  ----------------------------------------------------------------------------


  Electron-attached state 10 (B2g)                                  [converged]
  ----------------------------------------------------------------------------
  Term symbol:  10 (2) B2g                                  R^2 =  3.23413e-08

  Total energy:                                            -77.8417600545 a.u.
  Electron attachment energy:                                     15.926551 eV

  Pole strength:                                                      0.000067

  Dip. moment [a.u.]:                  [   0.000000,   -0.000002,    0.000000]
  Total dipole [Debye]:                                               0.000006
  <r^2> [a.u.]:                        [ 104.446024,   47.691469,   26.728619]
  Total <r^2> [a.u.]:                                               178.866112

  V1^2 = 0.0001, V2^2 = 0.9999

  Important amplitudes:
       occ i       vir a        vir b           v   
    -------------------------------------------------
     1 (B1u) A    3 (B3u) A    5 (Ag ) B      0.5288
     1 (B1u) A    5 (Ag ) A    3 (B3u) B      0.4649
    -------------------------------------------------

  Density matrix analysis:
  ------------------------
  NOs (alpha)
    Occupation of frontier NOs:
       0.4352   0.5596
    Number of electrons:  8.000000
  NOs (beta)
    Occupation of frontier NOs:
       0.4408   0.5703
    Number of electrons:  9.000000
  NOs (spin-traced)
    Occupation of frontier NOs:
       0.9336   1.0003
    Number of electrons: 17.000000
    Number of unpaired electrons: n_u =  3.30539, n_u,nl =  3.02627
    NO participation ratio (PR_NO):  3.808327
  
  
  Mulliken Population Analysis
  Atom  Charge (e)    Spin (e)  h+ (alpha)   h+ (beta)  e- (alpha)   e- (beta)
  ----------------------------------------------------------------------------
   1 C   -0.085104    0.402932    0.484260    0.004015   -0.176015   -0.098701
   2 C   -0.085104    0.402932    0.484260    0.004015   -0.176015   -0.098701
   3 H   -0.207461    0.048534    0.005799    0.000049   -0.159921   -0.202704
   4 H   -0.207414    0.048534    0.005799    0.000049   -0.159923   -0.202707
   5 H   -0.207435    0.048534    0.005799    0.000049   -0.159922   -0.202707
   6 H   -0.207482    0.048534    0.005799    0.000049   -0.159920   -0.202704
  ----------------------------------------------------------------------------
  Sum:   -1.000000    1.000000    0.991715    0.008225   -0.991715   -1.008225
  
  Multipole moment analysis of the density matrix
    Molecular charge:                      -1.000000
    Number of electrons:                   17.000000
      Center of electronic charge [Ang]: [ -0.000000,   0.000000,  -0.000000]
    Total nuclear charge:                  16.000000
      Center of nuclear charge [Ang]:    [  0.000000,   0.000000,   0.000000]
    Dipole moment [D]:                     0.000006
      Cartesian components [D]:          [  0.000000,  -0.000006,   0.000000]
    RMS size of the density [Ang]:         1.716488
      Cartesian components [Ang]:        [  1.311664,   0.886333,   0.663537]
  
  Exciton analysis of the difference density matrix
  Total:
    <r_h> [Ang]:                  [ -0.000000,   0.000000,  -0.000000]
    <r_e> [Ang]:                  [ -0.000000,   0.000001,  -0.000000]
    |<r_e - r_h>| [Ang]:            0.000001
    Hole size [Ang]:                1.247815
      Cartesian components [Ang]: [  0.742732,   0.514308,   0.860743]
    Electron size [Ang]:            3.798682
      Cartesian components [Ang]: [  2.868623,   1.931453,   1.571774]
  
  Alpha spin:
    <r_h> [Ang]:                  [ -0.000000,   0.000000,  -0.000000]
    <r_e> [Ang]:                  [ -0.000000,   0.000001,  -0.000000]
    |<r_e - r_h>| [Ang]:            0.000000
    Hole size [Ang]:                1.247831
      Cartesian components [Ang]: [  0.742736,   0.514314,   0.860760]
    Electron size [Ang]:            3.906698
      Cartesian components [Ang]: [  2.965893,   1.947964,   1.634384]
  
  Beta spin:
    <r_h> [Ang]:                  [ -0.000000,   0.000000,  -0.000000]
    <r_e> [Ang]:                  [ -0.000000,   0.000001,  -0.000000]
    |<r_e - r_h>| [Ang]:            0.000001
    Hole size [Ang]:                1.245910
      Cartesian components [Ang]: [  0.742302,   0.513617,   0.858766]
    Electron size [Ang]:            3.689350
      Cartesian components [Ang]: [  2.769615,   1.915074,   1.507655]
  ----------------------------------------------------------------------------


--------------------------------------------------------------------------------
  Time of ADC calculation:  CPU 98.94 s  wall 22.43 s
================================================================================
 
 --------------------------------------------------------------
             Orbital Energies (a.u.) and Symmetries
 --------------------------------------------------------------
 
 Alpha MOs, Restricted
 -- Occupied --                  
-11.228 -11.226  -1.040  -0.781  -0.661  -0.568  -0.516  -0.377
  1 Ag    1 B3u   2 Ag    2 B3u   1 B2u   3 Ag    1 B1g   1 B1u                
 -- Virtual --                   
  0.055   0.057   0.065   0.077   0.079   0.091   0.151   0.153
  3 B3u   2 B2u   2 B1u   1 B2g   2 B1g   4 Ag    2 B2g   5 Ag                 
  0.210   0.217   0.237   0.243   0.246   0.294   0.306   0.321
  4 B3u   3 B2u   6 Ag    3 B1g   3 B1u   5 B3u   4 B2u   3 B2g                
  0.456   0.457   0.464   0.619   0.638   0.649   0.661   0.666
  6 B3u   7 Ag    4 B1g   8 Ag    5 B2u   6 B2u   7 B3u   9 Ag                 
  0.666   0.675   0.739   0.751   0.804   0.828   0.851   0.904
  1 B3g   8 B3u   4 B1u   5 B1g   4 B2g   1 Au    9 B3u   5 B1u                
  0.981   1.009   1.042   1.058   1.188   1.203   1.254   1.358
  6 B1g  10 Ag    7 B1g   7 B2u   6 B1u   5 B2g   2 B3g  10 B3u                
  1.360   1.402   1.469   1.495   1.500   1.537   1.635   1.651
 11 Ag    6 B2g   8 B2u   9 B2u  11 B3u  12 Ag    2 Au   12 B3u                
  1.708   1.833   1.867   1.983   2.298   2.583   2.633   2.679
  8 B1g  13 B3u  13 Ag    9 B1g  14 Ag    7 B1u  15 Ag    7 B2g                
  2.709   2.768   2.798   2.838   2.880   2.915   3.070   3.102
 10 B2u   8 B1u  11 B2u  14 B3u  10 B1g   3 B3g  11 B1g   9 B1u                
  3.105   3.136   3.152   3.155   3.185   3.261   3.323   3.340
  4 B3g  12 B2u   3 Au   16 Ag   17 Ag    8 B2g  15 B3u  13 B2u                
  3.414   3.426   3.441   3.481   3.500   3.550   3.598   3.641
  9 B2g   4 Au   16 B3u  17 B3u  12 B1g  10 B1u  18 Ag    5 B3g                
  3.743   3.815   3.899   3.962   3.977   3.981   4.014   4.037
 14 B2u  13 B1g  18 B3u  14 B1g   5 Au   10 B2g  15 B2u  19 Ag                 
  4.061   4.189   4.193   4.202   4.211   4.331   4.351   4.491
 11 B1u  19 B3u  15 B1g   6 B3g  20 Ag   12 B1u  11 B2g  16 B2u                
  4.534   4.606   4.686   4.766   4.813   4.939   4.975   5.055
 20 B3u   6 Au   21 Ag   21 B3u  12 B2g  13 B1u  22 Ag   16 B1g                
  5.152   5.216   5.306   5.309   5.426   5.470   5.543   5.563
 17 B2u   7 B3g  22 B3u  23 Ag    7 Au   17 B1g  13 B2g  24 Ag                 
  5.673   6.012   6.108   6.307   6.595   6.875  12.101  14.805
 18 B2u  23 B3u  18 B1g  19 B2u  24 B3u  19 B1g  25 Ag   25 B3u                
 
 Beta MOs, Restricted
 -- Occupied --                  
-11.228 -11.226  -1.040  -0.781  -0.661  -0.568  -0.516  -0.377
  1 Ag    1 B3u   2 Ag    2 B3u   1 B2u   3 Ag    1 B1g   1 B1u                
 -- Virtual --                   
  0.055   0.057   0.065   0.077   0.079   0.091   0.151   0.153
  3 B3u   2 B2u   2 B1u   1 B2g   2 B1g   4 Ag    2 B2g   5 Ag                 
  0.210   0.217   0.237   0.243   0.246   0.294   0.306   0.321
  4 B3u   3 B2u   6 Ag    3 B1g   3 B1u   5 B3u   4 B2u   3 B2g                
  0.456   0.457   0.464   0.619   0.638   0.649   0.661   0.666
  6 B3u   7 Ag    4 B1g   8 Ag    5 B2u   6 B2u   7 B3u   9 Ag                 
  0.666   0.675   0.739   0.751   0.804   0.828   0.851   0.904
  1 B3g   8 B3u   4 B1u   5 B1g   4 B2g   1 Au    9 B3u   5 B1u                
  0.981   1.009   1.042   1.058   1.188   1.203   1.254   1.358
  6 B1g  10 Ag    7 B1g   7 B2u   6 B1u   5 B2g   2 B3g  10 B3u                
  1.360   1.402   1.469   1.495   1.500   1.537   1.635   1.651
 11 Ag    6 B2g   8 B2u   9 B2u  11 B3u  12 Ag    2 Au   12 B3u                
  1.708   1.833   1.867   1.983   2.298   2.583   2.633   2.679
  8 B1g  13 B3u  13 Ag    9 B1g  14 Ag    7 B1u  15 Ag    7 B2g                
  2.709   2.768   2.798   2.838   2.880   2.915   3.070   3.102
 10 B2u   8 B1u  11 B2u  14 B3u  10 B1g   3 B3g  11 B1g   9 B1u                
  3.105   3.136   3.152   3.155   3.185   3.261   3.323   3.340
  4 B3g  12 B2u   3 Au   16 Ag   17 Ag    8 B2g  15 B3u  13 B2u                
  3.414   3.426   3.441   3.481   3.500   3.550   3.598   3.641
  9 B2g   4 Au   16 B3u  17 B3u  12 B1g  10 B1u  18 Ag    5 B3g                
  3.743   3.815   3.899   3.962   3.977   3.981   4.014   4.037
 14 B2u  13 B1g  18 B3u  14 B1g   5 Au   10 B2g  15 B2u  19 Ag                 
  4.061   4.189   4.193   4.202   4.211   4.331   4.351   4.491
 11 B1u  19 B3u  15 B1g   6 B3g  20 Ag   12 B1u  11 B2g  16 B2u                
  4.534   4.606   4.686   4.766   4.813   4.939   4.975   5.055
 20 B3u   6 Au   21 Ag   21 B3u  12 B2g  13 B1u  22 Ag   16 B1g                
  5.152   5.216   5.306   5.309   5.426   5.470   5.543   5.563
 17 B2u   7 B3g  22 B3u  23 Ag    7 Au   17 B1g  13 B2g  24 Ag                 
  5.673   6.012   6.108   6.307   6.595   6.875  12.101  14.805
 18 B2u  23 B3u  18 B1g  19 B2u  24 B3u  19 B1g  25 Ag   25 B3u                
 --------------------------------------------------------------
 
          Ground-State Mulliken Net Atomic Charges

     Atom                 Charge (a.u.)
  ----------------------------------------
      1 C                    -0.265731
      2 C                    -0.265731
      3 H                     0.132850
      4 H                     0.132904
      5 H                     0.132881
      6 H                     0.132828
  ----------------------------------------
  Sum of atomic charges =     0.000000

 -----------------------------------------------------------------
                    Cartesian Multipole Moments
 -----------------------------------------------------------------
    Charge (ESU x 10^10)
                 0.0000
    Dipole Moment (Debye)
         X       0.0000      Y      -0.0000      Z      -0.0000
       Tot       0.0000
    Quadrupole Moments (Debye-Ang)
        XX     -12.8623     XY       0.0000     YY     -11.9334
        XZ       0.0000     YZ      -0.0000     ZZ     -16.0979
    Octopole Moments (Debye-Ang^2)
       XXX       0.0000    XXY      -0.0000    XYY       0.0000
       YYY      -0.0000    XXZ      -0.0000    XYZ      -0.0000
       YYZ       0.0000    XZZ       0.0000    YZZ      -0.0000
       ZZZ       0.0000
    Hexadecapole Moments (Debye-Ang^3)
      XXXX     -68.0026   XXXY       0.0000   XXYY     -13.1061
      XYYY       0.0000   YYYY     -26.7570   XXXZ       0.0000
      XXYZ      -0.0000   XYYZ       0.0000   YYYZ      -0.0000
      XXZZ     -15.4251   XYZZ       0.0000   YYZZ      -8.9504
      XZZZ       0.0000   YZZZ      -0.0000   ZZZZ     -21.1973
 -----------------------------------------------------------------
 Total job time:  104.19s(wall), 148.28s(cpu) 
 Fri Feb 25 18:14:20 2022

        *************************************************************
        *                                                           *
        *  Thank you very much for using Q-Chem.  Have a nice day.  *
        *                                                           *
        *************************************************************


