/src/tsommerfeld/qchem/exe/qcprog.exe .input2.24359.4608.qcin.1 /src/jdavis/qchem.scratch/qchem4608/

                  Welcome to Q-Chem
     A Quantum Leap Into The Future Of Chemistry


 Q-Chem 5.4 (devel), Q-Chem, Inc., Pleasanton, CA (2021)

 E. Epifanovsky,  A. T. B. Gilbert,  Xintian Feng,  Joonho Lee,  Yuezhi Mao,  
 N. Mardirossian,  P. Pokhilko,  A. White,  M. Wormit,  M. P. Coons,  
 A. L. Dempwolff,  Zhengting Gan,  D. Hait,  P. R. Horn,  L. D. Jacobson,  
 I. Kaliman,  J. Kussmann,  A. W. Lange,  Ka Un Lao,  D. S. Levine,  Jie Liu,  
 S. C. McKenzie,  A. F. Morrison,  K. Nanda,  F. Plasser,  D. R. Rehn,  
 M. L. Vidal,  Zhi-Qiang You,  Ying Zhu,  B. Alam,  B. Albrecht,  
 A. Aldossary,  E. Alguire,  J. H. Andersen,  D. Barton,  K. Begam,  A. Behn,  
 Y. A. Bernard,  E. J. Berquist,  H. Burton,  A. Carreras,  K. Carter-Fenk,  
 R. Chakraborty,  A. D. Chien,  K. D. Closser,  V. Cofer-Shabica,  
 S. Dasgupta,  Jia Deng,  M. de Wergifosse,  M. Diedenhofen,  Hainam Do,  
 S. Ehlert,  Po-Tung Fang,  S. Fatehi,  Qingguo Feng,  T. Friedhoff,  
 J. Gayvert,  Qinghui Ge,  G. Gidofalvi,  M. Goldey,  J. Gomes,  
 C. Gonzalez-Espinoza,  S. Gulania,  A. Gunina,  M. W. D. Hanson-Heine,  
 P. H. P. Harbach,  A. W. Hauser,  M. F. Herbst,  M. Hernandez Vera,  
 M. Hodecker,  Z. C. Holden,  S. Houck,  Xunkun Huang,  Kerwin Hui,  
 B. C. Huynh,  M. Ivanov,  Hyunjun Ji,  Hanjie Jiang,  B. Kaduk,  S. Kaehler,  
 K. Khistyaev,  Jaehoon Kim,  P. Klunzinger,  Z. Koczor-Benda,  
 Joong Hoon Koh,  D. Kosenkov,  L. Koulias,  T. Kowalczyk,  C. M. Krauter,  
 K. Kue,  A. Kunitsa,  T. Kus,  A. Landau,  K. V. Lawler,  D. Lefrancois,  
 S. Lehtola,  Rain Li,  Yi-Pei Li,  Jiashu Liang,  M. Liebenthal,  
 Hung-Hsuan Lin,  You-Sheng Lin,  Fenglai Liu,  Kuan-Yu Liu,  
 M. Loipersberger,  A. Luenser,  A. Manjanath,  P. Manohar,  E. Mansoor,  
 S. F. Manzer,  Shan-Ping Mao,  A. V. Marenich,  T. Markovich,  S. Mason,  
 S. A. Maurer,  P. F. McLaughlin,  M. F. S. J. Menger,  J.-M. Mewes,  
 S. A. Mewes,  P. Morgante,  J. W. Mullinax,  K. J. Oosterbaan,  G. Paran,  
 Alexander C. Paul,  Suranjan K. Paul,  F. Pavosevic,  Zheng Pei,  S. Prager,  
 E. I. Proynov,  E. Ramos,  B. Rana,  A. E. Rask,  A. Rettig,  R. M. Richard,  
 F. Rob,  E. Rossomme,  T. Scheele,  M. Scheurer,  M. Schneider,  
 N. Sergueev,  S. M. Sharada,  W. Skomorowski,  D. W. Small,  C. J. Stein,  
 Yu-Chuan Su,  E. J. Sundstrom,  Zhen Tao,  J. Thirman,  T. Tsuchimochi,  
 N. M. Tubman,  S. P. Veccham,  O. Vydrov,  J. Wenzel,  J. Witte,  A. Yamada,  
 Kun Yao,  S. Yeganeh,  S. R. Yost,  A. Zech,  Igor Ying Zhang,  Xing Zhang,  
 Yu Zhang,  D. Zuev,  A. Aspuru-Guzik,  A. T. Bell,  N. A. Besley,  
 K. B. Bravaya,  B. R. Brooks,  D. Casanova,  Jeng-Da Chai,  S. Coriani,  
 C. J. Cramer,  A. E. DePrince, III,  R. A. DiStasio Jr.,  A. Dreuw,  
 B. D. Dunietz,  T. R. Furlani,  W. A. Goddard III,  S. Grimme,  
 S. Hammes-Schiffer,  T. Head-Gordon,  W. J. Hehre,  Chao-Ping Hsu,  
 T.-C. Jagau,  Yousung Jung,  A. Klamt,  Jing Kong,  D. S. Lambrecht,  
 WanZhen Liang,  N. J. Mayhall,  C. W. McCurdy,  J. B. Neaton,  
 C. Ochsenfeld,  J. A. Parkhill,  R. Peverati,  V. A. Rassolov,  Yihan Shao,  
 L. V. Slipchenko,  T. Stauch,  R. P. Steele,  J. E. Subotnik,  
 A. J. W. Thom,  A. Tkatchenko,  D. G. Truhlar,  T. Van Voorhis,  
 T. A. Wesolowski,  K. B. Whaley,  H. L. Woodcock III,  P. M. Zimmerman,  
 S. Faraji,  P. M. W. Gill,  M. Head-Gordon,  J. M. Herbert,  A. I. Krylov

 Additional authors for Version 5.4.1: 
 S. Kotaru,  Shaozhi Li,  Xiangyuan Li,  F. Matz,  A. Molle,  Haisheng Ren,  
 Yingli Su,  Hung-Yi Tsai,  C. Utku,  Fang Wang

 Contributors to earlier versions of Q-Chem not listed above: 
 R. D. Adamson,  B. Austin,  R. Baer,  J. Baker,  G. J. O. Beran,  
 K. Brandhorst,  S. T. Brown,  E. F. C. Byrd,  A. K. Chakraborty,  
 G. K. L. Chan,  Chun-Min Chang,  Yunqing Chen,  C.-L. Cheng,  
 Siu Hung Chien,  D. M. Chipman,  D. L. Crittenden,  H. Dachsel,  
 R. J. Doerksen,  A. D. Dutoi,  R. G. Edgar,  J. Fosso-Tande,  
 L. Fusti-Molnar,  D. Ghosh,  A. Ghysels,  A. Golubeva-Zadorozhnaya,  
 J. Gonthier,  M. S. Gordon,  S. R. Gwaltney,  G. Hawkins,  J. E. Herr,  
 A. Heyden,  S. Hirata,  E. G. Hohenstein,  G. Kedziora,  F. J. Keil,  
 C. Kelley,  Jihan Kim,  R. A. King,  R. Z. Khaliullin,  P. P. Korambath,  
 W. Kurlancheek,  A. Laurent,  A. M. Lee,  M. S. Lee,  S. V. Levchenko,  
 Ching Yeh Lin,  D. Liotard,  E. Livshits,  R. C. Lochan,  I. Lotan,  
 L. A. Martinez-Martinez,  P. E. Maslen,  N. Nair,  D. P. O'Neill,  
 D. Neuhauser,  E. Neuscamman,  C. M. Oana,  R. Olivares-Amaya,  R. Olson,  
 T. M. Perrine,  B. Peters,  P. A. Pieniazek,  A. Prociuk,  Y. M. Rhee,  
 J. Ritchie,  M. A. Rohrdanz,  E. Rosta,  N. J. Russ,  H. F. Schaefer III,  
 M. W. Schmidt,  N. E. Schultz,  S. Sharma,  N. Shenvi,  C. D. Sherrill,  
 A. C. Simmonett,  A. Sodt,  T. Stein,  D. Stuck,  K. S. Thanthiriwatte,  
 V. Vanovschi,  L. Vogt,  Tao Wang,  A. Warshel,  M. A. Watson,  
 C. F. Williams,  Q. Wu,  X. Xu,  Jun Yang,  W. Zhang,  Yan Zhao

 Please cite Q-Chem as follows:
 Y. Shao et al., Mol. Phys. 113, 184-215 (2015)
 DOI: 10.1080/00268976.2014.952696

 Q-Chem 5.4.1 for Intel X86 EM64T Linux

 Parts of Q-Chem use Armadillo 9.900.5 (Nocturnal Misbehaviour).
 http://arma.sourceforge.net/

 Q-Chem begins on Fri Feb 25 18:35:13 2022  

 Host: node01
0

     Scratch files written to /src/jdavis/qchem.scratch/qchem4608//
 Processing $rem in /src/tsommerfeld/qchem/config/preferences:
 Processing $rem in /home/jdavis/.qchemrc:

 Checking the input file for inconsistencies... 	...done.

--------------------------------------------------------------
User input:
--------------------------------------------------------------
$molecule
0 1
C        -0.6645000000    0.0000000000   -0.2082049804
C         0.6645000000    0.0000000000   -0.2082049804
H        -1.1590800000    0.0000000000    0.7541440196
H         1.1590800000    0.0000000000    0.7541440196
H        -1.1590800000    0.0000000000   -1.1705529804
H         1.1590800000    0.0000000000   -1.1705529804
$end

$rem
   METHOD adc(2)
   BASIS gen
   PURECART 11
   EA_STATES [0,0,10,0,0,0,0,0]
   scf_convergence 8
   ADC_DAVIDSON_MAXITER 120
   ADC_DAVIDSON_MAXSUBSPACE 200
   adc_nguess_singles 100
   THRESH 14
   S2THRESH 14
   adc_davidson_conv 5
   adc_davidson_thresh 14
   THREADS 10
   MEM_TOTAL 95000
   STATE_ANALYSIS TRUE
$end
$basis
C     1
S    10   1.00
      8.236000D+03           5.310000D-04
      1.235000D+03           4.108000D-03
      2.808000D+02           2.108700D-02
      7.927000D+01           8.185300D-02
      2.559000D+01           2.348170D-01
      8.997000D+00           4.344010D-01
      3.319000D+00           3.461290D-01
      9.059000D-01           3.937800D-02
      3.643000D-01          -8.983000D-03
      1.285000D-01           2.385000D-03
S    1   1.00
      9.059000D-01           1.000000D+00
S    10   1.00
      8.236000D+03          -1.130000D-04
      1.235000D+03          -8.780000D-04
      2.808000D+02          -4.540000D-03
      7.927000D+01          -1.813300D-02
      2.559000D+01          -5.576000D-02
      8.997000D+00          -1.268950D-01
      3.319000D+00          -1.703520D-01
      9.059000D-01           1.403820D-01
      3.643000D-01           5.986840D-01
      1.285000D-01           3.953890D-01
S    1   1.00
      1.285000D-01           1.000000D+00
P    1   1.00
      3.827000D-01           1.000000D+00
P    5   1.00
      1.871000D+01           1.403100D-02
      4.133000D+00           8.686600D-02
      1.200000D+00           2.902160D-01
      3.827000D-01           5.010080D-01
      1.209000D-01           3.434060D-01
P    1   1.00
      1.209000D-01           1.000000D+00
P   1   1.00
      0.0775      1.0000000
P   1   1.00
      0.03875      1.0000000
D    1   1.00
      1.097000D+00           1.000000D+00
D    1   1.00
      3.180000D-01           1.000000D+00
F    1   1.00
      7.610000D-01           1.0000000
****
C     2
S    10   1.00
      8.236000D+03           5.310000D-04
      1.235000D+03           4.108000D-03
      2.808000D+02           2.108700D-02
      7.927000D+01           8.185300D-02
      2.559000D+01           2.348170D-01
      8.997000D+00           4.344010D-01
      3.319000D+00           3.461290D-01
      9.059000D-01           3.937800D-02
      3.643000D-01          -8.983000D-03
      1.285000D-01           2.385000D-03
S    1   1.00
      9.059000D-01           1.000000D+00
S    10   1.00
      8.236000D+03          -1.130000D-04
      1.235000D+03          -8.780000D-04
      2.808000D+02          -4.540000D-03
      7.927000D+01          -1.813300D-02
      2.559000D+01          -5.576000D-02
      8.997000D+00          -1.268950D-01
      3.319000D+00          -1.703520D-01
      9.059000D-01           1.403820D-01
      3.643000D-01           5.986840D-01
      1.285000D-01           3.953890D-01
S    1   1.00
      1.285000D-01           1.000000D+00
P    1   1.00
      3.827000D-01           1.000000D+00
P    5   1.00
      1.871000D+01           1.403100D-02
      4.133000D+00           8.686600D-02
      1.200000D+00           2.902160D-01
      3.827000D-01           5.010080D-01
      1.209000D-01           3.434060D-01
P    1   1.00
      1.209000D-01           1.000000D+00
P   1   1.00
      0.0775      1.0000000
P   1   1.00
      0.03875      1.0000000
D    1   1.00
      1.097000D+00           1.000000D+00
D    1   1.00
      3.180000D-01           1.000000D+00
F    1   1.00
      7.610000D-01           1.0000000
****
H 3
cc-pVTZ
****
H 4
cc-pVTZ
****
H 5
cc-pVTZ
****
H 6
cc-pVTZ
****
$end
--------------------------------------------------------------
 Atom   2: ( -0.6645000000, -0.0000001250,  0.0000000000)
         ->( -0.6645000000,  0.0000001250, -0.0000000000)
 Atom   1: (  0.6645000000, -0.0000001250, -0.0000000000)
         ->(  0.6645000000,  0.0000000000,  0.0000000000)
 Atom   6: ( -1.1590800000, -0.9623481250, -0.0000000000)
         ->( -1.1590800000, -0.9623488750,  0.0000000000)
 Atom   5: (  1.1590800000, -0.9623481250, -0.0000000000)
         ->(  1.1590800000, -0.9623488750, -0.0000000000)
 ----------------------------------------------------------------
             Standard Nuclear Orientation (Angstroms)
    I     Atom           X                Y                Z
 ----------------------------------------------------------------
    1      C       0.6645000000     0.0000000000     0.0000000000
    2      C      -0.6645000000     0.0000001250    -0.0000000000
    3      H       1.1590800000     0.9623488750     0.0000000000
    4      H      -1.1590800000     0.9623488750     0.0000000000
    5      H       1.1590800000    -0.9623488750    -0.0000000000
    6      H      -1.1590800000    -0.9623488750     0.0000000000
 ----------------------------------------------------------------
 Molecular Point Group                 D2h   NOp =  8
 Largest Abelian Subgroup              D2h   NOp =  8
 Nuclear Repulsion Energy =          33.58921667 hartrees
 There are        8 alpha and        8 beta electrons
 Requested basis set is non-standard
 There are 48 shells and 128 basis functions
 Total memory of 95000 MB is distributed as follows: 
   MEM_STATIC is set to 192 MB
   QALLOC/CCMAN JOB total memory use is  94808 MB
 Warning: actual memory use might exceed 95000 MB

 Total QAlloc Memory Limit  95000 MB
 Mega-Array Size       188 MB
 MEM_STATIC part       192 MB

                       Distance Matrix (Angstroms)
             C (  1)   C (  2)   H (  3)   H (  4)   H (  5)
   C (  2)  1.329000
   H (  3)  1.082000  2.061931
   H (  4)  2.061931  1.082000  2.318160
   H (  5)  1.082000  2.061931  1.924698  3.013026
   H (  6)  2.061931  1.082000  3.013026  1.924698  2.318160
 
 A cutoff of  1.0D-14 yielded   1176 shell pairs
 There are      8432 function pairs (     10417 Cartesian)
 Smallest overlap matrix eigenvalue = 3.84E-04

 Scale SEOQF with 1.000000e-01/1.000000e-01/1.000000e-01

 Standard Electronic Orientation quadrupole field applied
 Nucleus-field energy     =     0.0000000006 hartrees
 ================ Generating on-the-fly SAD Guess ================
Attempting to make child job directory: /src/jdavis/qchem.scratch/qchem4608//Frg1/
Attempting to make child job directory: /src/jdavis/qchem.scratch/qchem4608//Frg2/
Creating input file /src/jdavis/qchem.scratch/qchem4608/Frg1.input
using default PutDataFrgm: nothing
calling putenv with: QCSCRATCH=/src/jdavis/qchem.scratch/qchem4608/ 
Spawning Job For Fragment 0
Done Job For Fragment 0
calling putenv with: QCSCRATCH=/src/jdavis/qchem.scratch 
calling putenv with: QCTHREADS=1 
Creating input file /src/jdavis/qchem.scratch/qchem4608/Frg2.input
using default PutDataFrgm: nothing
calling putenv with: QCSCRATCH=/src/jdavis/qchem.scratch/qchem4608/ 
Spawning Job For Fragment 1
Done Job For Fragment 1
calling putenv with: QCSCRATCH=/src/jdavis/qchem.scratch 
calling putenv with: QCTHREADS=1 
 Time for running child jobs:  CPU 1.75 s  wall 53.78 s
 ============= Method Specific SAD Guess Constructed =============
 Guess from on-the-fly superposition of atomic densities
 Warning: Energy on first SCF cycle will be non-variational
 A restricted Hartree-Fock SCF calculation will be
 performed using Pulay DIIS extrapolation
 SCF converges when DIIS error is below 1.0E-08
 using 10 threads for integral computing
 -------------------------------------------------------
 OpenMP Integral computing Module                
 Release: version 1.0, May 2013, Q-Chem Inc. Pittsburgh 
 -------------------------------------------------------
 ---------------------------------------
  Cycle       Energy         DIIS Error
 ---------------------------------------
    1     -78.4659799115      3.89E-02
    2     -78.0360102820      2.90E-03
    3     -78.0576818799      7.93E-04
    4     -78.0594685037      2.78E-04
    5     -78.0596781567      3.07E-05
    6     -78.0596829128      6.52E-06
    7     -78.0596832132      1.78E-06
    8     -78.0596832460      1.84E-07
    9     -78.0596832510      2.36E-08
   10     -78.0596832514      2.48E-09 Convergence criterion met
 ---------------------------------------
 SCF time:  CPU 15.65 s  wall 1.57 s
 SCF   energy in the final basis set = -78.05968325
 Total energy in the final basis set = -78.05968325
================================================================================
|                                                                              |
|                                 A D C  M A N                                 |
|                                                                              |
 ------------------------------------------------------------------------------ 
|                                                                              |
| Components:                                                                  |
|                                                                              |
| - libvmm - 1.3-trunk                                                         |
|   Authors:                                                                   |
|   Evgeny Epifanovsky, Ilya Kaliman                                           |
|                                                                              |
| - libtensor - 2.5-trunk                                                      |
|   Authors:                                                                   |
|   Evgeny Epifanovsky, Michael Wormit, Dmitry Zuev, Sam Manzer,               |
|   Ilya Kaliman                                                               |
|                                                                              |
| - libwfa - 1.1-trunk                                                         |
|   Authors:                                                                   |
|   Felix Plasser, Stefanie Mewes (Baeppler), Benjamin Thomitzni,              |
|   Michael Wormit, Feng Chen, Anna I. Krylov, Pavel Pokhilko                  |
|                                                                              |
| - libadc - 1.1-trunk                                                         |
|   Authors:                                                                   |
|   Michael Wormit, Adrian L. Dempwolff, Philipp H. P. Harbach,                |
|   Caroline Krauter, Dirk Rehn, Matthias Schneider, Jan Wenzel                |
|                                                                              |
| - adcman - 2.6-trunk                                                         |
|   Authors:                                                                   |
|   Michael Wormit, Adrian L. Dempwolff, Philipp H. P. Harbach,                |
|   Caroline Krauter, Daniel Lefrancois, Jan-Michael Mewes, Dirk Rehn,         |
|   Matthias Schneider, Jan Wenzel, Andreas Dreuw                              |
|                                                                              |
| Authors of earlier versions of ADCMAN:                                       |
| Andreas Dreuw, Jan Hendrik Starcke, Dirk Rehn, Michael Wormit                |
|                                                                              |
================================================================================

 
 Alpha MOs, Restricted
 -- Occupied --                  
-11.228 -11.226  -1.040  -0.781  -0.660  -0.568  -0.516  -0.377
  1 Ag    1 B3u   2 Ag    2 B3u   1 B2u   3 Ag    1 B1g   1 B1u                
 -- Virtual --                   
  0.072   0.075   0.086   0.093   0.106   0.111   0.157   0.174
  3 B3u   2 B2u   2 B1u   1 B2g   2 B1g   4 Ag    5 Ag    2 B2g                
  0.269   0.276   0.290   0.293   0.311   0.315   0.327   0.396
  4 B3u   3 B2u   5 B3u   6 Ag    4 B2u   3 B1u   3 B1g   3 B2g                
  0.457   0.465   0.480   0.626   0.632   0.661   0.666   0.729
  4 B1g   7 Ag    6 B3u   8 Ag    5 B2u   7 B3u   1 B3g   8 B3u                
  0.761   0.768   0.783   0.828   0.837   0.892   0.916   0.920
  6 B2u   9 Ag    5 B1g   1 Au    4 B1u   9 B3u   4 B2g   5 B1u                
  1.001   1.013   1.064   1.103   1.188   1.206   1.254   1.363
  6 B1g  10 Ag    7 B2u   7 B1g   6 B1u   5 B2g   2 B3g  10 B3u                
  1.387   1.411   1.467   1.509   1.544   1.554   1.635   1.682
 11 Ag    6 B2g   8 B2u  11 B3u  12 Ag    9 B2u   2 Au    8 B1g                
  1.743   1.835   1.904   1.996   2.297   2.679   2.698   2.708
 12 B3u  13 B3u  13 Ag    9 B1g  14 Ag    7 B1u  15 Ag   10 B2u                
  2.765   2.781   2.862   2.871   2.915   3.009   3.081   3.104
  7 B2g   8 B1u  14 B3u  11 B2u   3 B3g  10 B1g  11 B1g   9 B1u                
  3.105   3.147   3.152   3.164   3.192   3.271   3.340   3.342
  4 B3g  12 B2u   3 Au   16 Ag   17 Ag    8 B2g  13 B2u  15 B3u                
  3.418   3.426   3.447   3.490   3.529   3.550   3.599   3.641
  9 B2g   4 Au   16 B3u  12 B1g  17 B3u  10 B1u  18 Ag    5 B3g                
  3.749   3.817   3.898   3.965   3.977   3.985   4.014   4.047
 14 B2u  13 B1g  18 B3u  14 B1g   5 Au   10 B2g  15 B2u  19 Ag                 
  4.061   4.193   4.199   4.202   4.215   4.332   4.351   4.503
 11 B1u  15 B1g  19 B3u   6 B3g  20 Ag   12 B1u  11 B2g  16 B2u                
  4.535   4.606   4.699   4.775   4.815   4.945   4.980   5.051
 20 B3u   6 Au   21 Ag   21 B3u  12 B2g  13 B1u  22 Ag   16 B1g                
  5.150   5.216   5.306   5.324   5.426   5.462   5.546   5.571
 17 B2u   7 B3g  22 B3u  23 Ag    7 Au   17 B1g  13 B2g  24 Ag                 
  5.680   6.054   6.143   6.324   6.612   6.884  12.318  14.807
 18 B2u  23 B3u  18 B1g  19 B2u  24 B3u  19 B1g  25 Ag   25 B3u                
 
 Beta MOs, Restricted
 -- Occupied --                  
-11.228 -11.226  -1.040  -0.781  -0.660  -0.568  -0.516  -0.377
  1 Ag    1 B3u   2 Ag    2 B3u   1 B2u   3 Ag    1 B1g   1 B1u                
 -- Virtual --                   
  0.072   0.075   0.086   0.093   0.106   0.111   0.157   0.174
  3 B3u   2 B2u   2 B1u   1 B2g   2 B1g   4 Ag    5 Ag    2 B2g                
  0.269   0.276   0.290   0.293   0.311   0.315   0.327   0.396
  4 B3u   3 B2u   5 B3u   6 Ag    4 B2u   3 B1u   3 B1g   3 B2g                
  0.457   0.465   0.480   0.626   0.632   0.661   0.666   0.729
  4 B1g   7 Ag    6 B3u   8 Ag    5 B2u   7 B3u   1 B3g   8 B3u                
  0.761   0.768   0.783   0.828   0.837   0.892   0.916   0.920
  6 B2u   9 Ag    5 B1g   1 Au    4 B1u   9 B3u   4 B2g   5 B1u                
  1.001   1.013   1.064   1.103   1.188   1.206   1.254   1.363
  6 B1g  10 Ag    7 B2u   7 B1g   6 B1u   5 B2g   2 B3g  10 B3u                
  1.387   1.411   1.467   1.509   1.544   1.554   1.635   1.682
 11 Ag    6 B2g   8 B2u  11 B3u  12 Ag    9 B2u   2 Au    8 B1g                
  1.743   1.835   1.904   1.996   2.297   2.679   2.698   2.708
 12 B3u  13 B3u  13 Ag    9 B1g  14 Ag    7 B1u  15 Ag   10 B2u                
  2.765   2.781   2.862   2.871   2.915   3.009   3.081   3.104
  7 B2g   8 B1u  14 B3u  11 B2u   3 B3g  10 B1g  11 B1g   9 B1u                
  3.105   3.147   3.152   3.164   3.192   3.271   3.340   3.342
  4 B3g  12 B2u   3 Au   16 Ag   17 Ag    8 B2g  13 B2u  15 B3u                
  3.418   3.426   3.447   3.490   3.529   3.550   3.599   3.641
  9 B2g   4 Au   16 B3u  12 B1g  17 B3u  10 B1u  18 Ag    5 B3g                
  3.749   3.817   3.898   3.965   3.977   3.985   4.014   4.047
 14 B2u  13 B1g  18 B3u  14 B1g   5 Au   10 B2g  15 B2u  19 Ag                 
  4.061   4.193   4.199   4.202   4.215   4.332   4.351   4.503
 11 B1u  15 B1g  19 B3u   6 B3g  20 Ag   12 B1u  11 B2g  16 B2u                
  4.535   4.606   4.699   4.775   4.815   4.945   4.980   5.051
 20 B3u   6 Au   21 Ag   21 B3u  12 B2g  13 B1u  22 Ag   16 B1g                
  5.150   5.216   5.306   5.324   5.426   5.462   5.546   5.571
 17 B2u   7 B3g  22 B3u  23 Ag    7 Au   17 B1g  13 B2g  24 Ag                 
  5.680   6.054   6.143   6.324   6.612   6.884  12.318  14.807
 18 B2u  23 B3u  18 B1g  19 B2u  24 B3u  19 B1g  25 Ag   25 B3u                

--------------------------------------------------------------------------------
                                   HF Summary                                   
--------------------------------------------------------------------------------
  Energy:                                                  -78.0596832514 a.u.
  Dip. moment [a.u.]:                  [   0.000000,   -0.000000,   -0.000000]
  Total dipole [Debye]:                                               0.000001
  <r^2> [a.u.]:                        [  47.676926,   22.099908,   11.968571]
  Total <r^2> [a.u.]:                                                81.745404
--------------------------------------------------------------------------------

--------------------------------------------------------------------------------
                                 MP(2) Summary                                  
--------------------------------------------------------------------------------
  MP energy contribution:                                   -0.3677847067 a.u.
  Total energy:                                            -78.4274679581 a.u.
  Dip. moment [a.u.]:                  [   0.000000,   -0.000000,    0.000000]
  Total dipole [Debye]:                                               0.000001
  <r^2> [a.u.]:                        [  47.645887,   21.991693,   11.729567]
  Total <r^2> [a.u.]:                                                81.367147

  Density matrix analysis:
  ------------------------
  NOs (alpha)
    Occupation of frontier NOs:
       0.0226   0.9661
    Number of electrons:  8.000000
  NOs (beta)
    Occupation of frontier NOs:
       0.0226   0.9661
    Number of electrons:  8.000000
  NOs (spin-traced)
    Occupation of frontier NOs:
       0.0452   1.9321
    Number of electrons: 16.000000
    Number of unpaired electrons: n_u =  0.45301, n_u,nl =  0.05294
    NO participation ratio (PR_NO): 14.828227
  
  
  Mulliken Population Analysis
  Atom  Charge (e)    Spin (e)  h+ (alpha)   h+ (beta)  e- (alpha)   e- (beta)
  ----------------------------------------------------------------------------
   1 C   -0.303997    0.000000    0.044929    0.044929   -0.060154   -0.060154
   2 C   -0.303997    0.000000    0.044929    0.044929   -0.060154   -0.060154
   3 H    0.151978    0.000000    0.012459    0.012459   -0.004847   -0.004847
   4 H    0.152042    0.000000    0.012459    0.012459   -0.004847   -0.004847
   5 H    0.152019    0.000000    0.012459    0.012459   -0.004847   -0.004847
   6 H    0.151956    0.000000    0.012459    0.012459   -0.004847   -0.004847
  ----------------------------------------------------------------------------
  Sum:    0.000000    0.000000    0.139695    0.139695   -0.139695   -0.139695
  
  Multipole moment analysis of the density matrix
    Molecular charge:                      0.000000
    Number of electrons:                   16.000000
      Center of electronic charge [Ang]: [ -0.000000,   0.000000,  -0.000000]
    Total nuclear charge:                  16.000000
      Center of nuclear charge [Ang]:    [  0.000000,   0.000000,   0.000000]
    Dipole moment [D]:                     0.000001
      Cartesian components [D]:          [  0.000000,  -0.000001,   0.000000]
    RMS size of the density [Ang]:         1.193344
      Cartesian components [Ang]:        [  0.913175,   0.620398,   0.453088]
  
  Exciton analysis of the difference density matrix
  Total:
    <r_h> [Ang]:                  [  0.000000,   0.000000,   0.000000]
    <r_e> [Ang]:                  [  0.000000,   0.000000,  -0.000000]
    |<r_e - r_h>| [Ang]:            0.000000
    Hole size [Ang]:                1.446162
      Cartesian components [Ang]: [  0.970699,   0.749218,   0.766683]
    Electron size [Ang]:            1.308535
      Cartesian components [Ang]: [  0.954540,   0.672953,   0.590130]
  
  Alpha spin:
    <r_h> [Ang]:                  [  0.000000,   0.000000,   0.000000]
    <r_e> [Ang]:                  [  0.000000,   0.000000,  -0.000000]
    |<r_e - r_h>| [Ang]:            0.000000
    Hole size [Ang]:                1.446162
      Cartesian components [Ang]: [  0.970699,   0.749218,   0.766683]
    Electron size [Ang]:            1.308535
      Cartesian components [Ang]: [  0.954540,   0.672953,   0.590130]
  
  Beta spin:
    <r_h> [Ang]:                  [  0.000000,   0.000000,   0.000000]
    <r_e> [Ang]:                  [  0.000000,   0.000000,  -0.000000]
    |<r_e - r_h>| [Ang]:            0.000000
    Hole size [Ang]:                1.446162
      Cartesian components [Ang]: [  0.970699,   0.749218,   0.766683]
    Electron size [Ang]:            1.308535
      Cartesian components [Ang]: [  0.954540,   0.672953,   0.590130]
--------------------------------------------------------------------------------
Less particle guess vectors found than requested: 13 (found), 100 (requested).
Adjusting number of hole-2particle guess vectors to 87.
  Starting Davidson for electron-attached states of irrep B2g ... 
--------------------------------------------------------------------------------
   It NVec Conv  Avg. Norm  Max. Norm  Conv. states           Remark
--------------------------------------------------------------------------------
       100    0  5.442e-02  3.859e-01  0.0951 n n n n n n n n Guess.
    1  110    4  7.689e-04  4.987e-03  0.0690 n n n n n y y y 
    2  120   10  6.102e-07  4.342e-06  0.0690 y y y y y y y y Converged.
--------------------------------------------------------------------------------
  Davidson Summary: 
 ------------------------------------------------------------
  State  0: electron attachment energy =   0.0690 a.u.   (converged)
  State  1: electron attachment energy =   0.1324 a.u.   (converged)
  State  2: electron attachment energy =   0.3540 a.u.   (converged)
  State  3: electron attachment energy =   0.5572 a.u.   (converged)
  State  4: electron attachment energy =   0.5574 a.u.   (converged)
  State  5: electron attachment energy =   0.5584 a.u.   (converged)
  State  6: electron attachment energy =   0.5584 a.u.   (converged)
  State  7: electron attachment energy =   0.5598 a.u.   (converged)
  State  8: electron attachment energy =   0.5599 a.u.   (converged)
  State  9: electron attachment energy =   0.6063 a.u.   (converged)
 ------------------------------------------------------------


--------------------------------------------------------------------------------
                        Electron-Attached State Summary
--------------------------------------------------------------------------------

  Electron-attached state 1 (B2g)                                  [converged]
  ----------------------------------------------------------------------------
  Term symbol:  1 (2) B2g                                   R^2 =  4.34238e-06

  Total energy:                                            -78.3584591118 a.u.
  Electron attachment energy:                                      1.877826 eV

  Pole strength:                                                      0.952896

  Dip. moment [a.u.]:                  [   0.000000,   -0.000000,    0.000000]
  Total dipole [Debye]:                                               0.000001
  <r^2> [a.u.]:                        [  60.823375,   26.832858,   23.333172]
  Total <r^2> [a.u.]:                                               110.989405

  V1^2 = 0.9638, V2^2 = 0.0362

  Important amplitudes:
       occ i       vir a        vir b           v   
    -------------------------------------------------
                               1 (B2g) B      0.8998
                               2 (B2g) B      0.3822
    -------------------------------------------------

  Density matrix analysis:
  ------------------------
  NOs (alpha)
    Occupation of frontier NOs:
       0.0189   0.9638
    Number of electrons:  8.000000
  NOs (beta)
    Occupation of frontier NOs:
       0.0223   0.9722
    Number of electrons:  9.000000
  NOs (spin-traced)
    Occupation of frontier NOs:
       0.0318   0.9871
    Number of electrons: 17.000000
    Number of unpaired electrons: n_u =  1.47049, n_u,nl =  1.05336
    NO participation ratio (PR_NO):  2.187760
  
  
  Mulliken Population Analysis
  Atom  Charge (e)    Spin (e)  h+ (alpha)   h+ (beta)  e- (alpha)   e- (beta)
  ----------------------------------------------------------------------------
   1 C   -0.711235    0.527508    0.078064    0.062247   -0.017929   -0.529620
   2 C   -0.711235    0.527508    0.078064    0.062247   -0.017929   -0.529620
   3 H    0.105596   -0.013753    0.000784    0.006802   -0.030852   -0.023117
   4 H    0.105661   -0.013756    0.000784    0.006803   -0.030853   -0.023115
   5 H    0.105639   -0.013755    0.000785    0.006803   -0.030852   -0.023115
   6 H    0.105575   -0.013752    0.000785    0.006802   -0.030851   -0.023117
  ----------------------------------------------------------------------------
  Sum:   -1.000000    1.000000    0.159266    0.151704   -0.159266   -1.151704
  
  Multipole moment analysis of the density matrix
    Molecular charge:                      -1.000000
    Number of electrons:                   17.000000
      Center of electronic charge [Ang]: [ -0.000000,   0.000000,  -0.000000]
    Total nuclear charge:                  16.000000
      Center of nuclear charge [Ang]:    [  0.000000,   0.000000,   0.000000]
    Dipole moment [D]:                     0.000001
      Cartesian components [D]:          [  0.000000,  -0.000001,   0.000000]
    RMS size of the density [Ang]:         1.352127
      Cartesian components [Ang]:        [  1.000949,   0.664829,   0.619960]
  
  Exciton analysis of the difference density matrix
  Total:
    <r_h> [Ang]:                  [  0.000000,   0.000000,  -0.000000]
    <r_e> [Ang]:                  [  0.000000,   0.000000,  -0.000000]
    |<r_e - r_h>| [Ang]:            0.000000
    Hole size [Ang]:                1.460042
      Cartesian components [Ang]: [  1.026109,   0.740332,   0.728513]
    Electron size [Ang]:            2.614018
      Cartesian components [Ang]: [  1.750577,   1.078936,   1.613837]
  
  Alpha spin:
    <r_h> [Ang]:                  [  0.000000,   0.000000,  -0.000000]
    <r_e> [Ang]:                  [  0.000000,   0.000000,   0.000000]
    |<r_e - r_h>| [Ang]:            0.000000
    Hole size [Ang]:                1.408287
      Cartesian components [Ang]: [  1.006367,   0.715229,   0.677453]
    Electron size [Ang]:            2.165349
      Cartesian components [Ang]: [  1.410708,   1.261232,   1.052584]
  
  Beta spin:
    <r_h> [Ang]:                  [  0.000000,   0.000000,  -0.000000]
    <r_e> [Ang]:                  [  0.000000,   0.000000,  -0.000000]
    |<r_e - r_h>| [Ang]:            0.000000
    Hole size [Ang]:                1.512472
      Cartesian components [Ang]: [  1.046434,   0.765802,   0.778522]
    Electron size [Ang]:            2.670136
      Cartesian components [Ang]: [  1.792511,   1.051242,   1.676729]
  ----------------------------------------------------------------------------


  Electron-attached state 2 (B2g)                                  [converged]
  ----------------------------------------------------------------------------
  Term symbol:  2 (2) B2g                                   R^2 =  3.84884e-06

  Total energy:                                            -78.2950385483 a.u.
  Electron attachment energy:                                      3.603588 eV

  Pole strength:                                                      0.965540

  Dip. moment [a.u.]:                  [   0.000000,   -0.000001,    0.000000]
  Total dipole [Debye]:                                               0.000001
  <r^2> [a.u.]:                        [  70.203218,   29.801928,   33.147304]
  Total <r^2> [a.u.]:                                               133.152451

  V1^2 = 0.9722, V2^2 = 0.0278

  Important amplitudes:
       occ i       vir a        vir b           v   
    -------------------------------------------------
                               2 (B2g) B     -0.8843
                               1 (B2g) B      0.4194
    -------------------------------------------------

  Density matrix analysis:
  ------------------------
  NOs (alpha)
    Occupation of frontier NOs:
       0.0220   0.9613
    Number of electrons:  8.000000
  NOs (beta)
    Occupation of frontier NOs:
       0.0281   0.9701
    Number of electrons:  9.000000
  NOs (spin-traced)
    Occupation of frontier NOs:
       0.0431   0.9852
    Number of electrons: 17.000000
    Number of unpaired electrons: n_u =  1.47896, n_u,nl =  1.05811
    NO participation ratio (PR_NO):  2.218760
  
  
  Mulliken Population Analysis
  Atom  Charge (e)    Spin (e)  h+ (alpha)   h+ (beta)  e- (alpha)   e- (beta)
  ----------------------------------------------------------------------------
   1 C   -0.721314    0.499838    0.057174    0.039992   -0.015914   -0.498569
   2 C   -0.721314    0.499838    0.057174    0.039992   -0.015914   -0.498569
   3 H    0.110636    0.000082    0.000661    0.001837   -0.021291   -0.022549
   4 H    0.110700    0.000080    0.000661    0.001837   -0.021292   -0.022548
   5 H    0.110679    0.000081    0.000661    0.001837   -0.021291   -0.022548
   6 H    0.110614    0.000082    0.000661    0.001837   -0.021291   -0.022549
  ----------------------------------------------------------------------------
  Sum:   -1.000000    1.000000    0.116993    0.087333   -0.116993   -1.087333
  
  Multipole moment analysis of the density matrix
    Molecular charge:                      -1.000000
    Number of electrons:                   17.000000
      Center of electronic charge [Ang]: [ -0.000000,   0.000000,  -0.000000]
    Total nuclear charge:                  16.000000
      Center of nuclear charge [Ang]:    [  0.000000,   0.000000,   0.000000]
    Dipole moment [D]:                     0.000001
      Cartesian components [D]:          [  0.000000,  -0.000001,   0.000000]
    RMS size of the density [Ang]:         1.480987
      Cartesian components [Ang]:        [  1.075363,   0.700646,   0.738926]
  
  Exciton analysis of the difference density matrix
  Total:
    <r_h> [Ang]:                  [  0.000000,   0.000000,  -0.000000]
    <r_e> [Ang]:                  [  0.000000,   0.000000,  -0.000000]
    |<r_e - r_h>| [Ang]:            0.000000
    Hole size [Ang]:                1.310103
      Cartesian components [Ang]: [  0.963515,   0.676921,   0.574270]
    Electron size [Ang]:            3.511732
      Cartesian components [Ang]: [  2.324330,   1.376143,   2.244099]
  
  Alpha spin:
    <r_h> [Ang]:                  [  0.000000,   0.000000,  -0.000000]
    <r_e> [Ang]:                  [  0.000000,   0.000000,   0.000000]
    |<r_e - r_h>| [Ang]:            0.000000
    Hole size [Ang]:                1.321008
      Cartesian components [Ang]: [  0.960929,   0.664211,   0.616849]
    Electron size [Ang]:            2.124871
      Cartesian components [Ang]: [  1.395034,   1.230976,   1.026477]
  
  Beta spin:
    <r_h> [Ang]:                  [  0.000000,   0.000000,  -0.000000]
    <r_e> [Ang]:                  [  0.000000,   0.000000,  -0.000000]
    |<r_e - r_h>| [Ang]:            0.000000
    Hole size [Ang]:                1.295349
      Cartesian components [Ang]: [  0.966968,   0.693583,   0.511708]
    Electron size [Ang]:            3.629513
      Cartesian components [Ang]: [  2.402999,   1.390860,   2.337619]
  ----------------------------------------------------------------------------


  Electron-attached state 3 (B2g)                                  [converged]
  ----------------------------------------------------------------------------
  Term symbol:  3 (2) B2g                                   R^2 =  1.88630e-06

  Total energy:                                            -78.0734189114 a.u.
  Electron attachment energy:                                      9.634165 eV

  Pole strength:                                                      0.958462

  Dip. moment [a.u.]:                  [   0.000000,   -0.000001,    0.000000]
  Total dipole [Debye]:                                               0.000002
  <r^2> [a.u.]:                        [  64.074256,   27.895284,   27.583637]
  Total <r^2> [a.u.]:                                               119.553177

  V1^2 = 0.9609, V2^2 = 0.0391

  Important amplitudes:
       occ i       vir a        vir b           v   
    -------------------------------------------------
                               3 (B2g) B      0.9599
                               2 (B2g) B     -0.1767
    -------------------------------------------------

  Density matrix analysis:
  ------------------------
  NOs (alpha)
    Occupation of frontier NOs:
       0.0309   0.9497
    Number of electrons:  8.000000
  NOs (beta)
    Occupation of frontier NOs:
       0.0359   0.9645
    Number of electrons:  9.000000
  NOs (spin-traced)
    Occupation of frontier NOs:
       0.0644   0.9674
    Number of electrons: 17.000000
    Number of unpaired electrons: n_u =  1.52021, n_u,nl =  1.07707
    NO participation ratio (PR_NO):  2.415387
  
  
  Mulliken Population Analysis
  Atom  Charge (e)    Spin (e)  h+ (alpha)   h+ (beta)  e- (alpha)   e- (beta)
  ----------------------------------------------------------------------------
   1 C   -0.724588    0.507159    0.051859    0.038785   -0.008575   -0.502660
   2 C   -0.724588    0.507159    0.051859    0.038785   -0.008575   -0.502660
   3 H    0.112273   -0.003579   -0.001592   -0.001151   -0.020050   -0.016911
   4 H    0.112336   -0.003580   -0.001593   -0.001151   -0.020050   -0.016911
   5 H    0.112315   -0.003579   -0.001592   -0.001151   -0.020050   -0.016911
   6 H    0.112252   -0.003579   -0.001592   -0.001151   -0.020049   -0.016911
  ----------------------------------------------------------------------------
  Sum:   -1.000000    1.000000    0.097349    0.072965   -0.097349   -1.072965
  
  Multipole moment analysis of the density matrix
    Molecular charge:                      -1.000000
    Number of electrons:                   17.000000
      Center of electronic charge [Ang]: [ -0.000000,   0.000000,  -0.000000]
    Total nuclear charge:                  16.000000
      Center of nuclear charge [Ang]:    [  0.000000,   0.000000,   0.000000]
    Dipole moment [D]:                     0.000002
      Cartesian components [D]:          [  0.000000,  -0.000002,   0.000000]
    RMS size of the density [Ang]:         1.403322
      Cartesian components [Ang]:        [  1.027350,   0.677863,   0.674066]
  
  Exciton analysis of the difference density matrix
  Total:
    <r_h> [Ang]:                  [  0.000000,   0.000000,  -0.000000]
    <r_e> [Ang]:                  [  0.000000,   0.000000,  -0.000000]
    |<r_e - r_h>| [Ang]:            0.000000
    Hole size [Ang]:                1.352004
      Cartesian components [Ang]: [  0.974440,   0.709976,   0.611814]
    Electron size [Ang]:            3.066436
      Cartesian components [Ang]: [  2.017202,   1.218994,   1.961626]
  
  Alpha spin:
    <r_h> [Ang]:                  [  0.000000,   0.000000,  -0.000000]
    <r_e> [Ang]:                  [  0.000000,   0.000000,   0.000000]
    |<r_e - r_h>| [Ang]:            0.000000
    Hole size [Ang]:                1.257405
      Cartesian components [Ang]: [  0.925807,   0.642341,   0.557985]
    Electron size [Ang]:            2.085077
      Cartesian components [Ang]: [  1.376277,   1.217497,   0.985447]
  
  Beta spin:
    <r_h> [Ang]:                  [  0.000000,   0.000000,  -0.000000]
    <r_e> [Ang]:                  [  0.000000,   0.000000,  -0.000000]
    |<r_e - r_h>| [Ang]:            0.000000
    Hole size [Ang]:                1.468758
      Cartesian components [Ang]: [  1.035775,   0.791261,   0.677000]
    Electron size [Ang]:            3.140335
      Cartesian components [Ang]: [  2.065535,   1.219129,   2.027065]
  ----------------------------------------------------------------------------


  Electron-attached state 4 (B2g)                                  [converged]
  ----------------------------------------------------------------------------
  Term symbol:  4 (2) B2g                                   R^2 =  2.48778e-08

  Total energy:                                            -77.8702727247 a.u.
  Electron attachment energy:                                     15.162053 eV

  Pole strength:                                                      0.000877

  Dip. moment [a.u.]:                  [   0.000000,   -0.000001,    0.000000]
  Total dipole [Debye]:                                               0.000001
  <r^2> [a.u.]:                        [  78.886186,   38.861340,   62.345877]
  Total <r^2> [a.u.]:                                               180.093403

  V1^2 = 0.0009, V2^2 = 0.9991

  Important amplitudes:
       occ i       vir a        vir b           v   
    -------------------------------------------------
     1 (B1u) B    1 (B2g) B    2 (B1u) B      0.5530
     1 (B1u) A    2 (B1u) A    1 (B2g) B     -0.4184
    -------------------------------------------------

  Density matrix analysis:
  ------------------------
  NOs (alpha)
    Occupation of frontier NOs:
       0.3489   0.5816
    Number of electrons:  8.000000
  NOs (beta)
    Occupation of frontier NOs:
       0.3524   0.6513
    Number of electrons:  9.000000
  NOs (spin-traced)
    Occupation of frontier NOs:
       0.9080   1.0064
    Number of electrons: 17.000000
    Number of unpaired electrons: n_u =  3.25250, n_u,nl =  3.01509
    NO participation ratio (PR_NO):  3.820591
  
  
  Mulliken Population Analysis
  Atom  Charge (e)    Spin (e)  h+ (alpha)   h+ (beta)  e- (alpha)   e- (beta)
  ----------------------------------------------------------------------------
   1 C   -0.809966    0.498396    0.189822    0.299789   -0.193608   -0.801971
   2 C   -0.809966    0.498396    0.189822    0.299789   -0.193608   -0.801971
   3 H    0.154962    0.000802    0.002238    0.003543   -0.000345   -0.002452
   4 H    0.155026    0.000802    0.002238    0.003543   -0.000345   -0.002452
   5 H    0.155004    0.000802    0.002238    0.003543   -0.000345   -0.002452
   6 H    0.154940    0.000802    0.002238    0.003543   -0.000345   -0.002452
  ----------------------------------------------------------------------------
  Sum:   -1.000000    1.000000    0.388595    0.613751   -0.388595   -1.613751
  
  Multipole moment analysis of the density matrix
    Molecular charge:                      -1.000000
    Number of electrons:                   17.000000
      Center of electronic charge [Ang]: [ -0.000000,   0.000000,  -0.000000]
    Total nuclear charge:                  16.000000
      Center of nuclear charge [Ang]:    [  0.000000,   0.000000,   0.000000]
    Dipole moment [D]:                     0.000001
      Cartesian components [D]:          [  0.000000,  -0.000001,   0.000000]
    RMS size of the density [Ang]:         1.722367
      Cartesian components [Ang]:        [  1.139927,   0.800084,   1.013399]
  
  Exciton analysis of the difference density matrix
  Total:
    <r_h> [Ang]:                  [ -0.000000,   0.000000,   0.000000]
    <r_e> [Ang]:                  [  0.000000,   0.000000,  -0.000000]
    |<r_e - r_h>| [Ang]:            0.000000
    Hole size [Ang]:                1.262544
      Cartesian components [Ang]: [  0.748558,   0.521581,   0.872715]
    Electron size [Ang]:            3.821626
      Cartesian components [Ang]: [  2.156261,   1.579685,   2.731293]
  
  Alpha spin:
    <r_h> [Ang]:                  [ -0.000000,   0.000000,   0.000000]
    <r_e> [Ang]:                  [  0.000000,   0.000000,  -0.000000]
    |<r_e - r_h>| [Ang]:            0.000000
    Hole size [Ang]:                1.264956
      Cartesian components [Ang]: [  0.749566,   0.522848,   0.874582]
    Electron size [Ang]:            3.883327
      Cartesian components [Ang]: [  1.855817,   1.707820,   2.952884]
  
  Beta spin:
    <r_h> [Ang]:                  [ -0.000000,   0.000000,   0.000000]
    <r_e> [Ang]:                  [ -0.000000,   0.000000,  -0.000000]
    |<r_e - r_h>| [Ang]:            0.000000
    Hole size [Ang]:                1.261014
      Cartesian components [Ang]: [  0.747918,   0.520777,   0.871530]
    Electron size [Ang]:            3.806619
      Cartesian components [Ang]: [  2.222549,   1.547246,   2.675193]
  ----------------------------------------------------------------------------


  Electron-attached state 5 (B2g)                                  [converged]
  ----------------------------------------------------------------------------
  Term symbol:  5 (2) B2g                                   R^2 =  1.63473e-08

  Total energy:                                            -77.8700761230 a.u.
  Electron attachment energy:                                     15.167403 eV

  Pole strength:                                                      0.002687

  Dip. moment [a.u.]:                  [   0.000000,   -0.000001,    0.000000]
  Total dipole [Debye]:                                               0.000001
  <r^2> [a.u.]:                        [  79.085056,   38.935895,   62.492108]
  Total <r^2> [a.u.]:                                               180.513059

  V1^2 = 0.0027, V2^2 = 0.9973

  Important amplitudes:
       occ i       vir a        vir b           v   
    -------------------------------------------------
     1 (B1u) A    1 (B2g) A    2 (B1u) B      0.5595
     1 (B1u) A    2 (B1u) A    1 (B2g) B      0.3968
    -------------------------------------------------

  Density matrix analysis:
  ------------------------
  NOs (alpha)
    Occupation of frontier NOs:
       0.3159   0.6300
    Number of electrons:  8.000000
  NOs (beta)
    Occupation of frontier NOs:
       0.3719   0.6796
    Number of electrons:  9.000000
  NOs (spin-traced)
    Occupation of frontier NOs:
       0.9338   0.9982
    Number of electrons: 17.000000
    Number of unpaired electrons: n_u =  3.31385, n_u,nl =  3.02507
    NO participation ratio (PR_NO):  3.821750
  
  
  Mulliken Population Analysis
  Atom  Charge (e)    Spin (e)  h+ (alpha)   h+ (beta)  e- (alpha)   e- (beta)
  ----------------------------------------------------------------------------
   1 C   -0.810622    0.490804    0.460663    0.026646   -0.468573   -0.525360
   2 C   -0.810622    0.490804    0.460663    0.026646   -0.468573   -0.525360
   3 H    0.155290    0.004598    0.005460    0.000302   -0.001505   -0.000945
   4 H    0.155354    0.004598    0.005460    0.000302   -0.001505   -0.000945
   5 H    0.155332    0.004598    0.005460    0.000302   -0.001505   -0.000945
   6 H    0.155268    0.004598    0.005460    0.000302   -0.001505   -0.000945
  ----------------------------------------------------------------------------
  Sum:   -1.000000    1.000000    0.943166    0.054501   -0.943166   -1.054501
  
  Multipole moment analysis of the density matrix
    Molecular charge:                      -1.000000
    Number of electrons:                   17.000000
      Center of electronic charge [Ang]: [ -0.000000,   0.000000,  -0.000000]
    Total nuclear charge:                  16.000000
      Center of nuclear charge [Ang]:    [  0.000000,   0.000000,   0.000000]
    Dipole moment [D]:                     0.000001
      Cartesian components [D]:          [  0.000000,  -0.000001,   0.000000]
    RMS size of the density [Ang]:         1.724372
      Cartesian components [Ang]:        [  1.141363,   0.800851,   1.014587]
  
  Exciton analysis of the difference density matrix
  Total:
    <r_h> [Ang]:                  [ -0.000000,   0.000000,   0.000000]
    <r_e> [Ang]:                  [ -0.000000,   0.000000,  -0.000000]
    |<r_e - r_h>| [Ang]:            0.000000
    Hole size [Ang]:                1.243951
      Cartesian components [Ang]: [  0.741566,   0.512465,   0.857247]
    Electron size [Ang]:            3.830255
      Cartesian components [Ang]: [  2.163726,   1.583148,   2.735468]
  
  Alpha spin:
    <r_h> [Ang]:                  [ -0.000000,   0.000000,   0.000000]
    <r_e> [Ang]:                  [ -0.000000,   0.000000,  -0.000000]
    |<r_e - r_h>| [Ang]:            0.000000
    Hole size [Ang]:                1.243421
      Cartesian components [Ang]: [  0.741317,   0.512130,   0.856894]
    Electron size [Ang]:            3.804171
      Cartesian components [Ang]: [  2.272794,   1.527984,   2.640339]
  
  Beta spin:
    <r_h> [Ang]:                  [ -0.000000,   0.000000,   0.000000]
    <r_e> [Ang]:                  [  0.000000,   0.000000,  -0.000000]
    |<r_e - r_h>| [Ang]:            0.000000
    Hole size [Ang]:                1.253079
      Cartesian components [Ang]: [  0.745865,   0.518227,   0.863327]
    Electron size [Ang]:            3.853435
      Cartesian components [Ang]: [  2.061290,   1.630907,   2.817834]
  ----------------------------------------------------------------------------


  Electron-attached state 6 (B2g)                                  [converged]
  ----------------------------------------------------------------------------
  Term symbol:  6 (2) B2g                                   R^2 =  2.88690e-10

  Total energy:                                            -77.8690796721 a.u.
  Electron attachment energy:                                     15.194518 eV

  Pole strength:                                                      0.000000

  Dip. moment [a.u.]:                  [  -0.000000,    0.000000,    0.000000]
  Total dipole [Debye]:                                               0.000000
  <r^2> [a.u.]:                        [  86.530577,   81.804628,   28.702358]
  Total <r^2> [a.u.]:                                               197.037563

  V1^2 = 0.0000, V2^2 = 1.0000

  Important amplitudes:
       occ i       vir a        vir b           v   
    -------------------------------------------------
     1 (B1u) A    2 (B1g) A    2 (B2u) B      0.5048
     1 (B1u) B    2 (B1g) B    2 (B2u) B      0.4951
    -------------------------------------------------

  Density matrix analysis:
  ------------------------
  NOs (alpha)
    Occupation of frontier NOs:
       0.4569   0.5101
    Number of electrons:  8.000000
  NOs (beta)
    Occupation of frontier NOs:
       0.4765   0.4908
    Number of electrons:  9.000000
  NOs (spin-traced)
    Occupation of frontier NOs:
       0.9335   1.0008
    Number of electrons: 17.000000
    Number of unpaired electrons: n_u =  3.31303, n_u,nl =  3.02665
    NO participation ratio (PR_NO):  3.816089
  
  
  Mulliken Population Analysis
  Atom  Charge (e)    Spin (e)  h+ (alpha)   h+ (beta)  e- (alpha)   e- (beta)
  ----------------------------------------------------------------------------
   1 C   -0.632783    0.460896    0.249012    0.239404   -0.182957   -0.634245
   2 C   -0.632783    0.460896    0.249012    0.239404   -0.182957   -0.634245
   3 H    0.066371    0.019552    0.002953    0.002839   -0.035980   -0.055418
   4 H    0.066435    0.019552    0.002953    0.002839   -0.035980   -0.055418
   5 H    0.066412    0.019552    0.002953    0.002839   -0.035980   -0.055418
   6 H    0.066349    0.019552    0.002953    0.002839   -0.035980   -0.055418
  ----------------------------------------------------------------------------
  Sum:   -1.000000    1.000000    0.509836    0.490164   -0.509836   -1.490164
  
  Multipole moment analysis of the density matrix
    Molecular charge:                      -1.000000
    Number of electrons:                   17.000000
      Center of electronic charge [Ang]: [  0.000000,   0.000000,  -0.000000]
    Total nuclear charge:                  16.000000
      Center of nuclear charge [Ang]:    [  0.000000,   0.000000,   0.000000]
    Dipole moment [D]:                     0.000000
      Cartesian components [D]:          [ -0.000000,   0.000000,   0.000000]
    RMS size of the density [Ang]:         1.801570
      Cartesian components [Ang]:        [  1.193882,   1.160822,   0.687599]
  
  Exciton analysis of the difference density matrix
  Total:
    <r_h> [Ang]:                  [ -0.000000,   0.000000,   0.000000]
    <r_e> [Ang]:                  [  0.000000,  -0.000000,  -0.000000]
    |<r_e - r_h>| [Ang]:            0.000000
    Hole size [Ang]:                1.247799
      Cartesian components [Ang]: [  0.742804,   0.514156,   0.860748]
    Electron size [Ang]:            4.119953
      Cartesian components [Ang]: [  2.391713,   2.916649,   1.657370]
  
  Alpha spin:
    <r_h> [Ang]:                  [ -0.000000,   0.000000,   0.000000]
    <r_e> [Ang]:                  [  0.000000,   0.000000,  -0.000000]
    |<r_e - r_h>| [Ang]:            0.000000
    Hole size [Ang]:                1.247799
      Cartesian components [Ang]: [  0.742804,   0.514155,   0.860748]
    Electron size [Ang]:            4.332378
      Cartesian components [Ang]: [  2.863900,   2.833442,   1.593483]
  
  Beta spin:
    <r_h> [Ang]:                  [ -0.000000,   0.000000,   0.000000]
    <r_e> [Ang]:                  [  0.000000,  -0.000000,  -0.000000]
    |<r_e - r_h>| [Ang]:            0.000000
    Hole size [Ang]:                1.247799
      Cartesian components [Ang]: [  0.742804,   0.514156,   0.860748]
    Electron size [Ang]:            4.044714
      Cartesian components [Ang]: [  2.207089,   2.944578,   1.678670]
  ----------------------------------------------------------------------------


  Electron-attached state 7 (B2g)                                  [converged]
  ----------------------------------------------------------------------------
  Term symbol:  7 (2) B2g                                   R^2 =  2.85750e-10

  Total energy:                                            -77.8690777072 a.u.
  Electron attachment energy:                                     15.194571 eV

  Pole strength:                                                      0.000009

  Dip. moment [a.u.]:                  [  -0.000000,    0.000000,    0.000000]
  Total dipole [Debye]:                                               0.000000
  <r^2> [a.u.]:                        [  86.527762,   81.775543,   28.724283]
  Total <r^2> [a.u.]:                                               197.027588

  V1^2 = 0.0000, V2^2 = 1.0000

  Important amplitudes:
       occ i       vir a        vir b           v   
    -------------------------------------------------
     1 (B1u) A    2 (B2u) A    2 (B1g) B     -0.5771
     1 (B1u) B    2 (B1g) B    2 (B2u) B      0.2970
    -------------------------------------------------

  Density matrix analysis:
  ------------------------
  NOs (alpha)
    Occupation of frontier NOs:
       0.1573   0.6666
    Number of electrons:  8.000000
  NOs (beta)
    Occupation of frontier NOs:
       0.3339   0.7895
    Number of electrons:  9.000000
  NOs (spin-traced)
    Occupation of frontier NOs:
       0.9335   1.0002
    Number of electrons: 17.000000
    Number of unpaired electrons: n_u =  3.31580, n_u,nl =  3.02670
    NO participation ratio (PR_NO):  3.818755
  
  
  Mulliken Population Analysis
  Atom  Charge (e)    Spin (e)  h+ (alpha)   h+ (beta)  e- (alpha)   e- (beta)
  ----------------------------------------------------------------------------
   1 C   -0.632864    0.409556    0.402090    0.086324   -0.361745   -0.455535
   2 C   -0.632864    0.409556    0.402090    0.086324   -0.361745   -0.455535
   3 H    0.066411    0.045222    0.004768    0.001024   -0.024940   -0.066418
   4 H    0.066475    0.045222    0.004768    0.001024   -0.024940   -0.066418
   5 H    0.066453    0.045222    0.004768    0.001024   -0.024940   -0.066418
   6 H    0.066389    0.045222    0.004768    0.001024   -0.024940   -0.066418
  ----------------------------------------------------------------------------
  Sum:   -1.000000    1.000000    0.823252    0.176743   -0.823252   -1.176743
  
  Multipole moment analysis of the density matrix
    Molecular charge:                      -1.000000
    Number of electrons:                   17.000000
      Center of electronic charge [Ang]: [  0.000000,   0.000000,  -0.000000]
    Total nuclear charge:                  16.000000
      Center of nuclear charge [Ang]:    [  0.000000,   0.000000,   0.000000]
    Dipole moment [D]:                     0.000000
      Cartesian components [D]:          [ -0.000000,   0.000000,   0.000000]
    RMS size of the density [Ang]:         1.801525
      Cartesian components [Ang]:        [  1.193863,   1.160616,   0.687862]
  
  Exciton analysis of the difference density matrix
  Total:
    <r_h> [Ang]:                  [ -0.000000,   0.000000,   0.000000]
    <r_e> [Ang]:                  [  0.000000,  -0.000000,  -0.000000]
    |<r_e - r_h>| [Ang]:            0.000000
    Hole size [Ang]:                1.247831
      Cartesian components [Ang]: [  0.742817,   0.514172,   0.860774]
    Electron size [Ang]:            4.119793
      Cartesian components [Ang]: [  2.391635,   2.915956,   1.658305]
  
  Alpha spin:
    <r_h> [Ang]:                  [ -0.000000,   0.000000,   0.000000]
    <r_e> [Ang]:                  [  0.000000,  -0.000000,  -0.000000]
    |<r_e - r_h>| [Ang]:            0.000000
    Hole size [Ang]:                1.247795
      Cartesian components [Ang]: [  0.742803,   0.514154,   0.860744]
    Electron size [Ang]:            3.982684
      Cartesian components [Ang]: [  2.045679,   2.966516,   1.696100]
  
  Beta spin:
    <r_h> [Ang]:                  [ -0.000000,   0.000000,   0.000000]
    <r_e> [Ang]:                  [  0.000000,  -0.000000,   0.000000]
    |<r_e - r_h>| [Ang]:            0.000000
    Hole size [Ang]:                1.247998
      Cartesian components [Ang]: [  0.742879,   0.514253,   0.860915]
    Electron size [Ang]:            4.213062
      Cartesian components [Ang]: [  2.606509,   2.880056,   1.631343]
  ----------------------------------------------------------------------------


  Electron-attached state 8 (B2g)                                  [converged]
  ----------------------------------------------------------------------------
  Term symbol:  8 (2) B2g                                   R^2 =  9.49452e-10

  Total energy:                                            -77.8676334555 a.u.
  Electron attachment energy:                                     15.233872 eV

  Pole strength:                                                      0.000004

  Dip. moment [a.u.]:                  [   0.000000,   -0.000000,   -0.000000]
  Total dipole [Debye]:                                               0.000001
  <r^2> [a.u.]:                        [ 124.575816,   42.647987,   31.413894]
  Total <r^2> [a.u.]:                                               198.637697

  V1^2 = 0.0000, V2^2 = 1.0000

  Important amplitudes:
       occ i       vir a        vir b           v   
    -------------------------------------------------
     1 (B1u) A    3 (B3u) A    4 (Ag ) B      0.5738
     1 (B1u) A    4 (Ag ) A    3 (B3u) B      0.3419
    -------------------------------------------------

  Density matrix analysis:
  ------------------------
  NOs (alpha)
    Occupation of frontier NOs:
       0.2341   0.6590
    Number of electrons:  8.000000
  NOs (beta)
    Occupation of frontier NOs:
       0.3418   0.7666
    Number of electrons:  9.000000
  NOs (spin-traced)
    Occupation of frontier NOs:
       0.9335   1.0006
    Number of electrons: 17.000000
    Number of unpaired electrons: n_u =  3.31444, n_u,nl =  3.02674
    NO participation ratio (PR_NO):  3.817420
  
  
  Mulliken Population Analysis
  Atom  Charge (e)    Spin (e)  h+ (alpha)   h+ (beta)  e- (alpha)   e- (beta)
  ----------------------------------------------------------------------------
   1 C   -0.748880    0.491546    0.435840    0.052575   -0.412508   -0.520790
   2 C   -0.748880    0.491546    0.435840    0.052575   -0.412508   -0.520790
   3 H    0.124419    0.004227    0.005168    0.000623   -0.016835   -0.016516
   4 H    0.124483    0.004227    0.005168    0.000623   -0.016834   -0.016516
   5 H    0.124461    0.004227    0.005168    0.000623   -0.016834   -0.016516
   6 H    0.124397    0.004227    0.005168    0.000623   -0.016834   -0.016516
  ----------------------------------------------------------------------------
  Sum:   -1.000000    1.000000    0.892352    0.107644   -0.892352   -1.107644
  
  Multipole moment analysis of the density matrix
    Molecular charge:                      -1.000000
    Number of electrons:                   17.000000
      Center of electronic charge [Ang]: [ -0.000000,   0.000000,   0.000000]
    Total nuclear charge:                  16.000000
      Center of nuclear charge [Ang]:    [  0.000000,   0.000000,   0.000000]
    Dipole moment [D]:                     0.000001
      Cartesian components [D]:          [  0.000000,  -0.000001,  -0.000000]
    RMS size of the density [Ang]:         1.808871
      Cartesian components [Ang]:        [  1.432496,   0.838158,   0.719346]
  
  Exciton analysis of the difference density matrix
  Total:
    <r_h> [Ang]:                  [ -0.000000,   0.000000,   0.000000]
    <r_e> [Ang]:                  [ -0.000000,   0.000000,   0.000000]
    |<r_e - r_h>| [Ang]:            0.000000
    Hole size [Ang]:                1.247801
      Cartesian components [Ang]: [  0.742805,   0.514157,   0.860750]
    Electron size [Ang]:            4.147057
      Cartesian components [Ang]: [  3.323731,   1.739068,   1.768201]
  
  Alpha spin:
    <r_h> [Ang]:                  [ -0.000000,   0.000000,   0.000000]
    <r_e> [Ang]:                  [ -0.000000,  -0.000000,   0.000000]
    |<r_e - r_h>| [Ang]:            0.000000
    Hole size [Ang]:                1.247801
      Cartesian components [Ang]: [  0.742805,   0.514156,   0.860750]
    Electron size [Ang]:            4.135647
      Cartesian components [Ang]: [  3.269173,   1.791935,   1.790265]
  
  Beta spin:
    <r_h> [Ang]:                  [ -0.000000,   0.000000,   0.000000]
    <r_e> [Ang]:                  [ -0.000000,   0.000000,   0.000000]
    |<r_e - r_h>| [Ang]:            0.000000
    Hole size [Ang]:                1.247803
      Cartesian components [Ang]: [  0.742807,   0.514158,   0.860750]
    Electron size [Ang]:            4.156227
      Cartesian components [Ang]: [  3.367041,   1.695279,   1.750224]
  ----------------------------------------------------------------------------


  Electron-attached state 9 (B2g)                                  [converged]
  ----------------------------------------------------------------------------
  Term symbol:  9 (2) B2g                                   R^2 =  1.75195e-09

  Total energy:                                            -77.8675958465 a.u.
  Electron attachment energy:                                     15.234895 eV

  Pole strength:                                                      0.000144

  Dip. moment [a.u.]:                  [   0.000000,   -0.000000,   -0.000000]
  Total dipole [Debye]:                                               0.000001
  <r^2> [a.u.]:                        [ 124.450484,   42.639531,   31.505692]
  Total <r^2> [a.u.]:                                               198.595707

  V1^2 = 0.0001, V2^2 = 0.9999

  Important amplitudes:
       occ i       vir a        vir b           v   
    -------------------------------------------------
     1 (B1u) B    4 (Ag ) B    3 (B3u) B      0.5279
     1 (B1u) A    4 (Ag ) A    3 (B3u) B      0.4645
    -------------------------------------------------

  Density matrix analysis:
  ------------------------
  NOs (alpha)
    Occupation of frontier NOs:
       0.4318   0.5249
    Number of electrons:  8.000000
  NOs (beta)
    Occupation of frontier NOs:
       0.4087   0.5657
    Number of electrons:  9.000000
  NOs (spin-traced)
    Occupation of frontier NOs:
       0.9336   0.9975
    Number of electrons: 17.000000
    Number of unpaired electrons: n_u =  3.31728, n_u,nl =  3.02700
    NO participation ratio (PR_NO):  3.832355
  
  
  Mulliken Population Analysis
  Atom  Charge (e)    Spin (e)  h+ (alpha)   h+ (beta)  e- (alpha)   e- (beta)
  ----------------------------------------------------------------------------
   1 C   -0.748644    0.456279    0.215718    0.272641   -0.209902   -0.723104
   2 C   -0.748644    0.456279    0.215718    0.272641   -0.209902   -0.723104
   3 H    0.124301    0.021861    0.002558    0.003232   -0.005465   -0.028001
   4 H    0.124365    0.021861    0.002557    0.003232   -0.005465   -0.028001
   5 H    0.124343    0.021860    0.002557    0.003232   -0.005465   -0.028000
   6 H    0.124279    0.021861    0.002558    0.003232   -0.005465   -0.028001
  ----------------------------------------------------------------------------
  Sum:   -1.000000    1.000000    0.441666    0.558211   -0.441666   -1.558211
  
  Multipole moment analysis of the density matrix
    Molecular charge:                      -1.000000
    Number of electrons:                   17.000000
      Center of electronic charge [Ang]: [ -0.000000,   0.000000,   0.000000]
    Total nuclear charge:                  16.000000
      Center of nuclear charge [Ang]:    [  0.000000,   0.000000,   0.000000]
    Dipole moment [D]:                     0.000001
      Cartesian components [D]:          [  0.000000,  -0.000001,  -0.000000]
    RMS size of the density [Ang]:         1.808679
      Cartesian components [Ang]:        [  1.431776,   0.838075,   0.720396]
  
  Exciton analysis of the difference density matrix
  Total:
    <r_h> [Ang]:                  [ -0.000000,   0.000000,   0.000000]
    <r_e> [Ang]:                  [ -0.000000,   0.000000,   0.000000]
    |<r_e - r_h>| [Ang]:            0.000000
    Hole size [Ang]:                1.247887
      Cartesian components [Ang]: [  0.742843,   0.514204,   0.860814]
    Electron size [Ang]:            4.146474
      Cartesian components [Ang]: [  3.321188,   1.738782,   1.771888]
  
  Alpha spin:
    <r_h> [Ang]:                  [ -0.000000,   0.000000,   0.000000]
    <r_e> [Ang]:                  [ -0.000000,   0.000000,   0.000000]
    |<r_e - r_h>| [Ang]:            0.000000
    Hole size [Ang]:                1.247572
      Cartesian components [Ang]: [  0.742729,   0.514053,   0.860546]
    Electron size [Ang]:            4.168705
      Cartesian components [Ang]: [  3.427882,   1.626157,   1.727233]
  
  Beta spin:
    <r_h> [Ang]:                  [ -0.000000,   0.000000,   0.000000]
    <r_e> [Ang]:                  [ -0.000000,   0.000000,   0.000000]
    |<r_e - r_h>| [Ang]:            0.000000
    Hole size [Ang]:                1.248136
      Cartesian components [Ang]: [  0.742933,   0.514323,   0.861026]
    Electron size [Ang]:            4.140151
      Cartesian components [Ang]: [  3.290317,   1.769402,   1.784342]
  ----------------------------------------------------------------------------


  Electron-attached state 10 (B2g)                                  [converged]
  ----------------------------------------------------------------------------
  Term symbol:  10 (2) B2g                                  R^2 =  5.45772e-09

  Total energy:                                            -77.8211788125 a.u.
  Electron attachment energy:                                     16.497967 eV

  Pole strength:                                                      0.000023

  Dip. moment [a.u.]:                  [   0.000000,   -0.000002,   -0.000000]
  Total dipole [Debye]:                                               0.000005
  <r^2> [a.u.]:                        [  89.790689,   46.437378,   24.247751]
  Total <r^2> [a.u.]:                                               160.475818

  V1^2 = 0.0000, V2^2 = 1.0000

  Important amplitudes:
       occ i       vir a        vir b           v   
    -------------------------------------------------
     1 (B1u) A    3 (B3u) A    5 (Ag ) B     -0.5730
     1 (B1u) B    5 (Ag ) B    3 (B3u) B      0.3476
    -------------------------------------------------

  Density matrix analysis:
  ------------------------
  NOs (alpha)
    Occupation of frontier NOs:
       0.2100   0.6571
    Number of electrons:  8.000000
  NOs (beta)
    Occupation of frontier NOs:
       0.3437   0.7246
    Number of electrons:  9.000000
  NOs (spin-traced)
    Occupation of frontier NOs:
       0.9335   1.0008
    Number of electrons: 17.000000
    Number of unpaired electrons: n_u =  3.30381, n_u,nl =  3.02619
    NO participation ratio (PR_NO):  3.807112
  
  
  Mulliken Population Analysis
  Atom  Charge (e)    Spin (e)  h+ (alpha)   h+ (beta)  e- (alpha)   e- (beta)
  ----------------------------------------------------------------------------
   1 C   -0.068739   -0.053828    0.370360    0.118046   -0.279645    0.026497
   2 C   -0.068739   -0.053828    0.370360    0.118046   -0.279645    0.026497
   3 H   -0.215648    0.276911    0.004392    0.001400   -0.049749   -0.323669
   4 H   -0.215592    0.276918    0.004392    0.001400   -0.049750   -0.323676
   5 H   -0.215613    0.276917    0.004392    0.001400   -0.049749   -0.323675
   6 H   -0.215669    0.276911    0.004392    0.001400   -0.049749   -0.323668
  ----------------------------------------------------------------------------
  Sum:   -1.000000    1.000000    0.758288    0.241694   -0.758288   -1.241694
  
  Multipole moment analysis of the density matrix
    Molecular charge:                      -1.000000
    Number of electrons:                   17.000000
      Center of electronic charge [Ang]: [ -0.000000,   0.000000,   0.000000]
    Total nuclear charge:                  16.000000
      Center of nuclear charge [Ang]:    [  0.000000,   0.000000,   0.000000]
    Dipole moment [D]:                     0.000005
      Cartesian components [D]:          [  0.000000,  -0.000005,  -0.000000]
    RMS size of the density [Ang]:         1.625854
      Cartesian components [Ang]:        [  1.216165,   0.874602,   0.631993]
  
  Exciton analysis of the difference density matrix
  Total:
    <r_h> [Ang]:                  [ -0.000000,   0.000000,   0.000000]
    <r_e> [Ang]:                  [ -0.000000,   0.000000,   0.000000]
    |<r_e - r_h>| [Ang]:            0.000000
    Hole size [Ang]:                1.247796
      Cartesian components [Ang]: [  0.742806,   0.514157,   0.860742]
    Electron size [Ang]:            3.443100
      Cartesian components [Ang]: [  2.485318,   1.885459,   1.457112]
  
  Alpha spin:
    <r_h> [Ang]:                  [ -0.000000,   0.000000,   0.000000]
    <r_e> [Ang]:                  [ -0.000000,   0.000000,   0.000000]
    |<r_e - r_h>| [Ang]:            0.000000
    Hole size [Ang]:                1.247798
      Cartesian components [Ang]: [  0.742806,   0.514157,   0.860745]
    Electron size [Ang]:            3.952348
      Cartesian components [Ang]: [  3.031370,   1.858377,   1.725772]
  
  Beta spin:
    <r_h> [Ang]:                  [ -0.000000,   0.000000,   0.000000]
    <r_e> [Ang]:                  [ -0.000000,   0.000001,   0.000000]
    |<r_e - r_h>| [Ang]:            0.000001
    Hole size [Ang]:                1.247788
      Cartesian components [Ang]: [  0.742805,   0.514156,   0.860731]
    Electron size [Ang]:            3.091118
      Cartesian components [Ang]: [  2.082588,   1.901807,   1.265293]
  ----------------------------------------------------------------------------


--------------------------------------------------------------------------------
  Time of ADC calculation:  CPU 96.99 s  wall 21.89 s
================================================================================
 
 --------------------------------------------------------------
             Orbital Energies (a.u.) and Symmetries
 --------------------------------------------------------------
 
 Alpha MOs, Restricted
 -- Occupied --                  
-11.228 -11.226  -1.040  -0.781  -0.660  -0.568  -0.516  -0.377
  1 Ag    1 B3u   2 Ag    2 B3u   1 B2u   3 Ag    1 B1g   1 B1u                
 -- Virtual --                   
  0.072   0.075   0.086   0.093   0.106   0.111   0.157   0.174
  3 B3u   2 B2u   2 B1u   1 B2g   2 B1g   4 Ag    5 Ag    2 B2g                
  0.269   0.276   0.290   0.293   0.311   0.315   0.327   0.396
  4 B3u   3 B2u   5 B3u   6 Ag    4 B2u   3 B1u   3 B1g   3 B2g                
  0.457   0.465   0.480   0.626   0.632   0.661   0.666   0.729
  4 B1g   7 Ag    6 B3u   8 Ag    5 B2u   7 B3u   1 B3g   8 B3u                
  0.761   0.768   0.783   0.828   0.837   0.892   0.916   0.920
  6 B2u   9 Ag    5 B1g   1 Au    4 B1u   9 B3u   4 B2g   5 B1u                
  1.001   1.013   1.064   1.103   1.188   1.206   1.254   1.363
  6 B1g  10 Ag    7 B2u   7 B1g   6 B1u   5 B2g   2 B3g  10 B3u                
  1.387   1.411   1.467   1.509   1.544   1.554   1.635   1.682
 11 Ag    6 B2g   8 B2u  11 B3u  12 Ag    9 B2u   2 Au    8 B1g                
  1.743   1.835   1.904   1.996   2.297   2.679   2.698   2.708
 12 B3u  13 B3u  13 Ag    9 B1g  14 Ag    7 B1u  15 Ag   10 B2u                
  2.765   2.781   2.862   2.871   2.915   3.009   3.081   3.104
  7 B2g   8 B1u  14 B3u  11 B2u   3 B3g  10 B1g  11 B1g   9 B1u                
  3.105   3.147   3.152   3.164   3.192   3.271   3.340   3.342
  4 B3g  12 B2u   3 Au   16 Ag   17 Ag    8 B2g  13 B2u  15 B3u                
  3.418   3.426   3.447   3.490   3.529   3.550   3.599   3.641
  9 B2g   4 Au   16 B3u  12 B1g  17 B3u  10 B1u  18 Ag    5 B3g                
  3.749   3.817   3.898   3.965   3.977   3.985   4.014   4.047
 14 B2u  13 B1g  18 B3u  14 B1g   5 Au   10 B2g  15 B2u  19 Ag                 
  4.061   4.193   4.199   4.202   4.215   4.332   4.351   4.503
 11 B1u  15 B1g  19 B3u   6 B3g  20 Ag   12 B1u  11 B2g  16 B2u                
  4.535   4.606   4.699   4.775   4.815   4.945   4.980   5.051
 20 B3u   6 Au   21 Ag   21 B3u  12 B2g  13 B1u  22 Ag   16 B1g                
  5.150   5.216   5.306   5.324   5.426   5.462   5.546   5.571
 17 B2u   7 B3g  22 B3u  23 Ag    7 Au   17 B1g  13 B2g  24 Ag                 
  5.680   6.054   6.143   6.324   6.612   6.884  12.318  14.807
 18 B2u  23 B3u  18 B1g  19 B2u  24 B3u  19 B1g  25 Ag   25 B3u                
 
 Beta MOs, Restricted
 -- Occupied --                  
-11.228 -11.226  -1.040  -0.781  -0.660  -0.568  -0.516  -0.377
  1 Ag    1 B3u   2 Ag    2 B3u   1 B2u   3 Ag    1 B1g   1 B1u                
 -- Virtual --                   
  0.072   0.075   0.086   0.093   0.106   0.111   0.157   0.174
  3 B3u   2 B2u   2 B1u   1 B2g   2 B1g   4 Ag    5 Ag    2 B2g                
  0.269   0.276   0.290   0.293   0.311   0.315   0.327   0.396
  4 B3u   3 B2u   5 B3u   6 Ag    4 B2u   3 B1u   3 B1g   3 B2g                
  0.457   0.465   0.480   0.626   0.632   0.661   0.666   0.729
  4 B1g   7 Ag    6 B3u   8 Ag    5 B2u   7 B3u   1 B3g   8 B3u                
  0.761   0.768   0.783   0.828   0.837   0.892   0.916   0.920
  6 B2u   9 Ag    5 B1g   1 Au    4 B1u   9 B3u   4 B2g   5 B1u                
  1.001   1.013   1.064   1.103   1.188   1.206   1.254   1.363
  6 B1g  10 Ag    7 B2u   7 B1g   6 B1u   5 B2g   2 B3g  10 B3u                
  1.387   1.411   1.467   1.509   1.544   1.554   1.635   1.682
 11 Ag    6 B2g   8 B2u  11 B3u  12 Ag    9 B2u   2 Au    8 B1g                
  1.743   1.835   1.904   1.996   2.297   2.679   2.698   2.708
 12 B3u  13 B3u  13 Ag    9 B1g  14 Ag    7 B1u  15 Ag   10 B2u                
  2.765   2.781   2.862   2.871   2.915   3.009   3.081   3.104
  7 B2g   8 B1u  14 B3u  11 B2u   3 B3g  10 B1g  11 B1g   9 B1u                
  3.105   3.147   3.152   3.164   3.192   3.271   3.340   3.342
  4 B3g  12 B2u   3 Au   16 Ag   17 Ag    8 B2g  13 B2u  15 B3u                
  3.418   3.426   3.447   3.490   3.529   3.550   3.599   3.641
  9 B2g   4 Au   16 B3u  12 B1g  17 B3u  10 B1u  18 Ag    5 B3g                
  3.749   3.817   3.898   3.965   3.977   3.985   4.014   4.047
 14 B2u  13 B1g  18 B3u  14 B1g   5 Au   10 B2g  15 B2u  19 Ag                 
  4.061   4.193   4.199   4.202   4.215   4.332   4.351   4.503
 11 B1u  15 B1g  19 B3u   6 B3g  20 Ag   12 B1u  11 B2g  16 B2u                
  4.535   4.606   4.699   4.775   4.815   4.945   4.980   5.051
 20 B3u   6 Au   21 Ag   21 B3u  12 B2g  13 B1u  22 Ag   16 B1g                
  5.150   5.216   5.306   5.324   5.426   5.462   5.546   5.571
 17 B2u   7 B3g  22 B3u  23 Ag    7 Au   17 B1g  13 B2g  24 Ag                 
  5.680   6.054   6.143   6.324   6.612   6.884  12.318  14.807
 18 B2u  23 B3u  18 B1g  19 B2u  24 B3u  19 B1g  25 Ag   25 B3u                
 --------------------------------------------------------------
 
          Ground-State Mulliken Net Atomic Charges

     Atom                 Charge (a.u.)
  ----------------------------------------
      1 C                    -0.273548
      2 C                    -0.273548
      3 H                     0.136754
      4 H                     0.136817
      5 H                     0.136794
      6 H                     0.136732
  ----------------------------------------
  Sum of atomic charges =     0.000000

 -----------------------------------------------------------------
                    Cartesian Multipole Moments
 -----------------------------------------------------------------
    Charge (ESU x 10^10)
                 0.0000
    Dipole Moment (Debye)
         X       0.0000      Y      -0.0000      Z      -0.0000
       Tot       0.0000
    Quadrupole Moments (Debye-Ang)
        XX     -12.8645     XY       0.0000     YY     -11.9318
        XZ       0.0000     YZ      -0.0000     ZZ     -16.0981
    Octopole Moments (Debye-Ang^2)
       XXX       0.0000    XXY      -0.0000    XYY       0.0000
       YYY      -0.0000    XXZ      -0.0000    XYZ      -0.0000
       YYZ      -0.0000    XZZ       0.0000    YZZ      -0.0000
       ZZZ      -0.0000
    Hexadecapole Moments (Debye-Ang^3)
      XXXX     -68.0198   XXXY       0.0000   XXYY     -13.1173
      XYYY       0.0000   YYYY     -26.7632   XXXZ       0.0000
      XXYZ       0.0000   XYYZ       0.0000   YYYZ      -0.0000
      XXZZ     -15.4312   XYZZ       0.0000   YYZZ      -8.9497
      XZZZ       0.0000   YZZZ      -0.0000   ZZZZ     -21.2122
 -----------------------------------------------------------------
 Total job time:  103.91s(wall), 146.44s(cpu) 
 Fri Feb 25 18:36:57 2022

        *************************************************************
        *                                                           *
        *  Thank you very much for using Q-Chem.  Have a nice day.  *
        *                                                           *
        *************************************************************


