/src/tsommerfeld/qchem/exe/qcprog.exe .input1.570513.3515.qcin.1 /src/jdavis/qchem.scratch/qchem3515/

                  Welcome to Q-Chem
     A Quantum Leap Into The Future Of Chemistry


 Q-Chem 5.4 (devel), Q-Chem, Inc., Pleasanton, CA (2021)

 E. Epifanovsky,  A. T. B. Gilbert,  Xintian Feng,  Joonho Lee,  Yuezhi Mao,  
 N. Mardirossian,  P. Pokhilko,  A. White,  M. Wormit,  M. P. Coons,  
 A. L. Dempwolff,  Zhengting Gan,  D. Hait,  P. R. Horn,  L. D. Jacobson,  
 I. Kaliman,  J. Kussmann,  A. W. Lange,  Ka Un Lao,  D. S. Levine,  Jie Liu,  
 S. C. McKenzie,  A. F. Morrison,  K. Nanda,  F. Plasser,  D. R. Rehn,  
 M. L. Vidal,  Zhi-Qiang You,  Ying Zhu,  B. Alam,  B. Albrecht,  
 A. Aldossary,  E. Alguire,  J. H. Andersen,  D. Barton,  K. Begam,  A. Behn,  
 Y. A. Bernard,  E. J. Berquist,  H. Burton,  A. Carreras,  K. Carter-Fenk,  
 R. Chakraborty,  A. D. Chien,  K. D. Closser,  V. Cofer-Shabica,  
 S. Dasgupta,  Jia Deng,  M. de Wergifosse,  M. Diedenhofen,  Hainam Do,  
 S. Ehlert,  Po-Tung Fang,  S. Fatehi,  Qingguo Feng,  T. Friedhoff,  
 J. Gayvert,  Qinghui Ge,  G. Gidofalvi,  M. Goldey,  J. Gomes,  
 C. Gonzalez-Espinoza,  S. Gulania,  A. Gunina,  M. W. D. Hanson-Heine,  
 P. H. P. Harbach,  A. W. Hauser,  M. F. Herbst,  M. Hernandez Vera,  
 M. Hodecker,  Z. C. Holden,  S. Houck,  Xunkun Huang,  Kerwin Hui,  
 B. C. Huynh,  M. Ivanov,  Hyunjun Ji,  Hanjie Jiang,  B. Kaduk,  S. Kaehler,  
 K. Khistyaev,  Jaehoon Kim,  P. Klunzinger,  Z. Koczor-Benda,  
 Joong Hoon Koh,  D. Kosenkov,  L. Koulias,  T. Kowalczyk,  C. M. Krauter,  
 K. Kue,  A. Kunitsa,  T. Kus,  A. Landau,  K. V. Lawler,  D. Lefrancois,  
 S. Lehtola,  Rain Li,  Yi-Pei Li,  Jiashu Liang,  M. Liebenthal,  
 Hung-Hsuan Lin,  You-Sheng Lin,  Fenglai Liu,  Kuan-Yu Liu,  
 M. Loipersberger,  A. Luenser,  A. Manjanath,  P. Manohar,  E. Mansoor,  
 S. F. Manzer,  Shan-Ping Mao,  A. V. Marenich,  T. Markovich,  S. Mason,  
 S. A. Maurer,  P. F. McLaughlin,  M. F. S. J. Menger,  J.-M. Mewes,  
 S. A. Mewes,  P. Morgante,  J. W. Mullinax,  K. J. Oosterbaan,  G. Paran,  
 Alexander C. Paul,  Suranjan K. Paul,  F. Pavosevic,  Zheng Pei,  S. Prager,  
 E. I. Proynov,  E. Ramos,  B. Rana,  A. E. Rask,  A. Rettig,  R. M. Richard,  
 F. Rob,  E. Rossomme,  T. Scheele,  M. Scheurer,  M. Schneider,  
 N. Sergueev,  S. M. Sharada,  W. Skomorowski,  D. W. Small,  C. J. Stein,  
 Yu-Chuan Su,  E. J. Sundstrom,  Zhen Tao,  J. Thirman,  T. Tsuchimochi,  
 N. M. Tubman,  S. P. Veccham,  O. Vydrov,  J. Wenzel,  J. Witte,  A. Yamada,  
 Kun Yao,  S. Yeganeh,  S. R. Yost,  A. Zech,  Igor Ying Zhang,  Xing Zhang,  
 Yu Zhang,  D. Zuev,  A. Aspuru-Guzik,  A. T. Bell,  N. A. Besley,  
 K. B. Bravaya,  B. R. Brooks,  D. Casanova,  Jeng-Da Chai,  S. Coriani,  
 C. J. Cramer,  A. E. DePrince, III,  R. A. DiStasio Jr.,  A. Dreuw,  
 B. D. Dunietz,  T. R. Furlani,  W. A. Goddard III,  S. Grimme,  
 S. Hammes-Schiffer,  T. Head-Gordon,  W. J. Hehre,  Chao-Ping Hsu,  
 T.-C. Jagau,  Yousung Jung,  A. Klamt,  Jing Kong,  D. S. Lambrecht,  
 WanZhen Liang,  N. J. Mayhall,  C. W. McCurdy,  J. B. Neaton,  
 C. Ochsenfeld,  J. A. Parkhill,  R. Peverati,  V. A. Rassolov,  Yihan Shao,  
 L. V. Slipchenko,  T. Stauch,  R. P. Steele,  J. E. Subotnik,  
 A. J. W. Thom,  A. Tkatchenko,  D. G. Truhlar,  T. Van Voorhis,  
 T. A. Wesolowski,  K. B. Whaley,  H. L. Woodcock III,  P. M. Zimmerman,  
 S. Faraji,  P. M. W. Gill,  M. Head-Gordon,  J. M. Herbert,  A. I. Krylov

 Additional authors for Version 5.4.1: 
 S. Kotaru,  Shaozhi Li,  Xiangyuan Li,  F. Matz,  A. Molle,  Haisheng Ren,  
 Yingli Su,  Hung-Yi Tsai,  C. Utku,  Fang Wang

 Contributors to earlier versions of Q-Chem not listed above: 
 R. D. Adamson,  B. Austin,  R. Baer,  J. Baker,  G. J. O. Beran,  
 K. Brandhorst,  S. T. Brown,  E. F. C. Byrd,  A. K. Chakraborty,  
 G. K. L. Chan,  Chun-Min Chang,  Yunqing Chen,  C.-L. Cheng,  
 Siu Hung Chien,  D. M. Chipman,  D. L. Crittenden,  H. Dachsel,  
 R. J. Doerksen,  A. D. Dutoi,  R. G. Edgar,  J. Fosso-Tande,  
 L. Fusti-Molnar,  D. Ghosh,  A. Ghysels,  A. Golubeva-Zadorozhnaya,  
 J. Gonthier,  M. S. Gordon,  S. R. Gwaltney,  G. Hawkins,  J. E. Herr,  
 A. Heyden,  S. Hirata,  E. G. Hohenstein,  G. Kedziora,  F. J. Keil,  
 C. Kelley,  Jihan Kim,  R. A. King,  R. Z. Khaliullin,  P. P. Korambath,  
 W. Kurlancheek,  A. Laurent,  A. M. Lee,  M. S. Lee,  S. V. Levchenko,  
 Ching Yeh Lin,  D. Liotard,  E. Livshits,  R. C. Lochan,  I. Lotan,  
 L. A. Martinez-Martinez,  P. E. Maslen,  N. Nair,  D. P. O'Neill,  
 D. Neuhauser,  E. Neuscamman,  C. M. Oana,  R. Olivares-Amaya,  R. Olson,  
 T. M. Perrine,  B. Peters,  P. A. Pieniazek,  A. Prociuk,  Y. M. Rhee,  
 J. Ritchie,  M. A. Rohrdanz,  E. Rosta,  N. J. Russ,  H. F. Schaefer III,  
 M. W. Schmidt,  N. E. Schultz,  S. Sharma,  N. Shenvi,  C. D. Sherrill,  
 A. C. Simmonett,  A. Sodt,  T. Stein,  D. Stuck,  K. S. Thanthiriwatte,  
 V. Vanovschi,  L. Vogt,  Tao Wang,  A. Warshel,  M. A. Watson,  
 C. F. Williams,  Q. Wu,  X. Xu,  Jun Yang,  W. Zhang,  Yan Zhao

 Please cite Q-Chem as follows:
 Y. Shao et al., Mol. Phys. 113, 184-215 (2015)
 DOI: 10.1080/00268976.2014.952696

 Q-Chem 5.4.1 for Intel X86 EM64T Linux

 Parts of Q-Chem use Armadillo 9.900.5 (Nocturnal Misbehaviour).
 http://arma.sourceforge.net/

 Q-Chem begins on Fri Feb 25 18:09:07 2022  

 Host: node01
0

     Scratch files written to /src/jdavis/qchem.scratch/qchem3515//
 Processing $rem in /src/tsommerfeld/qchem/config/preferences:
 Processing $rem in /home/jdavis/.qchemrc:

 Checking the input file for inconsistencies... 	...done.

--------------------------------------------------------------
User input:
--------------------------------------------------------------
$molecule
0 1
C        -0.6645000000    0.0000000000   -0.2082049804
C         0.6645000000    0.0000000000   -0.2082049804
H        -1.1590800000    0.0000000000    0.7541440196
H         1.1590800000    0.0000000000    0.7541440196
H        -1.1590800000    0.0000000000   -1.1705529804
H         1.1590800000    0.0000000000   -1.1705529804
$end

$rem
   METHOD adc(2)
   BASIS gen
   PURECART 11
   EA_STATES [0,0,10,0,0,0,0,0]
   scf_convergence 8
   ADC_DAVIDSON_MAXITER 120
   ADC_DAVIDSON_MAXSUBSPACE 200
   adc_nguess_singles 100
   THRESH 14
   S2THRESH 14
   adc_davidson_conv 5
   adc_davidson_thresh 14
   THREADS 10
   MEM_TOTAL 95000
   STATE_ANALYSIS TRUE
$end
$basis
C     1
S    10   1.00
      8.236000D+03           5.310000D-04
      1.235000D+03           4.108000D-03
      2.808000D+02           2.108700D-02
      7.927000D+01           8.185300D-02
      2.559000D+01           2.348170D-01
      8.997000D+00           4.344010D-01
      3.319000D+00           3.461290D-01
      9.059000D-01           3.937800D-02
      3.643000D-01          -8.983000D-03
      1.285000D-01           2.385000D-03
S    1   1.00
      9.059000D-01           1.000000D+00
S    10   1.00
      8.236000D+03          -1.130000D-04
      1.235000D+03          -8.780000D-04
      2.808000D+02          -4.540000D-03
      7.927000D+01          -1.813300D-02
      2.559000D+01          -5.576000D-02
      8.997000D+00          -1.268950D-01
      3.319000D+00          -1.703520D-01
      9.059000D-01           1.403820D-01
      3.643000D-01           5.986840D-01
      1.285000D-01           3.953890D-01
S    1   1.00
      1.285000D-01           1.000000D+00
P    1   1.00
      3.827000D-01           1.000000D+00
P    5   1.00
      1.871000D+01           1.403100D-02
      4.133000D+00           8.686600D-02
      1.200000D+00           2.902160D-01
      3.827000D-01           5.010080D-01
      1.209000D-01           3.434060D-01
P    1   1.00
      1.209000D-01           1.000000D+00
P   1   1.00
      0.05425      1.0000000
P   1   1.00
      0.027125      1.0000000
D    1   1.00
      1.097000D+00           1.000000D+00
D    1   1.00
      3.180000D-01           1.000000D+00
F    1   1.00
      7.610000D-01           1.0000000
****
C     2
S    10   1.00
      8.236000D+03           5.310000D-04
      1.235000D+03           4.108000D-03
      2.808000D+02           2.108700D-02
      7.927000D+01           8.185300D-02
      2.559000D+01           2.348170D-01
      8.997000D+00           4.344010D-01
      3.319000D+00           3.461290D-01
      9.059000D-01           3.937800D-02
      3.643000D-01          -8.983000D-03
      1.285000D-01           2.385000D-03
S    1   1.00
      9.059000D-01           1.000000D+00
S    10   1.00
      8.236000D+03          -1.130000D-04
      1.235000D+03          -8.780000D-04
      2.808000D+02          -4.540000D-03
      7.927000D+01          -1.813300D-02
      2.559000D+01          -5.576000D-02
      8.997000D+00          -1.268950D-01
      3.319000D+00          -1.703520D-01
      9.059000D-01           1.403820D-01
      3.643000D-01           5.986840D-01
      1.285000D-01           3.953890D-01
S    1   1.00
      1.285000D-01           1.000000D+00
P    1   1.00
      3.827000D-01           1.000000D+00
P    5   1.00
      1.871000D+01           1.403100D-02
      4.133000D+00           8.686600D-02
      1.200000D+00           2.902160D-01
      3.827000D-01           5.010080D-01
      1.209000D-01           3.434060D-01
P    1   1.00
      1.209000D-01           1.000000D+00
P   1   1.00
      0.05425      1.0000000
P   1   1.00
      0.027125      1.0000000
D    1   1.00
      1.097000D+00           1.000000D+00
D    1   1.00
      3.180000D-01           1.000000D+00
F    1   1.00
      7.610000D-01           1.0000000
****
H 3
cc-pVTZ
****
H 4
cc-pVTZ
****
H 5
cc-pVTZ
****
H 6
cc-pVTZ
****
$end
--------------------------------------------------------------
 Atom   2: ( -0.6645000000, -0.0000001250,  0.0000000000)
         ->( -0.6645000000,  0.0000001250, -0.0000000000)
 Atom   1: (  0.6645000000, -0.0000001250, -0.0000000000)
         ->(  0.6645000000,  0.0000000000,  0.0000000000)
 Atom   6: ( -1.1590800000, -0.9623481250, -0.0000000000)
         ->( -1.1590800000, -0.9623488750,  0.0000000000)
 Atom   5: (  1.1590800000, -0.9623481250, -0.0000000000)
         ->(  1.1590800000, -0.9623488750, -0.0000000000)
 ----------------------------------------------------------------
             Standard Nuclear Orientation (Angstroms)
    I     Atom           X                Y                Z
 ----------------------------------------------------------------
    1      C       0.6645000000     0.0000000000     0.0000000000
    2      C      -0.6645000000     0.0000001250    -0.0000000000
    3      H       1.1590800000     0.9623488750     0.0000000000
    4      H      -1.1590800000     0.9623488750     0.0000000000
    5      H       1.1590800000    -0.9623488750    -0.0000000000
    6      H      -1.1590800000    -0.9623488750     0.0000000000
 ----------------------------------------------------------------
 Molecular Point Group                 D2h   NOp =  8
 Largest Abelian Subgroup              D2h   NOp =  8
 Nuclear Repulsion Energy =          33.58921667 hartrees
 There are        8 alpha and        8 beta electrons
 Requested basis set is non-standard
 There are 48 shells and 128 basis functions
 Total memory of 95000 MB is distributed as follows: 
   MEM_STATIC is set to 192 MB
   QALLOC/CCMAN JOB total memory use is  94808 MB
 Warning: actual memory use might exceed 95000 MB

 Total QAlloc Memory Limit  95000 MB
 Mega-Array Size       188 MB
 MEM_STATIC part       192 MB

                       Distance Matrix (Angstroms)
             C (  1)   C (  2)   H (  3)   H (  4)   H (  5)
   C (  2)  1.329000
   H (  3)  1.082000  2.061931
   H (  4)  2.061931  1.082000  2.318160
   H (  5)  1.082000  2.061931  1.924698  3.013026
   H (  6)  2.061931  1.082000  3.013026  1.924698  2.318160
 
 A cutoff of  1.0D-14 yielded   1176 shell pairs
 There are      8432 function pairs (     10417 Cartesian)
 Smallest overlap matrix eigenvalue = 7.12E-04

 Scale SEOQF with 1.000000e-01/1.000000e-01/1.000000e-01

 Standard Electronic Orientation quadrupole field applied
 Nucleus-field energy     =     0.0000000006 hartrees
 ================ Generating on-the-fly SAD Guess ================
Attempting to make child job directory: /src/jdavis/qchem.scratch/qchem3515//Frg1/
Attempting to make child job directory: /src/jdavis/qchem.scratch/qchem3515//Frg2/
Creating input file /src/jdavis/qchem.scratch/qchem3515/Frg1.input
using default PutDataFrgm: nothing
calling putenv with: QCSCRATCH=/src/jdavis/qchem.scratch/qchem3515/ 
Spawning Job For Fragment 0
Done Job For Fragment 0
calling putenv with: QCSCRATCH=/src/jdavis/qchem.scratch 
calling putenv with: QCTHREADS=1 
Creating input file /src/jdavis/qchem.scratch/qchem3515/Frg2.input
using default PutDataFrgm: nothing
calling putenv with: QCSCRATCH=/src/jdavis/qchem.scratch/qchem3515/ 
Spawning Job For Fragment 1
Done Job For Fragment 1
calling putenv with: QCSCRATCH=/src/jdavis/qchem.scratch 
calling putenv with: QCTHREADS=1 
 Time for running child jobs:  CPU 1.75 s  wall 53.81 s
 ============= Method Specific SAD Guess Constructed =============
 Guess from on-the-fly superposition of atomic densities
 Warning: Energy on first SCF cycle will be non-variational
 A restricted Hartree-Fock SCF calculation will be
 performed using Pulay DIIS extrapolation
 SCF converges when DIIS error is below 1.0E-08
 using 10 threads for integral computing
 -------------------------------------------------------
 OpenMP Integral computing Module                
 Release: version 1.0, May 2013, Q-Chem Inc. Pittsburgh 
 -------------------------------------------------------
 ---------------------------------------
  Cycle       Energy         DIIS Error
 ---------------------------------------
    1     -78.4650794831      3.89E-02
    2     -78.0360064143      2.90E-03
    3     -78.0576755368      7.92E-04
    4     -78.0594623274      2.78E-04
    5     -78.0596720749      3.07E-05
    6     -78.0596768672      6.53E-06
    7     -78.0596771707      1.78E-06
    8     -78.0596772032      1.85E-07
    9     -78.0596772080      2.36E-08
   10     -78.0596772084      2.48E-09 Convergence criterion met
 ---------------------------------------
 SCF time:  CPU 15.89 s  wall 1.60 s
 SCF   energy in the final basis set = -78.05967721
 Total energy in the final basis set = -78.05967721
================================================================================
|                                                                              |
|                                 A D C  M A N                                 |
|                                                                              |
 ------------------------------------------------------------------------------ 
|                                                                              |
| Components:                                                                  |
|                                                                              |
| - libvmm - 1.3-trunk                                                         |
|   Authors:                                                                   |
|   Evgeny Epifanovsky, Ilya Kaliman                                           |
|                                                                              |
| - libtensor - 2.5-trunk                                                      |
|   Authors:                                                                   |
|   Evgeny Epifanovsky, Michael Wormit, Dmitry Zuev, Sam Manzer,               |
|   Ilya Kaliman                                                               |
|                                                                              |
| - libwfa - 1.1-trunk                                                         |
|   Authors:                                                                   |
|   Felix Plasser, Stefanie Mewes (Baeppler), Benjamin Thomitzni,              |
|   Michael Wormit, Feng Chen, Anna I. Krylov, Pavel Pokhilko                  |
|                                                                              |
| - libadc - 1.1-trunk                                                         |
|   Authors:                                                                   |
|   Michael Wormit, Adrian L. Dempwolff, Philipp H. P. Harbach,                |
|   Caroline Krauter, Dirk Rehn, Matthias Schneider, Jan Wenzel                |
|                                                                              |
| - adcman - 2.6-trunk                                                         |
|   Authors:                                                                   |
|   Michael Wormit, Adrian L. Dempwolff, Philipp H. P. Harbach,                |
|   Caroline Krauter, Daniel Lefrancois, Jan-Michael Mewes, Dirk Rehn,         |
|   Matthias Schneider, Jan Wenzel, Andreas Dreuw                              |
|                                                                              |
| Authors of earlier versions of ADCMAN:                                       |
| Andreas Dreuw, Jan Hendrik Starcke, Dirk Rehn, Michael Wormit                |
|                                                                              |
================================================================================

 
 Alpha MOs, Restricted
 -- Occupied --                  
-11.228 -11.226  -1.040  -0.781  -0.661  -0.568  -0.516  -0.377
  1 Ag    1 B3u   2 Ag    2 B3u   1 B2u   3 Ag    1 B1g   1 B1u                
 -- Virtual --                   
  0.052   0.054   0.061   0.074   0.075   0.088   0.147   0.152
  3 B3u   2 B2u   2 B1u   1 B2g   2 B1g   4 Ag    2 B2g   5 Ag                 
  0.201   0.207   0.229   0.230   0.234   0.295   0.306   0.309
  4 B3u   3 B2u   6 Ag    3 B1g   3 B1u   5 B3u   4 B2u   3 B2g                
  0.451   0.454   0.459   0.614   0.631   0.641   0.654   0.655
  6 B3u   7 Ag    4 B1g   8 Ag    5 B2u   6 B2u   7 B3u   9 Ag                 
  0.666   0.674   0.722   0.754   0.786   0.828   0.847   0.903
  1 B3g   8 B3u   4 B1u   5 B1g   4 B2g   1 Au    9 B3u   5 B1u                
  0.974   1.008   1.036   1.057   1.188   1.202   1.254   1.354
  6 B1g  10 Ag    7 B1g   7 B2u   6 B1u   5 B2g   2 B3g  11 Ag                 
  1.357   1.400   1.468   1.486   1.499   1.535   1.635   1.637
 10 B3u   6 B2g   8 B2u   9 B2u  11 B3u  12 Ag    2 Au   12 B3u                
  1.711   1.834   1.863   1.980   2.298   2.567   2.624   2.668
  8 B1g  13 B3u  13 Ag    9 B1g  14 Ag    7 B1u  15 Ag    7 B2g                
  2.709   2.767   2.784   2.833   2.868   2.915   3.069   3.102
 10 B2u   8 B1u  11 B2u  14 B3u  10 B1g   3 B3g  11 B1g   9 B1u                
  3.105   3.135   3.152   3.153   3.184   3.259   3.318   3.340
  4 B3g  12 B2u   3 Au   16 Ag   17 Ag    8 B2g  15 B3u  13 B2u                
  3.413   3.426   3.439   3.476   3.501   3.550   3.598   3.641
  9 B2g   4 Au   16 B3u  17 B3u  12 B1g  10 B1u  18 Ag    5 B3g                
  3.743   3.814   3.899   3.959   3.977   3.981   4.014   4.035
 14 B2u  13 B1g  18 B3u  14 B1g   5 Au   10 B2g  15 B2u  19 Ag                 
  4.060   4.188   4.192   4.202   4.210   4.331   4.351   4.489
 11 B1u  19 B3u  15 B1g   6 B3g  20 Ag   12 B1u  11 B2g  16 B2u                
  4.534   4.606   4.683   4.764   4.813   4.938   4.975   5.056
 20 B3u   6 Au   21 Ag   21 B3u  12 B2g  13 B1u  22 Ag   16 B1g                
  5.152   5.216   5.306   5.307   5.426   5.470   5.542   5.563
 17 B2u   7 B3g  22 B3u  23 Ag    7 Au   17 B1g  13 B2g  24 Ag                 
  5.671   6.006   6.104   6.303   6.592   6.875  12.072  14.805
 18 B2u  23 B3u  18 B1g  19 B2u  24 B3u  19 B1g  25 Ag   25 B3u                
 
 Beta MOs, Restricted
 -- Occupied --                  
-11.228 -11.226  -1.040  -0.781  -0.661  -0.568  -0.516  -0.377
  1 Ag    1 B3u   2 Ag    2 B3u   1 B2u   3 Ag    1 B1g   1 B1u                
 -- Virtual --                   
  0.052   0.054   0.061   0.074   0.075   0.088   0.147   0.152
  3 B3u   2 B2u   2 B1u   1 B2g   2 B1g   4 Ag    2 B2g   5 Ag                 
  0.201   0.207   0.229   0.230   0.234   0.295   0.306   0.309
  4 B3u   3 B2u   6 Ag    3 B1g   3 B1u   5 B3u   4 B2u   3 B2g                
  0.451   0.454   0.459   0.614   0.631   0.641   0.654   0.655
  6 B3u   7 Ag    4 B1g   8 Ag    5 B2u   6 B2u   7 B3u   9 Ag                 
  0.666   0.674   0.722   0.754   0.786   0.828   0.847   0.903
  1 B3g   8 B3u   4 B1u   5 B1g   4 B2g   1 Au    9 B3u   5 B1u                
  0.974   1.008   1.036   1.057   1.188   1.202   1.254   1.354
  6 B1g  10 Ag    7 B1g   7 B2u   6 B1u   5 B2g   2 B3g  11 Ag                 
  1.357   1.400   1.468   1.486   1.499   1.535   1.635   1.637
 10 B3u   6 B2g   8 B2u   9 B2u  11 B3u  12 Ag    2 Au   12 B3u                
  1.711   1.834   1.863   1.980   2.298   2.567   2.624   2.668
  8 B1g  13 B3u  13 Ag    9 B1g  14 Ag    7 B1u  15 Ag    7 B2g                
  2.709   2.767   2.784   2.833   2.868   2.915   3.069   3.102
 10 B2u   8 B1u  11 B2u  14 B3u  10 B1g   3 B3g  11 B1g   9 B1u                
  3.105   3.135   3.152   3.153   3.184   3.259   3.318   3.340
  4 B3g  12 B2u   3 Au   16 Ag   17 Ag    8 B2g  15 B3u  13 B2u                
  3.413   3.426   3.439   3.476   3.501   3.550   3.598   3.641
  9 B2g   4 Au   16 B3u  17 B3u  12 B1g  10 B1u  18 Ag    5 B3g                
  3.743   3.814   3.899   3.959   3.977   3.981   4.014   4.035
 14 B2u  13 B1g  18 B3u  14 B1g   5 Au   10 B2g  15 B2u  19 Ag                 
  4.060   4.188   4.192   4.202   4.210   4.331   4.351   4.489
 11 B1u  19 B3u  15 B1g   6 B3g  20 Ag   12 B1u  11 B2g  16 B2u                
  4.534   4.606   4.683   4.764   4.813   4.938   4.975   5.056
 20 B3u   6 Au   21 Ag   21 B3u  12 B2g  13 B1u  22 Ag   16 B1g                
  5.152   5.216   5.306   5.307   5.426   5.470   5.542   5.563
 17 B2u   7 B3g  22 B3u  23 Ag    7 Au   17 B1g  13 B2g  24 Ag                 
  5.671   6.006   6.104   6.303   6.592   6.875  12.072  14.805
 18 B2u  23 B3u  18 B1g  19 B2u  24 B3u  19 B1g  25 Ag   25 B3u                

--------------------------------------------------------------------------------
                                   HF Summary                                   
--------------------------------------------------------------------------------
  Energy:                                                  -78.0596772084 a.u.
  Dip. moment [a.u.]:                  [   0.000000,   -0.000000,   -0.000000]
  Total dipole [Debye]:                                               0.000001
  <r^2> [a.u.]:                        [  47.675091,   22.101195,   11.968760]
  Total <r^2> [a.u.]:                                                81.745046
--------------------------------------------------------------------------------

--------------------------------------------------------------------------------
                                 MP(2) Summary                                  
--------------------------------------------------------------------------------
  MP energy contribution:                                   -0.3673168297 a.u.
  Total energy:                                            -78.4269940380 a.u.
  Dip. moment [a.u.]:                  [   0.000000,   -0.000000,    0.000000]
  Total dipole [Debye]:                                               0.000001
  <r^2> [a.u.]:                        [  47.644952,   21.993095,   11.730789]
  Total <r^2> [a.u.]:                                                81.368836

  Density matrix analysis:
  ------------------------
  NOs (alpha)
    Occupation of frontier NOs:
       0.0226   0.9661
    Number of electrons:  8.000000
  NOs (beta)
    Occupation of frontier NOs:
       0.0226   0.9661
    Number of electrons:  8.000000
  NOs (spin-traced)
    Occupation of frontier NOs:
       0.0452   1.9322
    Number of electrons: 16.000000
    Number of unpaired electrons: n_u =  0.45283, n_u,nl =  0.05291
    NO participation ratio (PR_NO): 14.824356
  
  
  Mulliken Population Analysis
  Atom  Charge (e)    Spin (e)  h+ (alpha)   h+ (beta)  e- (alpha)   e- (beta)
  ----------------------------------------------------------------------------
   1 C   -0.299129   -0.000000    0.043727    0.043727   -0.060368   -0.060368
   2 C   -0.299129   -0.000000    0.043727    0.043727   -0.060368   -0.060368
   3 H    0.149551   -0.000000    0.013049    0.013049   -0.004728   -0.004728
   4 H    0.149601    0.000000    0.013048    0.013048   -0.004728   -0.004728
   5 H    0.149579   -0.000000    0.013048    0.013048   -0.004728   -0.004728
   6 H    0.149529    0.000000    0.013049    0.013049   -0.004728   -0.004728
  ----------------------------------------------------------------------------
  Sum:    0.000000   -0.000000    0.139648    0.139648   -0.139648   -0.139648
  
  Multipole moment analysis of the density matrix
    Molecular charge:                      -0.000000
    Number of electrons:                   16.000000
      Center of electronic charge [Ang]: [ -0.000000,   0.000000,   0.000000]
    Total nuclear charge:                  16.000000
      Center of nuclear charge [Ang]:    [  0.000000,   0.000000,   0.000000]
    Dipole moment [D]:                     0.000001
      Cartesian components [D]:          [  0.000000,  -0.000001,   0.000000]
    RMS size of the density [Ang]:         1.193356
      Cartesian components [Ang]:        [  0.913166,   0.620418,   0.453111]
  
  Exciton analysis of the difference density matrix
  Total:
    <r_h> [Ang]:                  [ -0.000000,   0.000000,   0.000000]
    <r_e> [Ang]:                  [ -0.000000,   0.000000,  -0.000000]
    |<r_e - r_h>| [Ang]:            0.000000
    Hole size [Ang]:                1.446176
      Cartesian components [Ang]: [  0.970912,   0.749417,   0.766244]
    Electron size [Ang]:            1.309286
      Cartesian components [Ang]: [  0.955224,   0.673234,   0.590367]
  
  Alpha spin:
    <r_h> [Ang]:                  [ -0.000000,   0.000000,   0.000000]
    <r_e> [Ang]:                  [ -0.000000,   0.000000,  -0.000000]
    |<r_e - r_h>| [Ang]:            0.000000
    Hole size [Ang]:                1.446176
      Cartesian components [Ang]: [  0.970912,   0.749417,   0.766244]
    Electron size [Ang]:            1.309286
      Cartesian components [Ang]: [  0.955224,   0.673234,   0.590367]
  
  Beta spin:
    <r_h> [Ang]:                  [ -0.000000,   0.000000,   0.000000]
    <r_e> [Ang]:                  [ -0.000000,   0.000000,  -0.000000]
    |<r_e - r_h>| [Ang]:            0.000000
    Hole size [Ang]:                1.446176
      Cartesian components [Ang]: [  0.970912,   0.749417,   0.766244]
    Electron size [Ang]:            1.309286
      Cartesian components [Ang]: [  0.955224,   0.673234,   0.590367]
--------------------------------------------------------------------------------
Less particle guess vectors found than requested: 13 (found), 100 (requested).
Adjusting number of hole-2particle guess vectors to 87.
  Starting Davidson for electron-attached states of irrep B2g ... 
--------------------------------------------------------------------------------
   It NVec Conv  Avg. Norm  Max. Norm  Conv. states           Remark
--------------------------------------------------------------------------------
       100    0  5.151e-02  3.628e-01  0.0743 n n n n n n n n Guess.
    1  110    5  8.128e-04  5.604e-03  0.0624 n n n y y n y y 
    2  120   10  5.963e-07  4.262e-06  0.0624 y y y y y y y y Converged.
--------------------------------------------------------------------------------
  Davidson Summary: 
 ------------------------------------------------------------
  State  0: electron attachment energy =   0.0624 a.u.   (converged)
  State  1: electron attachment energy =   0.1025 a.u.   (converged)
  State  2: electron attachment energy =   0.2717 a.u.   (converged)
  State  3: electron attachment energy =   0.5058 a.u.   (converged)
  State  4: electron attachment energy =   0.5058 a.u.   (converged)
  State  5: electron attachment energy =   0.5127 a.u.   (converged)
  State  6: electron attachment energy =   0.5127 a.u.   (converged)
  State  7: electron attachment energy =   0.5172 a.u.   (converged)
  State  8: electron attachment energy =   0.5172 a.u.   (converged)
  State  9: electron attachment energy =   0.5813 a.u.   (converged)
 ------------------------------------------------------------


--------------------------------------------------------------------------------
                        Electron-Attached State Summary
--------------------------------------------------------------------------------

  Electron-attached state 1 (B2g)                                  [converged]
  ----------------------------------------------------------------------------
  Term symbol:  1 (2) B2g                                   R^2 =  3.28455e-06

  Total energy:                                            -78.3646071666 a.u.
  Electron attachment energy:                                      1.697633 eV

  Pole strength:                                                      0.970249

  Dip. moment [a.u.]:                  [   0.000000,   -0.000000,    0.000000]
  Total dipole [Debye]:                                               0.000001
  <r^2> [a.u.]:                        [  69.920053,   29.621663,   32.750126]
  Total <r^2> [a.u.]:                                               132.291842

  V1^2 = 0.9771, V2^2 = 0.0229

  Important amplitudes:
       occ i       vir a        vir b           v   
    -------------------------------------------------
                               1 (B2g) B      0.9132
                               2 (B2g) B     -0.3648
    -------------------------------------------------

  Density matrix analysis:
  ------------------------
  NOs (alpha)
    Occupation of frontier NOs:
       0.0203   0.9643
    Number of electrons:  8.000000
  NOs (beta)
    Occupation of frontier NOs:
       0.0252   0.9692
    Number of electrons:  9.000000
  NOs (spin-traced)
    Occupation of frontier NOs:
       0.0390   0.9892
    Number of electrons: 17.000000
    Number of unpaired electrons: n_u =  1.46806, n_u,nl =  1.05445
    NO participation ratio (PR_NO):  2.171032
  
  
  Mulliken Population Analysis
  Atom  Charge (e)    Spin (e)  h+ (alpha)   h+ (beta)  e- (alpha)   e- (beta)
  ----------------------------------------------------------------------------
   1 C   -0.743132    0.522071    0.048601    0.039286   -0.009566   -0.522323
   2 C   -0.743132    0.522071    0.048601    0.039286   -0.009566   -0.522323
   3 H    0.121553   -0.011036    0.000424    0.005108   -0.019941   -0.013589
   4 H    0.121601   -0.011035    0.000423    0.005107   -0.019941   -0.013590
   5 H    0.121579   -0.011035    0.000424    0.005107   -0.019941   -0.013590
   6 H    0.121531   -0.011036    0.000424    0.005108   -0.019941   -0.013589
  ----------------------------------------------------------------------------
  Sum:   -1.000000    1.000000    0.098897    0.099003   -0.098897   -1.099003
  
  Multipole moment analysis of the density matrix
    Molecular charge:                      -1.000000
    Number of electrons:                   17.000000
      Center of electronic charge [Ang]: [ -0.000000,   0.000000,  -0.000000]
    Total nuclear charge:                  16.000000
      Center of nuclear charge [Ang]:    [  0.000000,   0.000000,   0.000000]
    Dipole moment [D]:                     0.000001
      Cartesian components [D]:          [  0.000000,  -0.000001,   0.000000]
    RMS size of the density [Ang]:         1.476193
      Cartesian components [Ang]:        [  1.073192,   0.698524,   0.734485]
  
  Exciton analysis of the difference density matrix
  Total:
    <r_h> [Ang]:                  [ -0.000000,   0.000000,  -0.000000]
    <r_e> [Ang]:                  [ -0.000000,   0.000000,  -0.000000]
    |<r_e - r_h>| [Ang]:            0.000000
    Hole size [Ang]:                1.520509
      Cartesian components [Ang]: [  1.049468,   0.770276,   0.785646]
    Electron size [Ang]:            3.505143
      Cartesian components [Ang]: [  2.321448,   1.371613,   2.239550]
  
  Alpha spin:
    <r_h> [Ang]:                  [ -0.000000,   0.000000,  -0.000000]
    <r_e> [Ang]:                  [ -0.000000,   0.000000,   0.000000]
    |<r_e - r_h>| [Ang]:            0.000000
    Hole size [Ang]:                1.422373
      Cartesian components [Ang]: [  1.013567,   0.729318,   0.681118]
    Electron size [Ang]:            2.169401
      Cartesian components [Ang]: [  1.407975,   1.275317,   1.047604]
  
  Beta spin:
    <r_h> [Ang]:                  [  0.000000,   0.000000,  -0.000000]
    <r_e> [Ang]:                  [ -0.000000,   0.000000,  -0.000000]
    |<r_e - r_h>| [Ang]:            0.000000
    Hole size [Ang]:                1.612588
      Cartesian components [Ang]: [  1.084143,   0.809123,   0.877721]
    Electron size [Ang]:            3.601126
      Cartesian components [Ang]: [  2.386564,   1.379949,   2.316930]
  ----------------------------------------------------------------------------


  Electron-attached state 2 (B2g)                                  [converged]
  ----------------------------------------------------------------------------
  Term symbol:  2 (2) B2g                                   R^2 =  4.26229e-06

  Total energy:                                            -78.3245262150 a.u.
  Electron attachment energy:                                      2.788291 eV

  Pole strength:                                                      0.956018

  Dip. moment [a.u.]:                  [   0.000000,   -0.000000,    0.000000]
  Total dipole [Debye]:                                               0.000001
  <r^2> [a.u.]:                        [  71.525830,   30.374496,   34.211181]
  Total <r^2> [a.u.]:                                               136.111507

  V1^2 = 0.9656, V2^2 = 0.0344

  Important amplitudes:
       occ i       vir a        vir b           v   
    -------------------------------------------------
                               2 (B2g) B      0.8815
                               1 (B2g) B      0.3996
    -------------------------------------------------

  Density matrix analysis:
  ------------------------
  NOs (alpha)
    Occupation of frontier NOs:
       0.0203   0.9624
    Number of electrons:  8.000000
  NOs (beta)
    Occupation of frontier NOs:
       0.0254   0.9719
    Number of electrons:  9.000000
  NOs (spin-traced)
    Occupation of frontier NOs:
       0.0365   0.9856
    Number of electrons: 17.000000
    Number of unpaired electrons: n_u =  1.47583, n_u,nl =  1.05564
    NO participation ratio (PR_NO):  2.208745
  
  
  Mulliken Population Analysis
  Atom  Charge (e)    Spin (e)  h+ (alpha)   h+ (beta)  e- (alpha)   e- (beta)
  ----------------------------------------------------------------------------
   1 C   -0.705130    0.508858    0.073594    0.052521   -0.022165   -0.509951
   2 C   -0.705130    0.508858    0.073594    0.052521   -0.022165   -0.509951
   3 H    0.102552   -0.004430    0.001303    0.004569   -0.027017   -0.025853
   4 H    0.102599   -0.004428    0.001302    0.004568   -0.027018   -0.025855
   5 H    0.102578   -0.004428    0.001303    0.004568   -0.027017   -0.025855
   6 H    0.102531   -0.004430    0.001303    0.004569   -0.027017   -0.025853
  ----------------------------------------------------------------------------
  Sum:   -1.000000    1.000000    0.152399    0.123318   -0.152399   -1.123318
  
  Multipole moment analysis of the density matrix
    Molecular charge:                      -1.000000
    Number of electrons:                   17.000000
      Center of electronic charge [Ang]: [ -0.000000,   0.000000,  -0.000000]
    Total nuclear charge:                  16.000000
      Center of nuclear charge [Ang]:    [  0.000000,   0.000000,   0.000000]
    Dipole moment [D]:                     0.000001
      Cartesian components [D]:          [  0.000000,  -0.000001,   0.000000]
    RMS size of the density [Ang]:         1.497353
      Cartesian components [Ang]:        [  1.085446,   0.707345,   0.750690]
  
  Exciton analysis of the difference density matrix
  Total:
    <r_h> [Ang]:                  [ -0.000000,   0.000000,  -0.000000]
    <r_e> [Ang]:                  [ -0.000000,   0.000000,  -0.000000]
    |<r_e - r_h>| [Ang]:            0.000000
    Hole size [Ang]:                1.348366
      Cartesian components [Ang]: [  0.980540,   0.688939,   0.618058]
    Electron size [Ang]:            3.522687
      Cartesian components [Ang]: [  2.334483,   1.393684,   2.239901]
  
  Alpha spin:
    <r_h> [Ang]:                  [ -0.000000,   0.000000,  -0.000000]
    <r_e> [Ang]:                  [ -0.000000,   0.000000,   0.000000]
    |<r_e - r_h>| [Ang]:            0.000000
    Hole size [Ang]:                1.353992
      Cartesian components [Ang]: [  0.978883,   0.678733,   0.643742]
    Electron size [Ang]:            2.139406
      Cartesian components [Ang]: [  1.403422,   1.234106,   1.041367]
  
  Beta spin:
    <r_h> [Ang]:                  [ -0.000000,   0.000000,  -0.000000]
    <r_e> [Ang]:                  [ -0.000000,   0.000000,  -0.000000]
    |<r_e - r_h>| [Ang]:            0.000000
    Hole size [Ang]:                1.341381
      Cartesian components [Ang]: [  0.982584,   0.701345,   0.584761]
    Electron size [Ang]:            3.670412
      Cartesian components [Ang]: [  2.433510,   1.413947,   2.355994]
  ----------------------------------------------------------------------------


  Electron-attached state 3 (B2g)                                  [converged]
  ----------------------------------------------------------------------------
  Term symbol:  3 (2) B2g                                   R^2 =  2.56781e-06

  Total energy:                                            -78.1552528394 a.u.
  Electron attachment energy:                                      7.394454 eV

  Pole strength:                                                      0.966395

  Dip. moment [a.u.]:                  [   0.000000,   -0.000001,   -0.000000]
  Total dipole [Debye]:                                               0.000001
  <r^2> [a.u.]:                        [  67.575591,   28.984201,   31.037182]
  Total <r^2> [a.u.]:                                               127.596974

  V1^2 = 0.9695, V2^2 = 0.0305

  Important amplitudes:
       occ i       vir a        vir b           v   
    -------------------------------------------------
                               3 (B2g) B     -0.9549
                               2 (B2g) B     -0.2250
    -------------------------------------------------

  Density matrix analysis:
  ------------------------
  NOs (alpha)
    Occupation of frontier NOs:
       0.0272   0.9553
    Number of electrons:  8.000000
  NOs (beta)
    Occupation of frontier NOs:
       0.0325   0.9672
    Number of electrons:  9.000000
  NOs (spin-traced)
    Occupation of frontier NOs:
       0.0563   0.9765
    Number of electrons: 17.000000
    Number of unpaired electrons: n_u =  1.50018, n_u,nl =  1.06814
    NO participation ratio (PR_NO):  2.316099
  
  
  Mulliken Population Analysis
  Atom  Charge (e)    Spin (e)  h+ (alpha)   h+ (beta)  e- (alpha)   e- (beta)
  ----------------------------------------------------------------------------
   1 C   -0.723096    0.502362    0.048337    0.036062   -0.009139   -0.499227
   2 C   -0.723096    0.502362    0.048337    0.036062   -0.009139   -0.499227
   3 H    0.111535   -0.001181   -0.001039   -0.001440   -0.018559   -0.016978
   4 H    0.111583   -0.001181   -0.001040   -0.001440   -0.018560   -0.016978
   5 H    0.111562   -0.001181   -0.001040   -0.001440   -0.018559   -0.016978
   6 H    0.111513   -0.001181   -0.001039   -0.001440   -0.018559   -0.016977
  ----------------------------------------------------------------------------
  Sum:   -1.000000    1.000000    0.092515    0.066365   -0.092515   -1.066365
  
  Multipole moment analysis of the density matrix
    Molecular charge:                      -1.000000
    Number of electrons:                   17.000000
      Center of electronic charge [Ang]: [ -0.000000,   0.000000,   0.000000]
    Total nuclear charge:                  16.000000
      Center of nuclear charge [Ang]:    [  0.000000,   0.000000,   0.000000]
    Dipole moment [D]:                     0.000001
      Cartesian components [D]:          [  0.000000,  -0.000001,  -0.000000]
    RMS size of the density [Ang]:         1.449762
      Cartesian components [Ang]:        [  1.055046,   0.690967,   0.715019]
  
  Exciton analysis of the difference density matrix
  Total:
    <r_h> [Ang]:                  [ -0.000000,   0.000000,  -0.000000]
    <r_e> [Ang]:                  [ -0.000000,   0.000000,  -0.000000]
    |<r_e - r_h>| [Ang]:            0.000000
    Hole size [Ang]:                1.345980
      Cartesian components [Ang]: [  0.971999,   0.709222,   0.603228]
    Electron size [Ang]:            3.379173
      Cartesian components [Ang]: [  2.223851,   1.325998,   2.171412]
  
  Alpha spin:
    <r_h> [Ang]:                  [ -0.000000,   0.000000,  -0.000000]
    <r_e> [Ang]:                  [ -0.000000,   0.000000,   0.000000]
    |<r_e - r_h>| [Ang]:            0.000000
    Hole size [Ang]:                1.274474
      Cartesian components [Ang]: [  0.933187,   0.649812,   0.575490]
    Electron size [Ang]:            2.095320
      Cartesian components [Ang]: [  1.381764,   1.225569,   0.989481]
  
  Beta spin:
    <r_h> [Ang]:                  [ -0.000000,   0.000000,  -0.000000]
    <r_e> [Ang]:                  [ -0.000000,   0.000000,  -0.000000]
    |<r_e - r_h>| [Ang]:            0.000000
    Hole size [Ang]:                1.439749
      Cartesian components [Ang]: [  1.023651,   0.784572,   0.639892]
    Electron size [Ang]:            3.468225
      Cartesian components [Ang]: [  2.282308,   1.334355,   2.244806]
  ----------------------------------------------------------------------------


  Electron-attached state 4 (B2g)                                  [converged]
  ----------------------------------------------------------------------------
  Term symbol:  4 (2) B2g                                   R^2 =  2.26921e-10

  Total energy:                                            -77.9212052343 a.u.
  Electron attachment energy:                                     13.763213 eV

  Pole strength:                                                      0.000000

  Dip. moment [a.u.]:                  [   0.000000,    0.000000,    0.000000]
  Total dipole [Debye]:                                               0.000001
  <r^2> [a.u.]:                        [ 100.708843,  102.583850,   35.535384]
  Total <r^2> [a.u.]:                                               238.828078

  V1^2 = 0.0000, V2^2 = 1.0000

  Important amplitudes:
       occ i       vir a        vir b           v   
    -------------------------------------------------
     1 (B1u) A    2 (B1g) A    2 (B2u) B      0.5346
     1 (B1u) B    2 (B1g) B    2 (B2u) B      0.4561
    -------------------------------------------------

  Density matrix analysis:
  ------------------------
  NOs (alpha)
    Occupation of frontier NOs:
       0.3830   0.5719
    Number of electrons:  8.000000
  NOs (beta)
    Occupation of frontier NOs:
       0.4285   0.5506
    Number of electrons:  9.000000
  NOs (spin-traced)
    Occupation of frontier NOs:
       0.9335   1.0004
    Number of electrons: 17.000000
    Number of unpaired electrons: n_u =  3.31495, n_u,nl =  3.02675
    NO participation ratio (PR_NO):  3.817703
  
  
  Mulliken Population Analysis
  Atom  Charge (e)    Spin (e)  h+ (alpha)   h+ (beta)  e- (alpha)   e- (beta)
  ----------------------------------------------------------------------------
   1 C   -0.630799    0.465691    0.285165    0.203125   -0.218155   -0.601805
   2 C   -0.630799    0.465691    0.285165    0.203125   -0.218155   -0.601805
   3 H    0.065386    0.017154    0.003419    0.002435   -0.036925   -0.053095
   4 H    0.065435    0.017154    0.003419    0.002435   -0.036925   -0.053096
   5 H    0.065413    0.017155    0.003419    0.002435   -0.036925   -0.053096
   6 H    0.065363    0.017154    0.003419    0.002436   -0.036925   -0.053095
  ----------------------------------------------------------------------------
  Sum:   -1.000000    1.000000    0.584008    0.415992   -0.584008   -1.415992
  
  Multipole moment analysis of the density matrix
    Molecular charge:                      -1.000000
    Number of electrons:                   17.000000
      Center of electronic charge [Ang]: [ -0.000000,   0.000000,  -0.000000]
    Total nuclear charge:                  16.000000
      Center of nuclear charge [Ang]:    [  0.000000,   0.000000,   0.000000]
    Dipole moment [D]:                     0.000001
      Cartesian components [D]:          [  0.000000,   0.000001,   0.000000]
    RMS size of the density [Ang]:         1.983441
      Cartesian components [Ang]:        [  1.287984,   1.299919,   0.765081]
  
  Exciton analysis of the difference density matrix
  Total:
    <r_h> [Ang]:                  [ -0.000000,   0.000000,   0.000000]
    <r_e> [Ang]:                  [ -0.000000,  -0.000000,  -0.000000]
    |<r_e - r_h>| [Ang]:            0.000000
    Hole size [Ang]:                1.247848
      Cartesian components [Ang]: [  0.742732,   0.514337,   0.860773]
    Electron size [Ang]:            4.777562
      Cartesian components [Ang]: [  2.775883,   3.378776,   1.924434]
  
  Alpha spin:
    <r_h> [Ang]:                  [ -0.000000,   0.000000,   0.000000]
    <r_e> [Ang]:                  [ -0.000000,  -0.000000,  -0.000000]
    |<r_e - r_h>| [Ang]:            0.000000
    Hole size [Ang]:                1.247848
      Cartesian components [Ang]: [  0.742732,   0.514337,   0.860773]
    Electron size [Ang]:            5.055437
      Cartesian components [Ang]: [  3.319774,   3.317735,   1.878610]
  
  Beta spin:
    <r_h> [Ang]:                  [ -0.000000,   0.000000,   0.000000]
    <r_e> [Ang]:                  [  0.000000,  -0.000000,  -0.000000]
    |<r_e - r_h>| [Ang]:            0.000000
    Hole size [Ang]:                1.247848
      Cartesian components [Ang]: [  0.742732,   0.514337,   0.860773]
    Electron size [Ang]:            4.658131
      Cartesian components [Ang]: [  2.517567,   3.403633,   1.943019]
  ----------------------------------------------------------------------------


  Electron-attached state 5 (B2g)                                  [converged]
  ----------------------------------------------------------------------------
  Term symbol:  5 (2) B2g                                   R^2 =  5.01888e-10

  Total energy:                                            -77.9212047944 a.u.
  Electron attachment energy:                                     13.763225 eV

  Pole strength:                                                      0.000002

  Dip. moment [a.u.]:                  [   0.000000,    0.000000,    0.000000]
  Total dipole [Debye]:                                               0.000001
  <r^2> [a.u.]:                        [ 100.708921,  102.583840,   35.535508]
  Total <r^2> [a.u.]:                                               238.828269

  V1^2 = 0.0000, V2^2 = 1.0000

  Important amplitudes:
       occ i       vir a        vir b           v   
    -------------------------------------------------
     1 (B1u) A    2 (B2u) A    2 (B1g) B     -0.5720
     1 (B1u) B    2 (B1g) B    2 (B2u) B      0.3540
    -------------------------------------------------

  Density matrix analysis:
  ------------------------
  NOs (alpha)
    Occupation of frontier NOs:
       0.2189   0.6547
    Number of electrons:  8.000000
  NOs (beta)
    Occupation of frontier NOs:
       0.3460   0.7156
    Number of electrons:  9.000000
  NOs (spin-traced)
    Occupation of frontier NOs:
       0.9335   1.0004
    Number of electrons: 17.000000
    Number of unpaired electrons: n_u =  3.31497, n_u,nl =  3.02675
    NO participation ratio (PR_NO):  3.817713
  
  
  Mulliken Population Analysis
  Atom  Charge (e)    Spin (e)  h+ (alpha)   h+ (beta)  e- (alpha)   e- (beta)
  ----------------------------------------------------------------------------
   1 C   -0.630796    0.406476    0.365888    0.122402   -0.328483   -0.491473
   2 C   -0.630796    0.406476    0.365888    0.122402   -0.328483   -0.491473
   3 H    0.065384    0.046762    0.004387    0.001468   -0.023089   -0.066932
   4 H    0.065434    0.046762    0.004387    0.001468   -0.023090   -0.066932
   5 H    0.065411    0.046762    0.004387    0.001468   -0.023090   -0.066932
   6 H    0.065362    0.046762    0.004387    0.001468   -0.023089   -0.066932
  ----------------------------------------------------------------------------
  Sum:   -1.000000    1.000000    0.749324    0.250675   -0.749324   -1.250675
  
  Multipole moment analysis of the density matrix
    Molecular charge:                      -1.000000
    Number of electrons:                   17.000000
      Center of electronic charge [Ang]: [ -0.000000,   0.000000,  -0.000000]
    Total nuclear charge:                  16.000000
      Center of nuclear charge [Ang]:    [  0.000000,   0.000000,   0.000000]
    Dipole moment [D]:                     0.000001
      Cartesian components [D]:          [  0.000000,   0.000001,   0.000000]
    RMS size of the density [Ang]:         1.983442
      Cartesian components [Ang]:        [  1.287985,   1.299919,   0.765082]
  
  Exciton analysis of the difference density matrix
  Total:
    <r_h> [Ang]:                  [ -0.000000,   0.000000,   0.000000]
    <r_e> [Ang]:                  [ -0.000000,  -0.000000,   0.000000]
    |<r_e - r_h>| [Ang]:            0.000000
    Hole size [Ang]:                1.247847
      Cartesian components [Ang]: [  0.742732,   0.514337,   0.860772]
    Electron size [Ang]:            4.777567
      Cartesian components [Ang]: [  2.775886,   3.378777,   1.924439]
  
  Alpha spin:
    <r_h> [Ang]:                  [ -0.000000,   0.000000,   0.000000]
    <r_e> [Ang]:                  [  0.000000,  -0.000000,   0.000000]
    |<r_e - r_h>| [Ang]:            0.000000
    Hole size [Ang]:                1.247848
      Cartesian components [Ang]: [  0.742732,   0.514338,   0.860773]
    Electron size [Ang]:            4.549247
      Cartesian components [Ang]: [  2.263100,   3.425600,   1.959409]
  
  Beta spin:
    <r_h> [Ang]:                  [ -0.000000,   0.000000,   0.000000]
    <r_e> [Ang]:                  [ -0.000000,  -0.000000,   0.000000]
    |<r_e - r_h>| [Ang]:            0.000000
    Hole size [Ang]:                1.247845
      Cartesian components [Ang]: [  0.742732,   0.514336,   0.860770]
    Electron size [Ang]:            4.909277
      Cartesian components [Ang]: [  3.041983,   3.350410,   1.903180]
  ----------------------------------------------------------------------------


  Electron-attached state 6 (B2g)                                  [converged]
  ----------------------------------------------------------------------------
  Term symbol:  6 (2) B2g                                   R^2 =  9.80181e-09

  Total energy:                                            -77.9143412093 a.u.
  Electron attachment energy:                                     13.949993 eV

  Pole strength:                                                      0.000299

  Dip. moment [a.u.]:                  [   0.000000,   -0.000001,    0.000000]
  Total dipole [Debye]:                                               0.000001
  <r^2> [a.u.]:                        [  93.898246,   46.152629,   84.374258]
  Total <r^2> [a.u.]:                                               224.425133

  V1^2 = 0.0003, V2^2 = 0.9997

  Important amplitudes:
       occ i       vir a        vir b           v   
    -------------------------------------------------
     1 (B1u) A    2 (B1u) A    1 (B2g) B      0.5697
     1 (B1u) B    1 (B2g) B    2 (B1u) B     -0.3652
    -------------------------------------------------

  Density matrix analysis:
  ------------------------
  NOs (alpha)
    Occupation of frontier NOs:
       0.2347   0.6500
    Number of electrons:  8.000000
  NOs (beta)
    Occupation of frontier NOs:
       0.3507   0.6998
    Number of electrons:  9.000000
  NOs (spin-traced)
    Occupation of frontier NOs:
       0.9289   1.0024
    Number of electrons: 17.000000
    Number of unpaired electrons: n_u =  3.30158, n_u,nl =  3.02467
    NO participation ratio (PR_NO):  3.816301
  
  
  Mulliken Population Analysis
  Atom  Charge (e)    Spin (e)  h+ (alpha)   h+ (beta)  e- (alpha)   e- (beta)
  ----------------------------------------------------------------------------
   1 C   -0.809398    0.493511    0.358029    0.130353   -0.366407   -0.632244
   2 C   -0.809398    0.493511    0.358029    0.130353   -0.366407   -0.632244
   3 H    0.154685    0.003244    0.004291    0.001566   -0.000101   -0.000621
   4 H    0.154735    0.003244    0.004291    0.001566   -0.000101   -0.000621
   5 H    0.154713    0.003244    0.004291    0.001566   -0.000101   -0.000621
   6 H    0.154663    0.003244    0.004291    0.001566   -0.000101   -0.000621
  ----------------------------------------------------------------------------
  Sum:   -1.000000    1.000000    0.733221    0.266972   -0.733221   -1.266972
  
  Multipole moment analysis of the density matrix
    Molecular charge:                      -1.000000
    Number of electrons:                   17.000000
      Center of electronic charge [Ang]: [ -0.000000,   0.000000,  -0.000000]
    Total nuclear charge:                  16.000000
      Center of nuclear charge [Ang]:    [  0.000000,   0.000000,   0.000000]
    Dipole moment [D]:                     0.000001
      Cartesian components [D]:          [  0.000000,  -0.000001,   0.000000]
    RMS size of the density [Ang]:         1.922704
      Cartesian components [Ang]:        [  1.243671,   0.871916,   1.178913]
  
  Exciton analysis of the difference density matrix
  Total:
    <r_h> [Ang]:                  [ -0.000000,   0.000000,   0.000000]
    <r_e> [Ang]:                  [ -0.000000,   0.000000,  -0.000000]
    |<r_e - r_h>| [Ang]:            0.000000
    Hole size [Ang]:                1.250035
      Cartesian components [Ang]: [  0.743634,   0.515469,   0.862489]
    Electron size [Ang]:            4.561728
      Cartesian components [Ang]: [  2.598465,   1.874892,   3.246863]
  
  Alpha spin:
    <r_h> [Ang]:                  [ -0.000000,   0.000000,   0.000000]
    <r_e> [Ang]:                  [  0.000000,   0.000000,   0.000000]
    |<r_e - r_h>| [Ang]:            0.000000
    Hole size [Ang]:                1.249833
      Cartesian components [Ang]: [  0.743535,   0.515343,   0.862357]
    Electron size [Ang]:            4.497395
      Cartesian components [Ang]: [  2.176576,   1.967802,   3.408347]
  
  Beta spin:
    <r_h> [Ang]:                  [ -0.000000,   0.000000,   0.000000]
    <r_e> [Ang]:                  [ -0.000000,   0.000000,  -0.000000]
    |<r_e - r_h>| [Ang]:            0.000000
    Hole size [Ang]:                1.250589
      Cartesian components [Ang]: [  0.743906,   0.515814,   0.862851]
    Electron size [Ang]:            4.598547
      Cartesian components [Ang]: [  2.813871,   1.818957,   3.149629]
  ----------------------------------------------------------------------------


  Electron-attached state 7 (B2g)                                  [converged]
  ----------------------------------------------------------------------------
  Term symbol:  7 (2) B2g                                   R^2 =  6.15830e-09

  Total energy:                                            -77.9143028492 a.u.
  Electron attachment energy:                                     13.951037 eV

  Pole strength:                                                      0.000550

  Dip. moment [a.u.]:                  [   0.000000,   -0.000001,    0.000000]
  Total dipole [Debye]:                                               0.000001
  <r^2> [a.u.]:                        [  93.904845,   46.148216,   84.348595]
  Total <r^2> [a.u.]:                                               224.401656

  V1^2 = 0.0006, V2^2 = 0.9994

  Important amplitudes:
       occ i       vir a        vir b           v   
    -------------------------------------------------
     1 (B1u) A    1 (B2g) A    2 (B1u) B     -0.5396
     1 (B1u) B    1 (B2g) B    2 (B1u) B     -0.4470
    -------------------------------------------------

  Density matrix analysis:
  ------------------------
  NOs (alpha)
    Occupation of frontier NOs:
       0.3674   0.5838
    Number of electrons:  8.000000
  NOs (beta)
    Occupation of frontier NOs:
       0.4184   0.5662
    Number of electrons:  9.000000
  NOs (spin-traced)
    Occupation of frontier NOs:
       0.9290   1.0021
    Number of electrons: 17.000000
    Number of unpaired electrons: n_u =  3.30285, n_u,nl =  3.02465
    NO participation ratio (PR_NO):  3.817213
  
  
  Mulliken Population Analysis
  Atom  Charge (e)    Spin (e)  h+ (alpha)   h+ (beta)  e- (alpha)   e- (beta)
  ----------------------------------------------------------------------------
   1 C   -0.809431    0.497852    0.292920    0.195322   -0.299145   -0.699399
   2 C   -0.809431    0.497852    0.292920    0.195322   -0.299145   -0.699399
   3 H    0.154702    0.001074    0.003514    0.002337   -0.000402   -0.000298
   4 H    0.154752    0.001074    0.003514    0.002337   -0.000402   -0.000298
   5 H    0.154729    0.001074    0.003514    0.002337   -0.000402   -0.000298
   6 H    0.154679    0.001074    0.003514    0.002337   -0.000402   -0.000298
  ----------------------------------------------------------------------------
  Sum:   -1.000000    1.000000    0.599896    0.399992   -0.599896   -1.399992
  
  Multipole moment analysis of the density matrix
    Molecular charge:                      -1.000000
    Number of electrons:                   17.000000
      Center of electronic charge [Ang]: [ -0.000000,   0.000000,  -0.000000]
    Total nuclear charge:                  16.000000
      Center of nuclear charge [Ang]:    [  0.000000,   0.000000,   0.000000]
    Dipole moment [D]:                     0.000001
      Cartesian components [D]:          [  0.000000,  -0.000001,   0.000000]
    RMS size of the density [Ang]:         1.922603
      Cartesian components [Ang]:        [  1.243714,   0.871875,   1.178733]
  
  Exciton analysis of the difference density matrix
  Total:
    <r_h> [Ang]:                  [ -0.000000,   0.000000,   0.000000]
    <r_e> [Ang]:                  [ -0.000000,   0.000000,  -0.000000]
    |<r_e - r_h>| [Ang]:            0.000000
    Hole size [Ang]:                1.248386
      Cartesian components [Ang]: [  0.742993,   0.514650,   0.861141]
    Electron size [Ang]:            4.561463
      Cartesian components [Ang]: [  2.598733,   1.874747,   3.246361]
  
  Alpha spin:
    <r_h> [Ang]:                  [ -0.000000,   0.000000,   0.000000]
    <r_e> [Ang]:                  [ -0.000000,   0.000000,  -0.000000]
    |<r_e - r_h>| [Ang]:            0.000000
    Hole size [Ang]:                1.245754
      Cartesian components [Ang]: [  0.742026,   0.513386,   0.858915]
    Electron size [Ang]:            4.639811
      Cartesian components [Ang]: [  3.035859,   1.755117,   3.038252]
  
  Beta spin:
    <r_h> [Ang]:                  [ -0.000000,   0.000000,   0.000000]
    <r_e> [Ang]:                  [  0.000000,   0.000000,  -0.000000]
    |<r_e - r_h>| [Ang]:            0.000000
    Hole size [Ang]:                1.252322
      Cartesian components [Ang]: [  0.744440,   0.516540,   0.864469]
    Electron size [Ang]:            4.527476
      Cartesian components [Ang]: [  2.387050,   1.923733,   3.331559]
  ----------------------------------------------------------------------------


  Electron-attached state 8 (B2g)                                  [converged]
  ----------------------------------------------------------------------------
  Term symbol:  8 (2) B2g                                   R^2 =  1.02841e-09

  Total energy:                                            -77.9098140861 a.u.
  Electron attachment energy:                                     14.073182 eV

  Pole strength:                                                      0.000002

  Dip. moment [a.u.]:                  [   0.000000,   -0.000001,   -0.000000]
  Total dipole [Debye]:                                               0.000003
  <r^2> [a.u.]:                        [ 141.284617,   50.536725,   39.521523]
  Total <r^2> [a.u.]:                                               231.342865

  V1^2 = 0.0000, V2^2 = 1.0000

  Important amplitudes:
       occ i       vir a        vir b           v   
    -------------------------------------------------
     1 (B1u) A    3 (B3u) A    4 (Ag ) B     -0.5773
     1 (B1u) B    4 (Ag ) B    3 (B3u) B      0.2901
    -------------------------------------------------

  Density matrix analysis:
  ------------------------
  NOs (alpha)
    Occupation of frontier NOs:
       0.1653   0.6669
    Number of electrons:  8.000000
  NOs (beta)
    Occupation of frontier NOs:
       0.3336   0.7980
    Number of electrons:  9.000000
  NOs (spin-traced)
    Occupation of frontier NOs:
       0.9335   1.0004
    Number of electrons: 17.000000
    Number of unpaired electrons: n_u =  3.31548, n_u,nl =  3.02679
    NO participation ratio (PR_NO):  3.818201
  
  
  Mulliken Population Analysis
  Atom  Charge (e)    Spin (e)  h+ (alpha)   h+ (beta)  e- (alpha)   e- (beta)
  ----------------------------------------------------------------------------
   1 C   -0.803703    0.535151    0.406129    0.082161   -0.390840   -0.602024
   2 C   -0.803703    0.535151    0.406129    0.082161   -0.390840   -0.602024
   3 H    0.151838   -0.017576    0.004870    0.000985   -0.012514    0.008946
   4 H    0.151888   -0.017576    0.004869    0.000985   -0.012514    0.008946
   5 H    0.151866   -0.017576    0.004869    0.000985   -0.012514    0.008946
   6 H    0.151816   -0.017576    0.004870    0.000985   -0.012514    0.008946
  ----------------------------------------------------------------------------
  Sum:   -1.000000    1.000000    0.831736    0.168263   -0.831736   -1.168263
  
  Multipole moment analysis of the density matrix
    Molecular charge:                      -1.000000
    Number of electrons:                   17.000000
      Center of electronic charge [Ang]: [ -0.000000,   0.000000,   0.000000]
    Total nuclear charge:                  16.000000
      Center of nuclear charge [Ang]:    [  0.000000,   0.000000,   0.000000]
    Dipole moment [D]:                     0.000003
      Cartesian components [D]:          [  0.000000,  -0.000003,  -0.000000]
    RMS size of the density [Ang]:         1.952112
      Cartesian components [Ang]:        [  1.525542,   0.912389,   0.806851]
  
  Exciton analysis of the difference density matrix
  Total:
    <r_h> [Ang]:                  [ -0.000000,   0.000000,   0.000000]
    <r_e> [Ang]:                  [ -0.000000,   0.000000,   0.000000]
    |<r_e - r_h>| [Ang]:            0.000000
    Hole size [Ang]:                1.247848
      Cartesian components [Ang]: [  0.742732,   0.514337,   0.860773]
    Electron size [Ang]:            4.666592
      Cartesian components [Ang]: [  3.658787,   2.031942,   2.064356]
  
  Alpha spin:
    <r_h> [Ang]:                  [ -0.000000,   0.000000,   0.000000]
    <r_e> [Ang]:                  [  0.000000,   0.000000,   0.000000]
    |<r_e - r_h>| [Ang]:            0.000000
    Hole size [Ang]:                1.247848
      Cartesian components [Ang]: [  0.742732,   0.514337,   0.860773]
    Electron size [Ang]:            4.668191
      Cartesian components [Ang]: [  3.642367,   2.071847,   2.057334]
  
  Beta spin:
    <r_h> [Ang]:                  [ -0.000000,   0.000000,   0.000000]
    <r_e> [Ang]:                  [ -0.000000,   0.000000,   0.000000]
    |<r_e - r_h>| [Ang]:            0.000000
    Hole size [Ang]:                1.247847
      Cartesian components [Ang]: [  0.742732,   0.514337,   0.860772]
    Electron size [Ang]:            4.665453
      Cartesian components [Ang]: [  3.670433,   2.003049,   2.069341]
  ----------------------------------------------------------------------------


  Electron-attached state 9 (B2g)                                  [converged]
  ----------------------------------------------------------------------------
  Term symbol:  9 (2) B2g                                   R^2 =  3.14360e-09

  Total energy:                                            -77.9097819036 a.u.
  Electron attachment energy:                                     14.074058 eV

  Pole strength:                                                      0.000093

  Dip. moment [a.u.]:                  [   0.000000,   -0.000001,   -0.000000]
  Total dipole [Debye]:                                               0.000003
  <r^2> [a.u.]:                        [ 141.283408,   50.538333,   39.534976]
  Total <r^2> [a.u.]:                                               231.356717

  V1^2 = 0.0001, V2^2 = 0.9999

  Important amplitudes:
       occ i       vir a        vir b           v   
    -------------------------------------------------
     1 (B1u) A    4 (Ag ) A    3 (B3u) B      0.5007
     1 (B1u) B    4 (Ag ) B    3 (B3u) B      0.4991
    -------------------------------------------------

  Density matrix analysis:
  ------------------------
  NOs (alpha)
    Occupation of frontier NOs:
       0.4652   0.5016
    Number of electrons:  8.000000
  NOs (beta)
    Occupation of frontier NOs:
       0.4684   0.4984
    Number of electrons:  9.000000
  NOs (spin-traced)
    Occupation of frontier NOs:
       0.9336   1.0000
    Number of electrons: 17.000000
    Number of unpaired electrons: n_u =  3.31681, n_u,nl =  3.02682
    NO participation ratio (PR_NO):  3.819273
  
  
  Mulliken Population Analysis
  Atom  Charge (e)    Spin (e)  h+ (alpha)   h+ (beta)  e- (alpha)   e- (beta)
  ----------------------------------------------------------------------------
   1 C   -0.803568    0.452239    0.244915    0.243336   -0.271015   -0.721674
   2 C   -0.803568    0.452239    0.244915    0.243336   -0.271015   -0.721674
   3 H    0.151770    0.023881    0.002936    0.002917    0.010114   -0.013748
   4 H    0.151820    0.023881    0.002936    0.002917    0.010114   -0.013748
   5 H    0.151798    0.023880    0.002936    0.002917    0.010114   -0.013748
   6 H    0.151748    0.023881    0.002936    0.002917    0.010114   -0.013748
  ----------------------------------------------------------------------------
  Sum:   -1.000000    1.000000    0.501575    0.498341   -0.501575   -1.498341
  
  Multipole moment analysis of the density matrix
    Molecular charge:                      -1.000000
    Number of electrons:                   17.000000
      Center of electronic charge [Ang]: [ -0.000000,   0.000000,   0.000000]
    Total nuclear charge:                  16.000000
      Center of nuclear charge [Ang]:    [  0.000000,   0.000000,   0.000000]
    Dipole moment [D]:                     0.000003
      Cartesian components [D]:          [  0.000000,  -0.000003,  -0.000000]
    RMS size of the density [Ang]:         1.952170
      Cartesian components [Ang]:        [  1.525535,   0.912404,   0.806989]
  
  Exciton analysis of the difference density matrix
  Total:
    <r_h> [Ang]:                  [ -0.000000,   0.000000,   0.000000]
    <r_e> [Ang]:                  [ -0.000000,   0.000000,   0.000000]
    |<r_e - r_h>| [Ang]:            0.000000
    Hole size [Ang]:                1.247885
      Cartesian components [Ang]: [  0.742749,   0.514358,   0.860799]
    Electron size [Ang]:            4.666894
      Cartesian components [Ang]: [  3.658838,   2.032040,   2.064853]
  
  Alpha spin:
    <r_h> [Ang]:                  [ -0.000000,   0.000000,   0.000000]
    <r_e> [Ang]:                  [ -0.000000,   0.000000,   0.000000]
    |<r_e - r_h>| [Ang]:            0.000000
    Hole size [Ang]:                1.247822
      Cartesian components [Ang]: [  0.742726,   0.514328,   0.860747]
    Electron size [Ang]:            4.664251
      Cartesian components [Ang]: [  3.686025,   1.963974,   2.076358]
  
  Beta spin:
    <r_h> [Ang]:                  [ -0.000000,   0.000000,   0.000000]
    <r_e> [Ang]:                  [ -0.000000,   0.000000,   0.000000]
    |<r_e - r_h>| [Ang]:            0.000000
    Hole size [Ang]:                1.247948
      Cartesian components [Ang]: [  0.742773,   0.514389,   0.860852]
    Electron size [Ang]:            4.667779
      Cartesian components [Ang]: [  3.649692,   2.054321,   2.060988]
  ----------------------------------------------------------------------------


  Electron-attached state 10 (B2g)                                  [converged]
  ----------------------------------------------------------------------------
  Term symbol:  10 (2) B2g                                  R^2 =  5.23661e-08

  Total energy:                                            -77.8456815306 a.u.
  Electron attachment energy:                                     15.818318 eV

  Pole strength:                                                      0.000087

  Dip. moment [a.u.]:                  [   0.000000,   -0.000002,   -0.000000]
  Total dipole [Debye]:                                               0.000006
  <r^2> [a.u.]:                        [ 108.034555,   47.853901,   27.430388]
  Total <r^2> [a.u.]:                                               183.318844

  V1^2 = 0.0001, V2^2 = 0.9999

  Important amplitudes:
       occ i       vir a        vir b           v   
    -------------------------------------------------
     1 (B1u) A    5 (Ag ) A    3 (B3u) B     -0.5510
     1 (B1u) A    3 (B3u) A    5 (Ag ) B     -0.4244
    -------------------------------------------------

  Density matrix analysis:
  ------------------------
  NOs (alpha)
    Occupation of frontier NOs:
       0.3605   0.6100
    Number of electrons:  8.000000
  NOs (beta)
    Occupation of frontier NOs:
       0.3951   0.6395
    Number of electrons:  9.000000
  NOs (spin-traced)
    Occupation of frontier NOs:
       0.9336   1.0000
    Number of electrons: 17.000000
    Number of unpaired electrons: n_u =  3.30694, n_u,nl =  3.02635
    NO participation ratio (PR_NO):  3.809750
  
  
  Mulliken Population Analysis
  Atom  Charge (e)    Spin (e)  h+ (alpha)   h+ (beta)  e- (alpha)   e- (beta)
  ----------------------------------------------------------------------------
   1 C   -0.113026    0.615632    0.472517    0.015734   -0.071650   -0.230498
   2 C   -0.113026    0.615632    0.472517    0.015734   -0.071650   -0.230498
   3 H   -0.193499   -0.057816    0.005665    0.000190   -0.206098   -0.142807
   4 H   -0.193454   -0.057817    0.005665    0.000190   -0.206101   -0.142808
   5 H   -0.193475   -0.057817    0.005665    0.000190   -0.206100   -0.142808
   6 H   -0.193520   -0.057816    0.005665    0.000190   -0.206098   -0.142806
  ----------------------------------------------------------------------------
  Sum:   -1.000000    1.000000    0.967696    0.032226   -0.967696   -1.032226
  
  Multipole moment analysis of the density matrix
    Molecular charge:                      -1.000000
    Number of electrons:                   17.000000
      Center of electronic charge [Ang]: [ -0.000000,   0.000000,   0.000000]
    Total nuclear charge:                  16.000000
      Center of nuclear charge [Ang]:    [  0.000000,   0.000000,   0.000000]
    Dipole moment [D]:                     0.000006
      Cartesian components [D]:          [  0.000000,  -0.000006,  -0.000000]
    RMS size of the density [Ang]:         1.737722
      Cartesian components [Ang]:        [  1.334007,   0.887841,   0.672191]
  
  Exciton analysis of the difference density matrix
  Total:
    <r_h> [Ang]:                  [ -0.000000,   0.000000,   0.000000]
    <r_e> [Ang]:                  [ -0.000000,   0.000001,   0.000000]
    |<r_e - r_h>| [Ang]:            0.000001
    Hole size [Ang]:                1.247830
      Cartesian components [Ang]: [  0.742731,   0.514332,   0.860751]
    Electron size [Ang]:            3.879886
      Cartesian components [Ang]: [  2.954919,   1.937340,   1.602712]
  
  Alpha spin:
    <r_h> [Ang]:                  [ -0.000000,   0.000000,   0.000000]
    <r_e> [Ang]:                  [ -0.000000,   0.000001,   0.000000]
    |<r_e - r_h>| [Ang]:            0.000001
    Hole size [Ang]:                1.247853
      Cartesian components [Ang]: [  0.742737,   0.514342,   0.860774]
    Electron size [Ang]:            3.651140
      Cartesian components [Ang]: [  2.756012,   1.894316,   1.465192]
  
  Beta spin:
    <r_h> [Ang]:                  [ -0.000000,   0.000000,   0.000000]
    <r_e> [Ang]:                  [ -0.000000,   0.000001,   0.000000]
    |<r_e - r_h>| [Ang]:            0.000000
    Hole size [Ang]:                1.247129
      Cartesian components [Ang]: [  0.742553,   0.514052,   0.860057]
    Electron size [Ang]:            4.082710
      Cartesian components [Ang]: [  3.129932,   1.976824,   1.721688]
  ----------------------------------------------------------------------------


--------------------------------------------------------------------------------
  Time of ADC calculation:  CPU 96.99 s  wall 22.15 s
================================================================================
 
 --------------------------------------------------------------
             Orbital Energies (a.u.) and Symmetries
 --------------------------------------------------------------
 
 Alpha MOs, Restricted
 -- Occupied --                  
-11.228 -11.226  -1.040  -0.781  -0.661  -0.568  -0.516  -0.377
  1 Ag    1 B3u   2 Ag    2 B3u   1 B2u   3 Ag    1 B1g   1 B1u                
 -- Virtual --                   
  0.052   0.054   0.061   0.074   0.075   0.088   0.147   0.152
  3 B3u   2 B2u   2 B1u   1 B2g   2 B1g   4 Ag    2 B2g   5 Ag                 
  0.201   0.207   0.229   0.230   0.234   0.295   0.306   0.309
  4 B3u   3 B2u   6 Ag    3 B1g   3 B1u   5 B3u   4 B2u   3 B2g                
  0.451   0.454   0.459   0.614   0.631   0.641   0.654   0.655
  6 B3u   7 Ag    4 B1g   8 Ag    5 B2u   6 B2u   7 B3u   9 Ag                 
  0.666   0.674   0.722   0.754   0.786   0.828   0.847   0.903
  1 B3g   8 B3u   4 B1u   5 B1g   4 B2g   1 Au    9 B3u   5 B1u                
  0.974   1.008   1.036   1.057   1.188   1.202   1.254   1.354
  6 B1g  10 Ag    7 B1g   7 B2u   6 B1u   5 B2g   2 B3g  11 Ag                 
  1.357   1.400   1.468   1.486   1.499   1.535   1.635   1.637
 10 B3u   6 B2g   8 B2u   9 B2u  11 B3u  12 Ag    2 Au   12 B3u                
  1.711   1.834   1.863   1.980   2.298   2.567   2.624   2.668
  8 B1g  13 B3u  13 Ag    9 B1g  14 Ag    7 B1u  15 Ag    7 B2g                
  2.709   2.767   2.784   2.833   2.868   2.915   3.069   3.102
 10 B2u   8 B1u  11 B2u  14 B3u  10 B1g   3 B3g  11 B1g   9 B1u                
  3.105   3.135   3.152   3.153   3.184   3.259   3.318   3.340
  4 B3g  12 B2u   3 Au   16 Ag   17 Ag    8 B2g  15 B3u  13 B2u                
  3.413   3.426   3.439   3.476   3.501   3.550   3.598   3.641
  9 B2g   4 Au   16 B3u  17 B3u  12 B1g  10 B1u  18 Ag    5 B3g                
  3.743   3.814   3.899   3.959   3.977   3.981   4.014   4.035
 14 B2u  13 B1g  18 B3u  14 B1g   5 Au   10 B2g  15 B2u  19 Ag                 
  4.060   4.188   4.192   4.202   4.210   4.331   4.351   4.489
 11 B1u  19 B3u  15 B1g   6 B3g  20 Ag   12 B1u  11 B2g  16 B2u                
  4.534   4.606   4.683   4.764   4.813   4.938   4.975   5.056
 20 B3u   6 Au   21 Ag   21 B3u  12 B2g  13 B1u  22 Ag   16 B1g                
  5.152   5.216   5.306   5.307   5.426   5.470   5.542   5.563
 17 B2u   7 B3g  22 B3u  23 Ag    7 Au   17 B1g  13 B2g  24 Ag                 
  5.671   6.006   6.104   6.303   6.592   6.875  12.072  14.805
 18 B2u  23 B3u  18 B1g  19 B2u  24 B3u  19 B1g  25 Ag   25 B3u                
 
 Beta MOs, Restricted
 -- Occupied --                  
-11.228 -11.226  -1.040  -0.781  -0.661  -0.568  -0.516  -0.377
  1 Ag    1 B3u   2 Ag    2 B3u   1 B2u   3 Ag    1 B1g   1 B1u                
 -- Virtual --                   
  0.052   0.054   0.061   0.074   0.075   0.088   0.147   0.152
  3 B3u   2 B2u   2 B1u   1 B2g   2 B1g   4 Ag    2 B2g   5 Ag                 
  0.201   0.207   0.229   0.230   0.234   0.295   0.306   0.309
  4 B3u   3 B2u   6 Ag    3 B1g   3 B1u   5 B3u   4 B2u   3 B2g                
  0.451   0.454   0.459   0.614   0.631   0.641   0.654   0.655
  6 B3u   7 Ag    4 B1g   8 Ag    5 B2u   6 B2u   7 B3u   9 Ag                 
  0.666   0.674   0.722   0.754   0.786   0.828   0.847   0.903
  1 B3g   8 B3u   4 B1u   5 B1g   4 B2g   1 Au    9 B3u   5 B1u                
  0.974   1.008   1.036   1.057   1.188   1.202   1.254   1.354
  6 B1g  10 Ag    7 B1g   7 B2u   6 B1u   5 B2g   2 B3g  11 Ag                 
  1.357   1.400   1.468   1.486   1.499   1.535   1.635   1.637
 10 B3u   6 B2g   8 B2u   9 B2u  11 B3u  12 Ag    2 Au   12 B3u                
  1.711   1.834   1.863   1.980   2.298   2.567   2.624   2.668
  8 B1g  13 B3u  13 Ag    9 B1g  14 Ag    7 B1u  15 Ag    7 B2g                
  2.709   2.767   2.784   2.833   2.868   2.915   3.069   3.102
 10 B2u   8 B1u  11 B2u  14 B3u  10 B1g   3 B3g  11 B1g   9 B1u                
  3.105   3.135   3.152   3.153   3.184   3.259   3.318   3.340
  4 B3g  12 B2u   3 Au   16 Ag   17 Ag    8 B2g  15 B3u  13 B2u                
  3.413   3.426   3.439   3.476   3.501   3.550   3.598   3.641
  9 B2g   4 Au   16 B3u  17 B3u  12 B1g  10 B1u  18 Ag    5 B3g                
  3.743   3.814   3.899   3.959   3.977   3.981   4.014   4.035
 14 B2u  13 B1g  18 B3u  14 B1g   5 Au   10 B2g  15 B2u  19 Ag                 
  4.060   4.188   4.192   4.202   4.210   4.331   4.351   4.489
 11 B1u  19 B3u  15 B1g   6 B3g  20 Ag   12 B1u  11 B2g  16 B2u                
  4.534   4.606   4.683   4.764   4.813   4.938   4.975   5.056
 20 B3u   6 Au   21 Ag   21 B3u  12 B2g  13 B1u  22 Ag   16 B1g                
  5.152   5.216   5.306   5.307   5.426   5.470   5.542   5.563
 17 B2u   7 B3g  22 B3u  23 Ag    7 Au   17 B1g  13 B2g  24 Ag                 
  5.671   6.006   6.104   6.303   6.592   6.875  12.072  14.805
 18 B2u  23 B3u  18 B1g  19 B2u  24 B3u  19 B1g  25 Ag   25 B3u                
 --------------------------------------------------------------
 
          Ground-State Mulliken Net Atomic Charges

     Atom                 Charge (a.u.)
  ----------------------------------------
      1 C                    -0.265848
      2 C                    -0.265848
      3 H                     0.132909
      4 H                     0.132960
      5 H                     0.132938
      6 H                     0.132887
  ----------------------------------------
  Sum of atomic charges =     0.000000

 -----------------------------------------------------------------
                    Cartesian Multipole Moments
 -----------------------------------------------------------------
    Charge (ESU x 10^10)
                 0.0000
    Dipole Moment (Debye)
         X       0.0000      Y      -0.0000      Z      -0.0000
       Tot       0.0000
    Quadrupole Moments (Debye-Ang)
        XX     -12.8620     XY       0.0000     YY     -11.9336
        XZ       0.0000     YZ      -0.0000     ZZ     -16.0984
    Octopole Moments (Debye-Ang^2)
       XXX       0.0000    XXY      -0.0000    XYY       0.0000
       YYY      -0.0000    XXZ      -0.0000    XYZ      -0.0000
       YYZ      -0.0000    XZZ       0.0000    YZZ      -0.0000
       ZZZ      -0.0000
    Hexadecapole Moments (Debye-Ang^3)
      XXXX     -67.9973   XXXY       0.0000   XXYY     -13.1023
      XYYY       0.0000   YYYY     -26.7536   XXXZ       0.0000
      XXYZ      -0.0000   XYYZ       0.0000   YYYZ      -0.0000
      XXZZ     -15.4232   XYZZ       0.0000   YYZZ      -8.9495
      XZZZ       0.0000   YZZZ      -0.0000   ZZZZ     -21.1876
 -----------------------------------------------------------------
 Total job time:  104.21s(wall), 146.66s(cpu) 
 Fri Feb 25 18:10:51 2022

        *************************************************************
        *                                                           *
        *  Thank you very much for using Q-Chem.  Have a nice day.  *
        *                                                           *
        *************************************************************


