/src/tsommerfeld/qchem/exe/qcprog.exe .input1.480769.3370.qcin.1 /src/jdavis/qchem.scratch/qchem3370/

                  Welcome to Q-Chem
     A Quantum Leap Into The Future Of Chemistry


 Q-Chem 5.4 (devel), Q-Chem, Inc., Pleasanton, CA (2021)

 E. Epifanovsky,  A. T. B. Gilbert,  Xintian Feng,  Joonho Lee,  Yuezhi Mao,  
 N. Mardirossian,  P. Pokhilko,  A. White,  M. Wormit,  M. P. Coons,  
 A. L. Dempwolff,  Zhengting Gan,  D. Hait,  P. R. Horn,  L. D. Jacobson,  
 I. Kaliman,  J. Kussmann,  A. W. Lange,  Ka Un Lao,  D. S. Levine,  Jie Liu,  
 S. C. McKenzie,  A. F. Morrison,  K. Nanda,  F. Plasser,  D. R. Rehn,  
 M. L. Vidal,  Zhi-Qiang You,  Ying Zhu,  B. Alam,  B. Albrecht,  
 A. Aldossary,  E. Alguire,  J. H. Andersen,  D. Barton,  K. Begam,  A. Behn,  
 Y. A. Bernard,  E. J. Berquist,  H. Burton,  A. Carreras,  K. Carter-Fenk,  
 R. Chakraborty,  A. D. Chien,  K. D. Closser,  V. Cofer-Shabica,  
 S. Dasgupta,  Jia Deng,  M. de Wergifosse,  M. Diedenhofen,  Hainam Do,  
 S. Ehlert,  Po-Tung Fang,  S. Fatehi,  Qingguo Feng,  T. Friedhoff,  
 J. Gayvert,  Qinghui Ge,  G. Gidofalvi,  M. Goldey,  J. Gomes,  
 C. Gonzalez-Espinoza,  S. Gulania,  A. Gunina,  M. W. D. Hanson-Heine,  
 P. H. P. Harbach,  A. W. Hauser,  M. F. Herbst,  M. Hernandez Vera,  
 M. Hodecker,  Z. C. Holden,  S. Houck,  Xunkun Huang,  Kerwin Hui,  
 B. C. Huynh,  M. Ivanov,  Hyunjun Ji,  Hanjie Jiang,  B. Kaduk,  S. Kaehler,  
 K. Khistyaev,  Jaehoon Kim,  P. Klunzinger,  Z. Koczor-Benda,  
 Joong Hoon Koh,  D. Kosenkov,  L. Koulias,  T. Kowalczyk,  C. M. Krauter,  
 K. Kue,  A. Kunitsa,  T. Kus,  A. Landau,  K. V. Lawler,  D. Lefrancois,  
 S. Lehtola,  Rain Li,  Yi-Pei Li,  Jiashu Liang,  M. Liebenthal,  
 Hung-Hsuan Lin,  You-Sheng Lin,  Fenglai Liu,  Kuan-Yu Liu,  
 M. Loipersberger,  A. Luenser,  A. Manjanath,  P. Manohar,  E. Mansoor,  
 S. F. Manzer,  Shan-Ping Mao,  A. V. Marenich,  T. Markovich,  S. Mason,  
 S. A. Maurer,  P. F. McLaughlin,  M. F. S. J. Menger,  J.-M. Mewes,  
 S. A. Mewes,  P. Morgante,  J. W. Mullinax,  K. J. Oosterbaan,  G. Paran,  
 Alexander C. Paul,  Suranjan K. Paul,  F. Pavosevic,  Zheng Pei,  S. Prager,  
 E. I. Proynov,  E. Ramos,  B. Rana,  A. E. Rask,  A. Rettig,  R. M. Richard,  
 F. Rob,  E. Rossomme,  T. Scheele,  M. Scheurer,  M. Schneider,  
 N. Sergueev,  S. M. Sharada,  W. Skomorowski,  D. W. Small,  C. J. Stein,  
 Yu-Chuan Su,  E. J. Sundstrom,  Zhen Tao,  J. Thirman,  T. Tsuchimochi,  
 N. M. Tubman,  S. P. Veccham,  O. Vydrov,  J. Wenzel,  J. Witte,  A. Yamada,  
 Kun Yao,  S. Yeganeh,  S. R. Yost,  A. Zech,  Igor Ying Zhang,  Xing Zhang,  
 Yu Zhang,  D. Zuev,  A. Aspuru-Guzik,  A. T. Bell,  N. A. Besley,  
 K. B. Bravaya,  B. R. Brooks,  D. Casanova,  Jeng-Da Chai,  S. Coriani,  
 C. J. Cramer,  A. E. DePrince, III,  R. A. DiStasio Jr.,  A. Dreuw,  
 B. D. Dunietz,  T. R. Furlani,  W. A. Goddard III,  S. Grimme,  
 S. Hammes-Schiffer,  T. Head-Gordon,  W. J. Hehre,  Chao-Ping Hsu,  
 T.-C. Jagau,  Yousung Jung,  A. Klamt,  Jing Kong,  D. S. Lambrecht,  
 WanZhen Liang,  N. J. Mayhall,  C. W. McCurdy,  J. B. Neaton,  
 C. Ochsenfeld,  J. A. Parkhill,  R. Peverati,  V. A. Rassolov,  Yihan Shao,  
 L. V. Slipchenko,  T. Stauch,  R. P. Steele,  J. E. Subotnik,  
 A. J. W. Thom,  A. Tkatchenko,  D. G. Truhlar,  T. Van Voorhis,  
 T. A. Wesolowski,  K. B. Whaley,  H. L. Woodcock III,  P. M. Zimmerman,  
 S. Faraji,  P. M. W. Gill,  M. Head-Gordon,  J. M. Herbert,  A. I. Krylov

 Additional authors for Version 5.4.1: 
 S. Kotaru,  Shaozhi Li,  Xiangyuan Li,  F. Matz,  A. Molle,  Haisheng Ren,  
 Yingli Su,  Hung-Yi Tsai,  C. Utku,  Fang Wang

 Contributors to earlier versions of Q-Chem not listed above: 
 R. D. Adamson,  B. Austin,  R. Baer,  J. Baker,  G. J. O. Beran,  
 K. Brandhorst,  S. T. Brown,  E. F. C. Byrd,  A. K. Chakraborty,  
 G. K. L. Chan,  Chun-Min Chang,  Yunqing Chen,  C.-L. Cheng,  
 Siu Hung Chien,  D. M. Chipman,  D. L. Crittenden,  H. Dachsel,  
 R. J. Doerksen,  A. D. Dutoi,  R. G. Edgar,  J. Fosso-Tande,  
 L. Fusti-Molnar,  D. Ghosh,  A. Ghysels,  A. Golubeva-Zadorozhnaya,  
 J. Gonthier,  M. S. Gordon,  S. R. Gwaltney,  G. Hawkins,  J. E. Herr,  
 A. Heyden,  S. Hirata,  E. G. Hohenstein,  G. Kedziora,  F. J. Keil,  
 C. Kelley,  Jihan Kim,  R. A. King,  R. Z. Khaliullin,  P. P. Korambath,  
 W. Kurlancheek,  A. Laurent,  A. M. Lee,  M. S. Lee,  S. V. Levchenko,  
 Ching Yeh Lin,  D. Liotard,  E. Livshits,  R. C. Lochan,  I. Lotan,  
 L. A. Martinez-Martinez,  P. E. Maslen,  N. Nair,  D. P. O'Neill,  
 D. Neuhauser,  E. Neuscamman,  C. M. Oana,  R. Olivares-Amaya,  R. Olson,  
 T. M. Perrine,  B. Peters,  P. A. Pieniazek,  A. Prociuk,  Y. M. Rhee,  
 J. Ritchie,  M. A. Rohrdanz,  E. Rosta,  N. J. Russ,  H. F. Schaefer III,  
 M. W. Schmidt,  N. E. Schultz,  S. Sharma,  N. Shenvi,  C. D. Sherrill,  
 A. C. Simmonett,  A. Sodt,  T. Stein,  D. Stuck,  K. S. Thanthiriwatte,  
 V. Vanovschi,  L. Vogt,  Tao Wang,  A. Warshel,  M. A. Watson,  
 C. F. Williams,  Q. Wu,  X. Xu,  Jun Yang,  W. Zhang,  Yan Zhao

 Please cite Q-Chem as follows:
 Y. Shao et al., Mol. Phys. 113, 184-215 (2015)
 DOI: 10.1080/00268976.2014.952696

 Q-Chem 5.4.1 for Intel X86 EM64T Linux

 Parts of Q-Chem use Armadillo 9.900.5 (Nocturnal Misbehaviour).
 http://arma.sourceforge.net/

 Q-Chem begins on Fri Feb 25 18:05:38 2022  

 Host: node01
0

     Scratch files written to /src/jdavis/qchem.scratch/qchem3370//
 Processing $rem in /src/tsommerfeld/qchem/config/preferences:
 Processing $rem in /home/jdavis/.qchemrc:

 Checking the input file for inconsistencies... 	...done.

--------------------------------------------------------------
User input:
--------------------------------------------------------------
$molecule
0 1
C        -0.6645000000    0.0000000000   -0.2082049804
C         0.6645000000    0.0000000000   -0.2082049804
H        -1.1590800000    0.0000000000    0.7541440196
H         1.1590800000    0.0000000000    0.7541440196
H        -1.1590800000    0.0000000000   -1.1705529804
H         1.1590800000    0.0000000000   -1.1705529804
$end

$rem
   METHOD adc(2)
   BASIS gen
   PURECART 11
   EA_STATES [0,0,10,0,0,0,0,0]
   scf_convergence 8
   ADC_DAVIDSON_MAXITER 120
   ADC_DAVIDSON_MAXSUBSPACE 200
   adc_nguess_singles 100
   THRESH 14
   S2THRESH 14
   adc_davidson_conv 5
   adc_davidson_thresh 14
   THREADS 10
   MEM_TOTAL 95000
   STATE_ANALYSIS TRUE
$end
$basis
C     1
S    10   1.00
      8.236000D+03           5.310000D-04
      1.235000D+03           4.108000D-03
      2.808000D+02           2.108700D-02
      7.927000D+01           8.185300D-02
      2.559000D+01           2.348170D-01
      8.997000D+00           4.344010D-01
      3.319000D+00           3.461290D-01
      9.059000D-01           3.937800D-02
      3.643000D-01          -8.983000D-03
      1.285000D-01           2.385000D-03
S    1   1.00
      9.059000D-01           1.000000D+00
S    10   1.00
      8.236000D+03          -1.130000D-04
      1.235000D+03          -8.780000D-04
      2.808000D+02          -4.540000D-03
      7.927000D+01          -1.813300D-02
      2.559000D+01          -5.576000D-02
      8.997000D+00          -1.268950D-01
      3.319000D+00          -1.703520D-01
      9.059000D-01           1.403820D-01
      3.643000D-01           5.986840D-01
      1.285000D-01           3.953890D-01
S    1   1.00
      1.285000D-01           1.000000D+00
P    1   1.00
      3.827000D-01           1.000000D+00
P    5   1.00
      1.871000D+01           1.403100D-02
      4.133000D+00           8.686600D-02
      1.200000D+00           2.902160D-01
      3.827000D-01           5.010080D-01
      1.209000D-01           3.434060D-01
P    1   1.00
      1.209000D-01           1.000000D+00
P   1   1.00
      0.05115      1.0000000
P   1   1.00
      0.025575      1.0000000
D    1   1.00
      1.097000D+00           1.000000D+00
D    1   1.00
      3.180000D-01           1.000000D+00
F    1   1.00
      7.610000D-01           1.0000000
****
C     2
S    10   1.00
      8.236000D+03           5.310000D-04
      1.235000D+03           4.108000D-03
      2.808000D+02           2.108700D-02
      7.927000D+01           8.185300D-02
      2.559000D+01           2.348170D-01
      8.997000D+00           4.344010D-01
      3.319000D+00           3.461290D-01
      9.059000D-01           3.937800D-02
      3.643000D-01          -8.983000D-03
      1.285000D-01           2.385000D-03
S    1   1.00
      9.059000D-01           1.000000D+00
S    10   1.00
      8.236000D+03          -1.130000D-04
      1.235000D+03          -8.780000D-04
      2.808000D+02          -4.540000D-03
      7.927000D+01          -1.813300D-02
      2.559000D+01          -5.576000D-02
      8.997000D+00          -1.268950D-01
      3.319000D+00          -1.703520D-01
      9.059000D-01           1.403820D-01
      3.643000D-01           5.986840D-01
      1.285000D-01           3.953890D-01
S    1   1.00
      1.285000D-01           1.000000D+00
P    1   1.00
      3.827000D-01           1.000000D+00
P    5   1.00
      1.871000D+01           1.403100D-02
      4.133000D+00           8.686600D-02
      1.200000D+00           2.902160D-01
      3.827000D-01           5.010080D-01
      1.209000D-01           3.434060D-01
P    1   1.00
      1.209000D-01           1.000000D+00
P   1   1.00
      0.05115      1.0000000
P   1   1.00
      0.025575      1.0000000
D    1   1.00
      1.097000D+00           1.000000D+00
D    1   1.00
      3.180000D-01           1.000000D+00
F    1   1.00
      7.610000D-01           1.0000000
****
H 3
cc-pVTZ
****
H 4
cc-pVTZ
****
H 5
cc-pVTZ
****
H 6
cc-pVTZ
****
$end
--------------------------------------------------------------
 Atom   2: ( -0.6645000000, -0.0000001250,  0.0000000000)
         ->( -0.6645000000,  0.0000001250, -0.0000000000)
 Atom   1: (  0.6645000000, -0.0000001250, -0.0000000000)
         ->(  0.6645000000,  0.0000000000,  0.0000000000)
 Atom   6: ( -1.1590800000, -0.9623481250, -0.0000000000)
         ->( -1.1590800000, -0.9623488750,  0.0000000000)
 Atom   5: (  1.1590800000, -0.9623481250, -0.0000000000)
         ->(  1.1590800000, -0.9623488750, -0.0000000000)
 ----------------------------------------------------------------
             Standard Nuclear Orientation (Angstroms)
    I     Atom           X                Y                Z
 ----------------------------------------------------------------
    1      C       0.6645000000     0.0000000000     0.0000000000
    2      C      -0.6645000000     0.0000001250    -0.0000000000
    3      H       1.1590800000     0.9623488750     0.0000000000
    4      H      -1.1590800000     0.9623488750     0.0000000000
    5      H       1.1590800000    -0.9623488750    -0.0000000000
    6      H      -1.1590800000    -0.9623488750     0.0000000000
 ----------------------------------------------------------------
 Molecular Point Group                 D2h   NOp =  8
 Largest Abelian Subgroup              D2h   NOp =  8
 Nuclear Repulsion Energy =          33.58921667 hartrees
 There are        8 alpha and        8 beta electrons
 Requested basis set is non-standard
 There are 48 shells and 128 basis functions
 Total memory of 95000 MB is distributed as follows: 
   MEM_STATIC is set to 192 MB
   QALLOC/CCMAN JOB total memory use is  94808 MB
 Warning: actual memory use might exceed 95000 MB

 Total QAlloc Memory Limit  95000 MB
 Mega-Array Size       188 MB
 MEM_STATIC part       192 MB

                       Distance Matrix (Angstroms)
             C (  1)   C (  2)   H (  3)   H (  4)   H (  5)
   C (  2)  1.329000
   H (  3)  1.082000  2.061931
   H (  4)  2.061931  1.082000  2.318160
   H (  5)  1.082000  2.061931  1.924698  3.013026
   H (  6)  2.061931  1.082000  3.013026  1.924698  2.318160
 
 A cutoff of  1.0D-14 yielded   1176 shell pairs
 There are      8432 function pairs (     10417 Cartesian)
 Smallest overlap matrix eigenvalue = 7.13E-04

 Scale SEOQF with 1.000000e-01/1.000000e-01/1.000000e-01

 Standard Electronic Orientation quadrupole field applied
 Nucleus-field energy     =     0.0000000006 hartrees
 ================ Generating on-the-fly SAD Guess ================
Attempting to make child job directory: /src/jdavis/qchem.scratch/qchem3370//Frg1/
Attempting to make child job directory: /src/jdavis/qchem.scratch/qchem3370//Frg2/
Creating input file /src/jdavis/qchem.scratch/qchem3370/Frg1.input
using default PutDataFrgm: nothing
calling putenv with: QCSCRATCH=/src/jdavis/qchem.scratch/qchem3370/ 
Spawning Job For Fragment 0
Done Job For Fragment 0
calling putenv with: QCSCRATCH=/src/jdavis/qchem.scratch 
calling putenv with: QCTHREADS=1 
Creating input file /src/jdavis/qchem.scratch/qchem3370/Frg2.input
using default PutDataFrgm: nothing
calling putenv with: QCSCRATCH=/src/jdavis/qchem.scratch/qchem3370/ 
Spawning Job For Fragment 1
Done Job For Fragment 1
calling putenv with: QCSCRATCH=/src/jdavis/qchem.scratch 
calling putenv with: QCTHREADS=1 
 Time for running child jobs:  CPU 1.75 s  wall 53.80 s
 ============= Method Specific SAD Guess Constructed =============
 Guess from on-the-fly superposition of atomic densities
 Warning: Energy on first SCF cycle will be non-variational
 A restricted Hartree-Fock SCF calculation will be
 performed using Pulay DIIS extrapolation
 SCF converges when DIIS error is below 1.0E-08
 using 10 threads for integral computing
 -------------------------------------------------------
 OpenMP Integral computing Module                
 Release: version 1.0, May 2013, Q-Chem Inc. Pittsburgh 
 -------------------------------------------------------
 ---------------------------------------
  Cycle       Energy         DIIS Error
 ---------------------------------------
    1     -78.4649725121      3.89E-02
    2     -78.0360115560      2.90E-03
    3     -78.0576811791      7.92E-04
    4     -78.0594681657      2.78E-04
    5     -78.0596779809      3.07E-05
    6     -78.0596827740      6.53E-06
    7     -78.0596830762      1.78E-06
    8     -78.0596831084      1.85E-07
    9     -78.0596831132      2.35E-08
   10     -78.0596831136      2.48E-09 Convergence criterion met
 ---------------------------------------
 SCF time:  CPU 15.68 s  wall 1.57 s
 SCF   energy in the final basis set = -78.05968311
 Total energy in the final basis set = -78.05968311
================================================================================
|                                                                              |
|                                 A D C  M A N                                 |
|                                                                              |
 ------------------------------------------------------------------------------ 
|                                                                              |
| Components:                                                                  |
|                                                                              |
| - libvmm - 1.3-trunk                                                         |
|   Authors:                                                                   |
|   Evgeny Epifanovsky, Ilya Kaliman                                           |
|                                                                              |
| - libtensor - 2.5-trunk                                                      |
|   Authors:                                                                   |
|   Evgeny Epifanovsky, Michael Wormit, Dmitry Zuev, Sam Manzer,               |
|   Ilya Kaliman                                                               |
|                                                                              |
| - libwfa - 1.1-trunk                                                         |
|   Authors:                                                                   |
|   Felix Plasser, Stefanie Mewes (Baeppler), Benjamin Thomitzni,              |
|   Michael Wormit, Feng Chen, Anna I. Krylov, Pavel Pokhilko                  |
|                                                                              |
| - libadc - 1.1-trunk                                                         |
|   Authors:                                                                   |
|   Michael Wormit, Adrian L. Dempwolff, Philipp H. P. Harbach,                |
|   Caroline Krauter, Dirk Rehn, Matthias Schneider, Jan Wenzel                |
|                                                                              |
| - adcman - 2.6-trunk                                                         |
|   Authors:                                                                   |
|   Michael Wormit, Adrian L. Dempwolff, Philipp H. P. Harbach,                |
|   Caroline Krauter, Daniel Lefrancois, Jan-Michael Mewes, Dirk Rehn,         |
|   Matthias Schneider, Jan Wenzel, Andreas Dreuw                              |
|                                                                              |
| Authors of earlier versions of ADCMAN:                                       |
| Andreas Dreuw, Jan Hendrik Starcke, Dirk Rehn, Michael Wormit                |
|                                                                              |
================================================================================

 
 Alpha MOs, Restricted
 -- Occupied --                  
-11.228 -11.226  -1.040  -0.781  -0.661  -0.568  -0.516  -0.377
  1 Ag    1 B3u   2 Ag    2 B3u   1 B2u   3 Ag    1 B1g   1 B1u                
 -- Virtual --                   
  0.049   0.051   0.058   0.071   0.071   0.084   0.143   0.150
  3 B3u   2 B2u   2 B1u   2 B1g   1 B2g   4 Ag    2 B2g   5 Ag                 
  0.191   0.196   0.218   0.221   0.223   0.295   0.296   0.307
  4 B3u   3 B2u   3 B1g   6 Ag    3 B1u   5 B3u   3 B2g   4 B2u                
  0.445   0.452   0.452   0.605   0.613   0.642   0.646   0.647
  6 B3u   7 Ag    4 B1g   8 Ag    5 B2u   6 B2u   7 B3u   9 Ag                 
  0.666   0.674   0.704   0.757   0.769   0.828   0.842   0.902
  1 B3g   8 B3u   4 B1u   5 B1g   4 B2g   1 Au    9 B3u   5 B1u                
  0.966   1.007   1.032   1.055   1.188   1.202   1.254   1.347
  6 B1g  10 Ag    7 B1g   7 B2u   6 B1u   5 B2g   2 B3g  11 Ag                 
  1.356   1.398   1.465   1.480   1.497   1.533   1.624   1.635
 10 B3u   6 B2g   8 B2u   9 B2u  11 B3u  12 Ag   12 B3u   2 Au                 
  1.711   1.834   1.860   1.978   2.298   2.552   2.616   2.656
  8 B1g  13 B3u  13 Ag    9 B1g  14 Ag    7 B1u  15 Ag    7 B2g                
  2.709   2.766   2.770   2.827   2.859   2.915   3.068   3.101
 10 B2u   8 B1u  11 B2u  14 B3u  10 B1g   3 B3g  11 B1g   9 B1u                
  3.105   3.133   3.151   3.152   3.183   3.258   3.314   3.340
  4 B3g  12 B2u  16 Ag    3 Au   17 Ag    8 B2g  15 B3u  13 B2u                
  3.413   3.426   3.437   3.472   3.501   3.550   3.597   3.641
  9 B2g   4 Au   16 B3u  17 B3u  12 B1g  10 B1u  18 Ag    5 B3g                
  3.743   3.814   3.898   3.956   3.976   3.980   4.014   4.033
 14 B2u  13 B1g  18 B3u  14 B1g   5 Au   10 B2g  15 B2u  19 Ag                 
  4.060   4.187   4.192   4.202   4.209   4.331   4.351   4.487
 11 B1u  19 B3u  15 B1g   6 B3g  20 Ag   12 B1u  11 B2g  16 B2u                
  4.534   4.606   4.680   4.763   4.813   4.937   4.974   5.057
 20 B3u   6 Au   21 Ag   21 B3u  12 B2g  13 B1u  22 Ag   16 B1g                
  5.152   5.216   5.306   5.306   5.426   5.471   5.542   5.562
 17 B2u   7 B3g  23 Ag   22 B3u   7 Au   17 B1g  13 B2g  24 Ag                 
  5.667   6.000   6.100   6.300   6.588   6.874  12.044  14.806
 18 B2u  23 B3u  18 B1g  19 B2u  24 B3u  19 B1g  25 Ag   25 B3u                
 
 Beta MOs, Restricted
 -- Occupied --                  
-11.228 -11.226  -1.040  -0.781  -0.661  -0.568  -0.516  -0.377
  1 Ag    1 B3u   2 Ag    2 B3u   1 B2u   3 Ag    1 B1g   1 B1u                
 -- Virtual --                   
  0.049   0.051   0.058   0.071   0.071   0.084   0.143   0.150
  3 B3u   2 B2u   2 B1u   2 B1g   1 B2g   4 Ag    2 B2g   5 Ag                 
  0.191   0.196   0.218   0.221   0.223   0.295   0.296   0.307
  4 B3u   3 B2u   3 B1g   6 Ag    3 B1u   5 B3u   3 B2g   4 B2u                
  0.445   0.452   0.452   0.605   0.613   0.642   0.646   0.647
  6 B3u   7 Ag    4 B1g   8 Ag    5 B2u   6 B2u   7 B3u   9 Ag                 
  0.666   0.674   0.704   0.757   0.769   0.828   0.842   0.902
  1 B3g   8 B3u   4 B1u   5 B1g   4 B2g   1 Au    9 B3u   5 B1u                
  0.966   1.007   1.032   1.055   1.188   1.202   1.254   1.347
  6 B1g  10 Ag    7 B1g   7 B2u   6 B1u   5 B2g   2 B3g  11 Ag                 
  1.356   1.398   1.465   1.480   1.497   1.533   1.624   1.635
 10 B3u   6 B2g   8 B2u   9 B2u  11 B3u  12 Ag   12 B3u   2 Au                 
  1.711   1.834   1.860   1.978   2.298   2.552   2.616   2.656
  8 B1g  13 B3u  13 Ag    9 B1g  14 Ag    7 B1u  15 Ag    7 B2g                
  2.709   2.766   2.770   2.827   2.859   2.915   3.068   3.101
 10 B2u   8 B1u  11 B2u  14 B3u  10 B1g   3 B3g  11 B1g   9 B1u                
  3.105   3.133   3.151   3.152   3.183   3.258   3.314   3.340
  4 B3g  12 B2u  16 Ag    3 Au   17 Ag    8 B2g  15 B3u  13 B2u                
  3.413   3.426   3.437   3.472   3.501   3.550   3.597   3.641
  9 B2g   4 Au   16 B3u  17 B3u  12 B1g  10 B1u  18 Ag    5 B3g                
  3.743   3.814   3.898   3.956   3.976   3.980   4.014   4.033
 14 B2u  13 B1g  18 B3u  14 B1g   5 Au   10 B2g  15 B2u  19 Ag                 
  4.060   4.187   4.192   4.202   4.209   4.331   4.351   4.487
 11 B1u  19 B3u  15 B1g   6 B3g  20 Ag   12 B1u  11 B2g  16 B2u                
  4.534   4.606   4.680   4.763   4.813   4.937   4.974   5.057
 20 B3u   6 Au   21 Ag   21 B3u  12 B2g  13 B1u  22 Ag   16 B1g                
  5.152   5.216   5.306   5.306   5.426   5.471   5.542   5.562
 17 B2u   7 B3g  23 Ag   22 B3u   7 Au   17 B1g  13 B2g  24 Ag                 
  5.667   6.000   6.100   6.300   6.588   6.874  12.044  14.806
 18 B2u  23 B3u  18 B1g  19 B2u  24 B3u  19 B1g  25 Ag   25 B3u                

--------------------------------------------------------------------------------
                                   HF Summary                                   
--------------------------------------------------------------------------------
  Energy:                                                  -78.0596831136 a.u.
  Dip. moment [a.u.]:                  [   0.000000,   -0.000000,   -0.000000]
  Total dipole [Debye]:                                               0.000001
  <r^2> [a.u.]:                        [  47.674893,   22.101278,   11.969314]
  Total <r^2> [a.u.]:                                                81.745485
--------------------------------------------------------------------------------

--------------------------------------------------------------------------------
                                 MP(2) Summary                                  
--------------------------------------------------------------------------------
  MP energy contribution:                                   -0.3672620926 a.u.
  Total energy:                                            -78.4269452062 a.u.
  Dip. moment [a.u.]:                  [   0.000000,   -0.000001,   -0.000000]
  Total dipole [Debye]:                                               0.000002
  <r^2> [a.u.]:                        [  47.644884,   21.993164,   11.731456]
  Total <r^2> [a.u.]:                                                81.369503

  Density matrix analysis:
  ------------------------
  NOs (alpha)
    Occupation of frontier NOs:
       0.0226   0.9661
    Number of electrons:  8.000000
  NOs (beta)
    Occupation of frontier NOs:
       0.0226   0.9661
    Number of electrons:  8.000000
  NOs (spin-traced)
    Occupation of frontier NOs:
       0.0452   1.9322
    Number of electrons: 16.000000
    Number of unpaired electrons: n_u =  0.45281, n_u,nl =  0.05291
    NO participation ratio (PR_NO): 14.824023
  
  
  Mulliken Population Analysis
  Atom  Charge (e)    Spin (e)  h+ (alpha)   h+ (beta)  e- (alpha)   e- (beta)
  ----------------------------------------------------------------------------
   1 C   -0.300196    0.000000    0.043592    0.043592   -0.060385   -0.060385
   2 C   -0.300196    0.000000    0.043592    0.043592   -0.060385   -0.060385
   3 H    0.150099    0.000000    0.013116    0.013116   -0.004712   -0.004712
   4 H    0.150119    0.000000    0.013114    0.013114   -0.004724   -0.004724
   5 H    0.150097    0.000000    0.013114    0.013114   -0.004725   -0.004725
   6 H    0.150077    0.000000    0.013116    0.013116   -0.004712   -0.004712
  ----------------------------------------------------------------------------
  Sum:    0.000000    0.000000    0.139643    0.139643   -0.139643   -0.139643
  
  Multipole moment analysis of the density matrix
    Molecular charge:                      0.000000
    Number of electrons:                   16.000000
      Center of electronic charge [Ang]: [ -0.000000,   0.000000,   0.000000]
    Total nuclear charge:                  16.000000
      Center of nuclear charge [Ang]:    [  0.000000,   0.000000,   0.000000]
    Dipole moment [D]:                     0.000002
      Cartesian components [D]:          [  0.000000,  -0.000002,  -0.000000]
    RMS size of the density [Ang]:         1.193361
      Cartesian components [Ang]:        [  0.913165,   0.620419,   0.453124]
  
  Exciton analysis of the difference density matrix
  Total:
    <r_h> [Ang]:                  [ -0.000000,  -0.000000,  -0.000000]
    <r_e> [Ang]:                  [ -0.000000,   0.000000,  -0.000000]
    |<r_e - r_h>| [Ang]:            0.000001
    Hole size [Ang]:                1.446251
      Cartesian components [Ang]: [  0.970993,   0.749492,   0.766209]
    Electron size [Ang]:            1.309451
      Cartesian components [Ang]: [  0.955373,   0.673303,   0.590412]
  
  Alpha spin:
    <r_h> [Ang]:                  [ -0.000000,  -0.000000,  -0.000000]
    <r_e> [Ang]:                  [ -0.000000,   0.000000,  -0.000000]
    |<r_e - r_h>| [Ang]:            0.000001
    Hole size [Ang]:                1.446251
      Cartesian components [Ang]: [  0.970993,   0.749492,   0.766209]
    Electron size [Ang]:            1.309451
      Cartesian components [Ang]: [  0.955373,   0.673303,   0.590412]
  
  Beta spin:
    <r_h> [Ang]:                  [ -0.000000,  -0.000000,  -0.000000]
    <r_e> [Ang]:                  [ -0.000000,   0.000000,  -0.000000]
    |<r_e - r_h>| [Ang]:            0.000001
    Hole size [Ang]:                1.446251
      Cartesian components [Ang]: [  0.970993,   0.749492,   0.766209]
    Electron size [Ang]:            1.309451
      Cartesian components [Ang]: [  0.955373,   0.673303,   0.590412]
--------------------------------------------------------------------------------
Less particle guess vectors found than requested: 13 (found), 100 (requested).
Adjusting number of hole-2particle guess vectors to 87.
  Starting Davidson for electron-attached states of irrep B2g ... 
--------------------------------------------------------------------------------
   It NVec Conv  Avg. Norm  Max. Norm  Conv. states           Remark
--------------------------------------------------------------------------------
       100    0  5.103e-02  3.657e-01  0.0710 n n n n n n n n Guess.
    1  110    5  7.329e-04  5.288e-03  0.0610 n n n y y n y y 
    2  120   10  1.151e-06  8.228e-06  0.0609 y y y y y y y y Converged.
--------------------------------------------------------------------------------
  Davidson Summary: 
 ------------------------------------------------------------
  State  0: electron attachment energy =   0.0609 a.u.   (converged)
  State  1: electron attachment energy =   0.0986 a.u.   (converged)
  State  2: electron attachment energy =   0.2597 a.u.   (converged)
  State  3: electron attachment energy =   0.4987 a.u.   (converged)
  State  4: electron attachment energy =   0.4987 a.u.   (converged)
  State  5: electron attachment energy =   0.5060 a.u.   (converged)
  State  6: electron attachment energy =   0.5060 a.u.   (converged)
  State  7: electron attachment energy =   0.5109 a.u.   (converged)
  State  8: electron attachment energy =   0.5109 a.u.   (converged)
  State  9: electron attachment energy =   0.5769 a.u.   (converged)
 ------------------------------------------------------------


--------------------------------------------------------------------------------
                        Electron-Attached State Summary
--------------------------------------------------------------------------------

  Electron-attached state 1 (B2g)                                  [converged]
  ----------------------------------------------------------------------------
  Term symbol:  1 (2) B2g                                   R^2 =  5.63823e-06

  Total energy:                                            -78.3659969547 a.u.
  Electron attachment energy:                                      1.658486 eV

  Pole strength:                                                      0.973747

  Dip. moment [a.u.]:                  [   0.000000,   -0.000001,    0.000000]
  Total dipole [Debye]:                                               0.000002
  <r^2> [a.u.]:                        [  72.394771,   30.397152,   35.290804]
  Total <r^2> [a.u.]:                                               138.082726

  V1^2 = 0.9798, V2^2 = 0.0202

  Important amplitudes:
       occ i       vir a        vir b           v   
    -------------------------------------------------
                               1 (B2g) B      0.9217
                               2 (B2g) B     -0.3468
    -------------------------------------------------

  Density matrix analysis:
  ------------------------
  NOs (alpha)
    Occupation of frontier NOs:
       0.0205   0.9644
    Number of electrons:  8.000000
  NOs (beta)
    Occupation of frontier NOs:
       0.0254   0.9687
    Number of electrons:  9.000000
  NOs (spin-traced)
    Occupation of frontier NOs:
       0.0402   0.9899
    Number of electrons: 17.000000
    Number of unpaired electrons: n_u =  1.46707, n_u,nl =  1.05454
    NO participation ratio (PR_NO):  2.164739
  
  
  Mulliken Population Analysis
  Atom  Charge (e)    Spin (e)  h+ (alpha)   h+ (beta)  e- (alpha)   e- (beta)
  ----------------------------------------------------------------------------
   1 C   -0.750959    0.520209    0.042769    0.034738   -0.008046   -0.520223
   2 C   -0.750959    0.520209    0.042769    0.034738   -0.008046   -0.520223
   3 H    0.125510   -0.010127    0.000338    0.004639   -0.017696   -0.011870
   4 H    0.125471   -0.010082    0.000332    0.004627   -0.017697   -0.011910
   5 H    0.125449   -0.010082    0.000332    0.004627   -0.017697   -0.011910
   6 H    0.125487   -0.010127    0.000338    0.004639   -0.017696   -0.011871
  ----------------------------------------------------------------------------
  Sum:   -1.000000    1.000000    0.086879    0.088008   -0.086879   -1.088008
  
  Multipole moment analysis of the density matrix
    Molecular charge:                      -1.000000
    Number of electrons:                   17.000000
      Center of electronic charge [Ang]: [ -0.000000,   0.000000,  -0.000000]
    Total nuclear charge:                  16.000000
      Center of nuclear charge [Ang]:    [  0.000000,   0.000000,   0.000000]
    Dipole moment [D]:                     0.000002
      Cartesian components [D]:          [  0.000000,  -0.000002,   0.000000]
    RMS size of the density [Ang]:         1.508156
      Cartesian components [Ang]:        [  1.092019,   0.707609,   0.762443]
  
  Exciton analysis of the difference density matrix
  Total:
    <r_h> [Ang]:                  [  0.000000,   0.000001,  -0.000000]
    <r_e> [Ang]:                  [  0.000000,   0.000000,  -0.000000]
    |<r_e - r_h>| [Ang]:            0.000000
    Hole size [Ang]:                1.536907
      Cartesian components [Ang]: [  1.055756,   0.778520,   0.800855]
    Electron size [Ang]:            3.724100
      Cartesian components [Ang]: [  2.462707,   1.446813,   2.389712]
  
  Alpha spin:
    <r_h> [Ang]:                  [ -0.000000,   0.000001,  -0.000000]
    <r_e> [Ang]:                  [ -0.000000,   0.000000,  -0.000000]
    |<r_e - r_h>| [Ang]:            0.000000
    Hole size [Ang]:                1.425395
      Cartesian components [Ang]: [  1.015047,   0.732830,   0.681462]
    Electron size [Ang]:            2.169999
      Cartesian components [Ang]: [  1.406789,   1.279126,   1.045789]
  
  Beta spin:
    <r_h> [Ang]:                  [  0.000000,   0.000000,  -0.000000]
    <r_e> [Ang]:                  [  0.000000,   0.000000,  -0.000000]
    |<r_e - r_h>| [Ang]:            0.000000
    Hole size [Ang]:                1.639566
      Cartesian components [Ang]: [  1.094459,   0.821133,   0.903370]
    Electron size [Ang]:            3.821042
      Cartesian components [Ang]: [  2.528081,   1.459373,   2.465644]
  ----------------------------------------------------------------------------


  Electron-attached state 2 (B2g)                                  [converged]
  ----------------------------------------------------------------------------
  Term symbol:  2 (2) B2g                                   R^2 =  8.22828e-06

  Total energy:                                            -78.3283066622 a.u.
  Electron attachment energy:                                      2.684091 eV

  Pole strength:                                                      0.953835

  Dip. moment [a.u.]:                  [   0.000000,   -0.000000,   -0.000000]
  Total dipole [Debye]:                                               0.000001
  <r^2> [a.u.]:                        [  71.207661,   30.298604,   33.842321]
  Total <r^2> [a.u.]:                                               135.348585

  V1^2 = 0.9640, V2^2 = 0.0360

  Important amplitudes:
       occ i       vir a        vir b           v   
    -------------------------------------------------
                               2 (B2g) B      0.8864
                               1 (B2g) B      0.3808
    -------------------------------------------------

  Density matrix analysis:
  ------------------------
  NOs (alpha)
    Occupation of frontier NOs:
       0.0200   0.9626
    Number of electrons:  8.000000
  NOs (beta)
    Occupation of frontier NOs:
       0.0247   0.9723
    Number of electrons:  9.000000
  NOs (spin-traced)
    Occupation of frontier NOs:
       0.0350   0.9857
    Number of electrons: 17.000000
    Number of unpaired electrons: n_u =  1.47531, n_u,nl =  1.05520
    NO participation ratio (PR_NO):  2.207090
  
  
  Mulliken Population Analysis
  Atom  Charge (e)    Spin (e)  h+ (alpha)   h+ (beta)  e- (alpha)   e- (beta)
  ----------------------------------------------------------------------------
   1 C   -0.703712    0.511239    0.077203    0.055240   -0.023342   -0.512618
   2 C   -0.703712    0.511239    0.077203    0.055240   -0.023342   -0.512618
   3 H    0.101915   -0.005652    0.001418    0.005219   -0.028336   -0.026485
   4 H    0.101819   -0.005587    0.001405    0.005196   -0.028349   -0.026553
   5 H    0.101797   -0.005587    0.001405    0.005196   -0.028349   -0.026552
   6 H    0.101894   -0.005652    0.001418    0.005220   -0.028336   -0.026485
  ----------------------------------------------------------------------------
  Sum:   -1.000000    1.000000    0.160053    0.131311   -0.160053   -1.131311
  
  Multipole moment analysis of the density matrix
    Molecular charge:                      -1.000000
    Number of electrons:                   17.000000
      Center of electronic charge [Ang]: [ -0.000000,   0.000000,   0.000000]
    Total nuclear charge:                  16.000000
      Center of nuclear charge [Ang]:    [  0.000000,   0.000000,   0.000000]
    Dipole moment [D]:                     0.000001
      Cartesian components [D]:          [  0.000000,  -0.000001,  -0.000000]
    RMS size of the density [Ang]:         1.493150
      Cartesian components [Ang]:        [  1.083029,   0.706461,   0.746632]
  
  Exciton analysis of the difference density matrix
  Total:
    <r_h> [Ang]:                  [  0.000000,   0.000001,  -0.000000]
    <r_e> [Ang]:                  [  0.000000,   0.000000,  -0.000000]
    |<r_e - r_h>| [Ang]:            0.000001
    Hole size [Ang]:                1.356031
      Cartesian components [Ang]: [  0.983966,   0.691922,   0.625999]
    Electron size [Ang]:            3.481392
      Cartesian components [Ang]: [  2.308239,   1.381676,   2.209772]
  
  Alpha spin:
    <r_h> [Ang]:                  [  0.000000,   0.000001,  -0.000000]
    <r_e> [Ang]:                  [ -0.000000,   0.000000,  -0.000000]
    |<r_e - r_h>| [Ang]:            0.000001
    Hole size [Ang]:                1.359460
      Cartesian components [Ang]: [  0.981825,   0.681469,   0.647883]
    Electron size [Ang]:            2.141915
      Cartesian components [Ang]: [  1.404731,   1.235241,   1.043412]
  
  Beta spin:
    <r_h> [Ang]:                  [  0.000000,   0.000001,  -0.000000]
    <r_e> [Ang]:                  [  0.000000,   0.000000,  -0.000000]
    |<r_e - r_h>| [Ang]:            0.000001
    Hole size [Ang]:                1.351839
      Cartesian components [Ang]: [  0.986570,   0.704453,   0.598244]
    Electron size [Ang]:            3.631216
      Cartesian components [Ang]: [  2.408854,   1.401158,   2.328069]
  ----------------------------------------------------------------------------


  Electron-attached state 3 (B2g)                                  [converged]
  ----------------------------------------------------------------------------
  Term symbol:  3 (2) B2g                                   R^2 =  5.73827e-06

  Total energy:                                            -78.1672853723 a.u.
  Electron attachment energy:                                      7.065703 eV

  Pole strength:                                                      0.967177

  Dip. moment [a.u.]:                  [   0.000000,   -0.000001,    0.000000]
  Total dipole [Debye]:                                               0.000002
  <r^2> [a.u.]:                        [  68.241375,   29.195802,   31.690969]
  Total <r^2> [a.u.]:                                               129.128145

  V1^2 = 0.9704, V2^2 = 0.0296

  Important amplitudes:
       occ i       vir a        vir b           v   
    -------------------------------------------------
                               3 (B2g) B      0.9528
                               2 (B2g) B      0.2358
    -------------------------------------------------

  Density matrix analysis:
  ------------------------
  NOs (alpha)
    Occupation of frontier NOs:
       0.0267   0.9560
    Number of electrons:  8.000000
  NOs (beta)
    Occupation of frontier NOs:
       0.0320   0.9674
    Number of electrons:  9.000000
  NOs (spin-traced)
    Occupation of frontier NOs:
       0.0552   0.9775
    Number of electrons: 17.000000
    Number of unpaired electrons: n_u =  1.49776, n_u,nl =  1.06709
    NO participation ratio (PR_NO):  2.304417
  
  
  Mulliken Population Analysis
  Atom  Charge (e)    Spin (e)  h+ (alpha)   h+ (beta)  e- (alpha)   e- (beta)
  ----------------------------------------------------------------------------
   1 C   -0.724685    0.501638    0.048061    0.035798   -0.009486   -0.498862
   2 C   -0.724685    0.501638    0.048061    0.035798   -0.009486   -0.498862
   3 H    0.112359   -0.000825   -0.000924   -0.001440   -0.018359   -0.017018
   4 H    0.112348   -0.000814   -0.000930   -0.001449   -0.018363   -0.017030
   5 H    0.112326   -0.000814   -0.000930   -0.001448   -0.018363   -0.017030
   6 H    0.112337   -0.000825   -0.000923   -0.001440   -0.018359   -0.017018
  ----------------------------------------------------------------------------
  Sum:   -1.000000    1.000000    0.092415    0.065819   -0.092415   -1.065819
  
  Multipole moment analysis of the density matrix
    Molecular charge:                      -1.000000
    Number of electrons:                   17.000000
      Center of electronic charge [Ang]: [ -0.000000,   0.000000,  -0.000000]
    Total nuclear charge:                  16.000000
      Center of nuclear charge [Ang]:    [  0.000000,   0.000000,   0.000000]
    Dipole moment [D]:                     0.000002
      Cartesian components [D]:          [  0.000000,  -0.000002,   0.000000]
    RMS size of the density [Ang]:         1.458435
      Cartesian components [Ang]:        [  1.060231,   0.693485,   0.722511]
  
  Exciton analysis of the difference density matrix
  Total:
    <r_h> [Ang]:                  [  0.000000,   0.000001,  -0.000000]
    <r_e> [Ang]:                  [ -0.000000,   0.000000,  -0.000000]
    |<r_e - r_h>| [Ang]:            0.000001
    Hole size [Ang]:                1.340657
      Cartesian components [Ang]: [  0.970240,   0.706369,   0.597526]
    Electron size [Ang]:            3.433985
      Cartesian components [Ang]: [  2.260146,   1.345200,   2.207811]
  
  Alpha spin:
    <r_h> [Ang]:                  [ -0.000000,   0.000001,  -0.000000]
    <r_e> [Ang]:                  [ -0.000000,   0.000000,  -0.000000]
    |<r_e - r_h>| [Ang]:            0.000001
    Hole size [Ang]:                1.276031
      Cartesian components [Ang]: [  0.934077,   0.650034,   0.577245]
    Electron size [Ang]:            2.096619
      Cartesian components [Ang]: [  1.382681,   1.225884,   0.990563]
  
  Beta spin:
    <r_h> [Ang]:                  [  0.000000,   0.000001,  -0.000000]
    <r_e> [Ang]:                  [ -0.000000,   0.000000,  -0.000000]
    |<r_e - r_h>| [Ang]:            0.000001
    Hole size [Ang]:                1.426463
      Cartesian components [Ang]: [  1.018853,   0.778618,   0.624892]
    Electron size [Ang]:            3.526128
      Cartesian components [Ang]: [  2.320651,   1.355050,   2.282981]
  ----------------------------------------------------------------------------


  Electron-attached state 4 (B2g)                                  [converged]
  ----------------------------------------------------------------------------
  Term symbol:  4 (2) B2g                                   R^2 =  4.77331e-10

  Total energy:                                            -77.9281966269 a.u.
  Electron attachment energy:                                     13.571639 eV

  Pole strength:                                                      0.000000

  Dip. moment [a.u.]:                  [   0.000000,    0.000000,   -0.000000]
  Total dipole [Debye]:                                               0.000000
  <r^2> [a.u.]:                        [ 103.466245,  106.741729,   36.982314]
  Total <r^2> [a.u.]:                                               247.190289

  V1^2 = 0.0000, V2^2 = 1.0000

  Important amplitudes:
       occ i       vir a        vir b           v   
    -------------------------------------------------
     1 (B1u) A    2 (B1g) A    2 (B2u) B      0.5352
     1 (B1u) B    2 (B1g) B    2 (B2u) B      0.4552
    -------------------------------------------------

  Density matrix analysis:
  ------------------------
  NOs (alpha)
    Occupation of frontier NOs:
       0.3814   0.5730
    Number of electrons:  8.000000
  NOs (beta)
    Occupation of frontier NOs:
       0.4274   0.5521
    Number of electrons:  9.000000
  NOs (spin-traced)
    Occupation of frontier NOs:
       0.9335   1.0003
    Number of electrons: 17.000000
    Number of unpaired electrons: n_u =  3.31519, n_u,nl =  3.02676
    NO participation ratio (PR_NO):  3.817909
  
  
  Mulliken Population Analysis
  Atom  Charge (e)    Spin (e)  h+ (alpha)   h+ (beta)  e- (alpha)   e- (beta)
  ----------------------------------------------------------------------------
   1 C   -0.650029    0.464917    0.285933    0.202345   -0.228392   -0.609720
   2 C   -0.650029    0.464917    0.285933    0.202345   -0.228392   -0.609720
   3 H    0.075016    0.017542    0.003432    0.002429   -0.032203   -0.048741
   4 H    0.075036    0.017542    0.003432    0.002429   -0.032203   -0.048741
   5 H    0.075013    0.017542    0.003432    0.002429   -0.032203   -0.048741
   6 H    0.074994    0.017542    0.003432    0.002429   -0.032203   -0.048741
  ----------------------------------------------------------------------------
  Sum:   -1.000000    1.000000    0.585595    0.414405   -0.585595   -1.414405
  
  Multipole moment analysis of the density matrix
    Molecular charge:                      -1.000000
    Number of electrons:                   17.000000
      Center of electronic charge [Ang]: [ -0.000000,   0.000000,   0.000000]
    Total nuclear charge:                  16.000000
      Center of nuclear charge [Ang]:    [  0.000000,   0.000000,   0.000000]
    Dipole moment [D]:                     0.000000
      Cartesian components [D]:          [  0.000000,   0.000000,  -0.000000]
    RMS size of the density [Ang]:         2.017866
      Cartesian components [Ang]:        [  1.305497,   1.326001,   0.780501]
  
  Exciton analysis of the difference density matrix
  Total:
    <r_h> [Ang]:                  [ -0.000000,   0.000000,   0.000000]
    <r_e> [Ang]:                  [ -0.000000,  -0.000000,   0.000000]
    |<r_e - r_h>| [Ang]:            0.000000
    Hole size [Ang]:                1.247873
      Cartesian components [Ang]: [  0.742737,   0.514363,   0.860790]
    Electron size [Ang]:            4.898558
      Cartesian components [Ang]: [  2.844577,   3.463855,   1.976350]
  
  Alpha spin:
    <r_h> [Ang]:                  [ -0.000000,   0.000000,   0.000000]
    <r_e> [Ang]:                  [ -0.000000,  -0.000000,  -0.000000]
    |<r_e - r_h>| [Ang]:            0.000000
    Hole size [Ang]:                1.247873
      Cartesian components [Ang]: [  0.742737,   0.514363,   0.860790]
    Electron size [Ang]:            5.186725
      Cartesian components [Ang]: [  3.403328,   3.403301,   1.933135]
  
  Beta spin:
    <r_h> [Ang]:                  [ -0.000000,   0.000000,   0.000000]
    <r_e> [Ang]:                  [  0.000000,  -0.000000,   0.000000]
    |<r_e - r_h>| [Ang]:            0.000000
    Hole size [Ang]:                1.247873
      Cartesian components [Ang]: [  0.742737,   0.514363,   0.860790]
    Electron size [Ang]:            4.774162
      Cartesian components [Ang]: [  2.578033,   3.488618,   1.993968]
  ----------------------------------------------------------------------------


  Electron-attached state 5 (B2g)                                  [converged]
  ----------------------------------------------------------------------------
  Term symbol:  5 (2) B2g                                   R^2 =  3.98305e-10

  Total energy:                                            -77.9281962534 a.u.
  Electron attachment energy:                                     13.571649 eV

  Pole strength:                                                      0.000001

  Dip. moment [a.u.]:                  [   0.000000,    0.000000,   -0.000000]
  Total dipole [Debye]:                                               0.000000
  <r^2> [a.u.]:                        [ 103.466329,  106.741764,   36.982414]
  Total <r^2> [a.u.]:                                               247.190507

  V1^2 = 0.0000, V2^2 = 1.0000

  Important amplitudes:
       occ i       vir a        vir b           v   
    -------------------------------------------------
     1 (B1u) A    2 (B2u) A    2 (B1g) B     -0.5718
     1 (B1u) B    2 (B1g) B    2 (B2u) B      0.3551
    -------------------------------------------------

  Density matrix analysis:
  ------------------------
  NOs (alpha)
    Occupation of frontier NOs:
       0.2205   0.6542
    Number of electrons:  8.000000
  NOs (beta)
    Occupation of frontier NOs:
       0.3465   0.7140
    Number of electrons:  9.000000
  NOs (spin-traced)
    Occupation of frontier NOs:
       0.9335   1.0003
    Number of electrons: 17.000000
    Number of unpaired electrons: n_u =  3.31520, n_u,nl =  3.02676
    NO participation ratio (PR_NO):  3.817915
  
  
  Mulliken Population Analysis
  Atom  Charge (e)    Spin (e)  h+ (alpha)   h+ (beta)  e- (alpha)   e- (beta)
  ----------------------------------------------------------------------------
   1 C   -0.650027    0.419344    0.365104    0.123174   -0.330347   -0.507762
   2 C   -0.650027    0.419344    0.365104    0.123174   -0.330347   -0.507762
   3 H    0.075015    0.040328    0.004382    0.001478   -0.021760   -0.059185
   4 H    0.075034    0.040328    0.004382    0.001478   -0.021761   -0.059185
   5 H    0.075012    0.040328    0.004382    0.001478   -0.021761   -0.059185
   6 H    0.074993    0.040328    0.004382    0.001478   -0.021760   -0.059185
  ----------------------------------------------------------------------------
  Sum:   -1.000000    1.000000    0.747737    0.252262   -0.747737   -1.252262
  
  Multipole moment analysis of the density matrix
    Molecular charge:                      -1.000000
    Number of electrons:                   17.000000
      Center of electronic charge [Ang]: [ -0.000000,   0.000000,   0.000000]
    Total nuclear charge:                  16.000000
      Center of nuclear charge [Ang]:    [  0.000000,   0.000000,   0.000000]
    Dipole moment [D]:                     0.000000
      Cartesian components [D]:          [  0.000000,   0.000000,  -0.000000]
    RMS size of the density [Ang]:         2.017867
      Cartesian components [Ang]:        [  1.305498,   1.326001,   0.780503]
  
  Exciton analysis of the difference density matrix
  Total:
    <r_h> [Ang]:                  [ -0.000000,   0.000000,   0.000000]
    <r_e> [Ang]:                  [ -0.000000,  -0.000000,   0.000000]
    |<r_e - r_h>| [Ang]:            0.000000
    Hole size [Ang]:                1.247873
      Cartesian components [Ang]: [  0.742737,   0.514363,   0.860790]
    Electron size [Ang]:            4.898562
      Cartesian components [Ang]: [  2.844579,   3.463857,   1.976354]
  
  Alpha spin:
    <r_h> [Ang]:                  [ -0.000000,   0.000000,   0.000000]
    <r_e> [Ang]:                  [  0.000000,  -0.000000,   0.000000]
    |<r_e - r_h>| [Ang]:            0.000000
    Hole size [Ang]:                1.247873
      Cartesian components [Ang]: [  0.742737,   0.514363,   0.860790]
    Electron size [Ang]:            4.660461
      Cartesian components [Ang]: [  2.314653,   3.510554,   2.009549]
  
  Beta spin:
    <r_h> [Ang]:                  [ -0.000000,   0.000000,   0.000000]
    <r_e> [Ang]:                  [ -0.000000,  -0.000000,  -0.000000]
    |<r_e - r_h>| [Ang]:            0.000000
    Hole size [Ang]:                1.247871
      Cartesian components [Ang]: [  0.742736,   0.514363,   0.860789]
    Electron size [Ang]:            5.035369
      Cartesian components [Ang]: [  3.118354,   3.435671,   1.956265]
  ----------------------------------------------------------------------------


  Electron-attached state 6 (B2g)                                  [converged]
  ----------------------------------------------------------------------------
  Term symbol:  6 (2) B2g                                   R^2 =  5.81253e-08

  Total energy:                                            -77.9209614183 a.u.
  Electron attachment energy:                                     13.768519 eV

  Pole strength:                                                      0.000243

  Dip. moment [a.u.]:                  [   0.000000,   -0.000001,    0.000000]
  Total dipole [Debye]:                                               0.000002
  <r^2> [a.u.]:                        [  96.853512,   47.598619,   88.720204]
  Total <r^2> [a.u.]:                                               233.172335

  V1^2 = 0.0002, V2^2 = 0.9998

  Important amplitudes:
       occ i       vir a        vir b           v   
    -------------------------------------------------
     1 (B1u) A    2 (B1u) A    1 (B2g) B     -0.5751
     1 (B1u) B    1 (B2g) B    2 (B1u) B      0.3310
    -------------------------------------------------

  Density matrix analysis:
  ------------------------
  NOs (alpha)
    Occupation of frontier NOs:
       0.1878   0.6620
    Number of electrons:  8.000000
  NOs (beta)
    Occupation of frontier NOs:
       0.3386   0.7472
    Number of electrons:  9.000000
  NOs (spin-traced)
    Occupation of frontier NOs:
       0.9302   1.0020
    Number of electrons: 17.000000
    Number of unpaired electrons: n_u =  3.30521, n_u,nl =  3.02521
    NO participation ratio (PR_NO):  3.816514
  
  
  Mulliken Population Analysis
  Atom  Charge (e)    Spin (e)  h+ (alpha)   h+ (beta)  e- (alpha)   e- (beta)
  ----------------------------------------------------------------------------
   1 C   -0.810833    0.492698    0.381219    0.107086   -0.390189   -0.608754
   2 C   -0.810833    0.492698    0.381219    0.107086   -0.390189   -0.608754
   3 H    0.155418    0.003651    0.004575    0.001288   -0.000090   -0.000455
   4 H    0.155438    0.003651    0.004574    0.001288   -0.000090   -0.000455
   5 H    0.155415    0.003651    0.004575    0.001288   -0.000090   -0.000455
   6 H    0.155396    0.003651    0.004575    0.001288   -0.000090   -0.000455
  ----------------------------------------------------------------------------
  Sum:   -1.000000    1.000000    0.780736    0.219326   -0.780736   -1.219326
  
  Multipole moment analysis of the density matrix
    Molecular charge:                      -1.000000
    Number of electrons:                   17.000000
      Center of electronic charge [Ang]: [ -0.000000,   0.000000,  -0.000000]
    Total nuclear charge:                  16.000000
      Center of nuclear charge [Ang]:    [  0.000000,   0.000000,   0.000000]
    Dipole moment [D]:                     0.000002
      Cartesian components [D]:          [  0.000000,  -0.000002,   0.000000]
    RMS size of the density [Ang]:         1.959815
      Cartesian components [Ang]:        [  1.263090,   0.885470,   1.208893]
  
  Exciton analysis of the difference density matrix
  Total:
    <r_h> [Ang]:                  [ -0.000000,   0.000000,   0.000000]
    <r_e> [Ang]:                  [ -0.000000,   0.000000,  -0.000000]
    |<r_e - r_h>| [Ang]:            0.000000
    Hole size [Ang]:                1.249158
      Cartesian components [Ang]: [  0.743277,   0.515036,   0.861786]
    Electron size [Ang]:            4.694052
      Cartesian components [Ang]: [  2.676926,   1.928121,   3.339242]
  
  Alpha spin:
    <r_h> [Ang]:                  [ -0.000000,   0.000000,   0.000000]
    <r_e> [Ang]:                  [  0.000000,   0.000000,   0.000000]
    |<r_e - r_h>| [Ang]:            0.000000
    Hole size [Ang]:                1.249057
      Cartesian components [Ang]: [  0.743220,   0.514965,   0.861730]
    Electron size [Ang]:            4.618736
      Cartesian components [Ang]: [  2.280352,   2.008259,   3.478450]
  
  Beta spin:
    <r_h> [Ang]:                  [  0.000000,   0.000000,   0.000000]
    <r_e> [Ang]:                  [ -0.000000,   0.000000,  -0.000000]
    |<r_e - r_h>| [Ang]:            0.000000
    Hole size [Ang]:                1.249519
      Cartesian components [Ang]: [  0.743479,   0.515287,   0.861983]
    Electron size [Ang]:            4.741649
      Cartesian components [Ang]: [  2.902537,   1.875012,   3.246974]
  ----------------------------------------------------------------------------


  Electron-attached state 7 (B2g)                                  [converged]
  ----------------------------------------------------------------------------
  Term symbol:  7 (2) B2g                                   R^2 =  9.79537e-10

  Total energy:                                            -77.9209283401 a.u.
  Electron attachment energy:                                     13.769419 eV

  Pole strength:                                                      0.000411

  Dip. moment [a.u.]:                  [   0.000000,   -0.000001,    0.000000]
  Total dipole [Debye]:                                               0.000002
  <r^2> [a.u.]:                        [  96.858467,   47.593510,   88.695298]
  Total <r^2> [a.u.]:                                               233.147275

  V1^2 = 0.0004, V2^2 = 0.9996

  Important amplitudes:
       occ i       vir a        vir b           v   
    -------------------------------------------------
     1 (B1u) A    1 (B2g) A    2 (B1u) B      0.5230
     1 (B1u) B    1 (B2g) B    2 (B1u) B      0.4729
    -------------------------------------------------

  Density matrix analysis:
  ------------------------
  NOs (alpha)
    Occupation of frontier NOs:
       0.4146   0.5483
    Number of electrons:  8.000000
  NOs (beta)
    Occupation of frontier NOs:
       0.4536   0.5188
    Number of electrons:  9.000000
  NOs (spin-traced)
    Occupation of frontier NOs:
       0.9290   1.0018
    Number of electrons: 17.000000
    Number of unpaired electrons: n_u =  3.30324, n_u,nl =  3.02478
    NO participation ratio (PR_NO):  3.817727
  
  
  Mulliken Population Analysis
  Atom  Charge (e)    Spin (e)  h+ (alpha)   h+ (beta)  e- (alpha)   e- (beta)
  ----------------------------------------------------------------------------
   1 C   -0.810805    0.498849    0.269745    0.218550   -0.275625   -0.723279
   2 C   -0.810805    0.498849    0.269745    0.218550   -0.275625   -0.723279
   3 H    0.155404    0.000575    0.003239    0.002619   -0.000299   -0.000254
   4 H    0.155424    0.000575    0.003239    0.002619   -0.000299   -0.000254
   5 H    0.155401    0.000576    0.003239    0.002619   -0.000299   -0.000254
   6 H    0.155382    0.000575    0.003239    0.002619   -0.000299   -0.000254
  ----------------------------------------------------------------------------
  Sum:   -1.000000    1.000000    0.552445    0.447574   -0.552445   -1.447574
  
  Multipole moment analysis of the density matrix
    Molecular charge:                      -1.000000
    Number of electrons:                   17.000000
      Center of electronic charge [Ang]: [ -0.000000,   0.000000,  -0.000000]
    Total nuclear charge:                  16.000000
      Center of nuclear charge [Ang]:    [  0.000000,   0.000000,   0.000000]
    Dipole moment [D]:                     0.000002
      Cartesian components [D]:          [  0.000000,  -0.000002,   0.000000]
    RMS size of the density [Ang]:         1.959710
      Cartesian components [Ang]:        [  1.263122,   0.885422,   1.208724]
  
  Exciton analysis of the difference density matrix
  Total:
    <r_h> [Ang]:                  [ -0.000000,   0.000000,   0.000000]
    <r_e> [Ang]:                  [ -0.000000,   0.000000,  -0.000000]
    |<r_e - r_h>| [Ang]:            0.000000
    Hole size [Ang]:                1.248978
      Cartesian components [Ang]: [  0.743203,   0.514943,   0.861643]
    Electron size [Ang]:            4.693701
      Cartesian components [Ang]: [  2.677072,   1.927943,   3.338735]
  
  Alpha spin:
    <r_h> [Ang]:                  [ -0.000000,   0.000000,   0.000000]
    <r_e> [Ang]:                  [ -0.000000,   0.000000,  -0.000000]
    |<r_e - r_h>| [Ang]:            0.000000
    Hole size [Ang]:                1.246671
      Cartesian components [Ang]: [  0.742359,   0.513839,   0.859687]
    Electron size [Ang]:            4.798942
      Cartesian components [Ang]: [  3.153723,   1.809164,   3.132220]
  
  Beta spin:
    <r_h> [Ang]:                  [  0.000000,   0.000000,   0.000000]
    <r_e> [Ang]:                  [  0.000000,   0.000000,  -0.000000]
    |<r_e - r_h>| [Ang]:            0.000000
    Hole size [Ang]:                1.251820
      Cartesian components [Ang]: [  0.744244,   0.516303,   0.864053]
    Electron size [Ang]:            4.652910
      Cartesian components [Ang]: [  2.471044,   1.971387,   3.414257]
  ----------------------------------------------------------------------------


  Electron-attached state 8 (B2g)                                  [converged]
  ----------------------------------------------------------------------------
  Term symbol:  8 (2) B2g                                   R^2 =  2.38840e-09

  Total energy:                                            -77.9160783005 a.u.
  Electron attachment energy:                                     13.901395 eV

  Pole strength:                                                      0.000002

  Dip. moment [a.u.]:                  [   0.000000,   -0.000001,    0.000000]
  Total dipole [Debye]:                                               0.000003
  <r^2> [a.u.]:                        [ 144.628479,   52.087451,   41.072842]
  Total <r^2> [a.u.]:                                               237.788772

  V1^2 = 0.0000, V2^2 = 1.0000

  Important amplitudes:
       occ i       vir a        vir b           v   
    -------------------------------------------------
     1 (B1u) A    3 (B3u) A    4 (Ag ) B     -0.5773
     1 (B1u) B    4 (Ag ) B    3 (B3u) B      0.2969
    -------------------------------------------------

  Density matrix analysis:
  ------------------------
  NOs (alpha)
    Occupation of frontier NOs:
       0.1574   0.6667
    Number of electrons:  8.000000
  NOs (beta)
    Occupation of frontier NOs:
       0.3337   0.7900
    Number of electrons:  9.000000
  NOs (spin-traced)
    Occupation of frontier NOs:
       0.9335   1.0004
    Number of electrons: 17.000000
    Number of unpaired electrons: n_u =  3.31555, n_u,nl =  3.02679
    NO participation ratio (PR_NO):  3.818244
  
  
  Mulliken Population Analysis
  Atom  Charge (e)    Spin (e)  h+ (alpha)   h+ (beta)  e- (alpha)   e- (beta)
  ----------------------------------------------------------------------------
   1 C   -0.810722    0.537831    0.402213    0.086065   -0.388561   -0.610243
   2 C   -0.810722    0.537831    0.402213    0.086065   -0.388561   -0.610243
   3 H    0.155362   -0.018915    0.004828    0.001033   -0.011654    0.011056
   4 H    0.155382   -0.018915    0.004828    0.001033   -0.011654    0.011056
   5 H    0.155360   -0.018915    0.004828    0.001033   -0.011654    0.011056
   6 H    0.155340   -0.018915    0.004828    0.001033   -0.011654    0.011056
  ----------------------------------------------------------------------------
  Sum:   -1.000000    1.000000    0.823737    0.176261   -0.823737   -1.176261
  
  Multipole moment analysis of the density matrix
    Molecular charge:                      -1.000000
    Number of electrons:                   17.000000
      Center of electronic charge [Ang]: [ -0.000000,   0.000000,  -0.000000]
    Total nuclear charge:                  16.000000
      Center of nuclear charge [Ang]:    [  0.000000,   0.000000,   0.000000]
    Dipole moment [D]:                     0.000003
      Cartesian components [D]:          [  0.000000,  -0.000003,   0.000000]
    RMS size of the density [Ang]:         1.979121
      Cartesian components [Ang]:        [  1.543489,   0.926282,   0.822534]
  
  Exciton analysis of the difference density matrix
  Total:
    <r_h> [Ang]:                  [ -0.000000,   0.000000,   0.000000]
    <r_e> [Ang]:                  [ -0.000000,   0.000000,  -0.000000]
    |<r_e - r_h>| [Ang]:            0.000000
    Hole size [Ang]:                1.247873
      Cartesian components [Ang]: [  0.742737,   0.514363,   0.860790]
    Electron size [Ang]:            4.762304
      Cartesian components [Ang]: [  3.722221,   2.084686,   2.116293]
  
  Alpha spin:
    <r_h> [Ang]:                  [ -0.000000,   0.000000,   0.000000]
    <r_e> [Ang]:                  [ -0.000000,   0.000000,  -0.000000]
    |<r_e - r_h>| [Ang]:            0.000000
    Hole size [Ang]:                1.247873
      Cartesian components [Ang]: [  0.742737,   0.514363,   0.860790]
    Electron size [Ang]:            4.768667
      Cartesian components [Ang]: [  3.715986,   2.120588,   2.105882]
  
  Beta spin:
    <r_h> [Ang]:                  [ -0.000000,   0.000000,   0.000000]
    <r_e> [Ang]:                  [ -0.000000,   0.000000,  -0.000000]
    |<r_e - r_h>| [Ang]:            0.000000
    Hole size [Ang]:                1.247872
      Cartesian components [Ang]: [  0.742737,   0.514363,   0.860789]
    Electron size [Ang]:            4.757843
      Cartesian components [Ang]: [  3.726581,   2.059172,   2.123553]
  ----------------------------------------------------------------------------


  Electron-attached state 9 (B2g)                                  [converged]
  ----------------------------------------------------------------------------
  Term symbol:  9 (2) B2g                                   R^2 =  2.95140e-09

  Total energy:                                            -77.9160474323 a.u.
  Electron attachment energy:                                     13.902235 eV

  Pole strength:                                                      0.000088

  Dip. moment [a.u.]:                  [   0.000000,   -0.000001,    0.000000]
  Total dipole [Debye]:                                               0.000003
  <r^2> [a.u.]:                        [ 144.631349,   52.089689,   41.083293]
  Total <r^2> [a.u.]:                                               237.804331

  V1^2 = 0.0001, V2^2 = 0.9999

  Important amplitudes:
       occ i       vir a        vir b           v   
    -------------------------------------------------
     1 (B1u) A    4 (Ag ) A    3 (B3u) B      0.5046
     1 (B1u) B    4 (Ag ) B    3 (B3u) B      0.4951
    -------------------------------------------------

  Density matrix analysis:
  ------------------------
  NOs (alpha)
    Occupation of frontier NOs:
       0.4572   0.5095
    Number of electrons:  8.000000
  NOs (beta)
    Occupation of frontier NOs:
       0.4764   0.4907
    Number of electrons:  9.000000
  NOs (spin-traced)
    Occupation of frontier NOs:
       0.9336   1.0001
    Number of electrons: 17.000000
    Number of unpaired electrons: n_u =  3.31653, n_u,nl =  3.02682
    NO participation ratio (PR_NO):  3.818985
  
  
  Mulliken Population Analysis
  Atom  Charge (e)    Spin (e)  h+ (alpha)   h+ (beta)  e- (alpha)   e- (beta)
  ----------------------------------------------------------------------------
   1 C   -0.810607    0.453514    0.248810    0.239430   -0.277258   -0.721393
   2 C   -0.810607    0.453514    0.248810    0.239430   -0.277258   -0.721393
   3 H    0.155304    0.023243    0.002986    0.002874    0.011238   -0.011893
   4 H    0.155325    0.023243    0.002986    0.002874    0.011238   -0.011892
   5 H    0.155302    0.023243    0.002986    0.002874    0.011238   -0.011892
   6 H    0.155282    0.023243    0.002986    0.002874    0.011238   -0.011893
  ----------------------------------------------------------------------------
  Sum:   -1.000000    1.000000    0.509564    0.490356   -0.509564   -1.490356
  
  Multipole moment analysis of the density matrix
    Molecular charge:                      -1.000000
    Number of electrons:                   17.000000
      Center of electronic charge [Ang]: [ -0.000000,   0.000000,  -0.000000]
    Total nuclear charge:                  16.000000
      Center of nuclear charge [Ang]:    [  0.000000,   0.000000,   0.000000]
    Dipole moment [D]:                     0.000003
      Cartesian components [D]:          [  0.000000,  -0.000003,   0.000000]
    RMS size of the density [Ang]:         1.979186
      Cartesian components [Ang]:        [  1.543504,   0.926302,   0.822639]
  
  Exciton analysis of the difference density matrix
  Total:
    <r_h> [Ang]:                  [ -0.000000,   0.000000,   0.000000]
    <r_e> [Ang]:                  [ -0.000000,   0.000000,  -0.000000]
    |<r_e - r_h>| [Ang]:            0.000000
    Hole size [Ang]:                1.247903
      Cartesian components [Ang]: [  0.742751,   0.514380,   0.860811]
    Electron size [Ang]:            4.762624
      Cartesian components [Ang]: [  3.722346,   2.084802,   2.116678]
  
  Alpha spin:
    <r_h> [Ang]:                  [ -0.000000,   0.000000,   0.000000]
    <r_e> [Ang]:                  [ -0.000000,   0.000000,  -0.000000]
    |<r_e - r_h>| [Ang]:            0.000000
    Hole size [Ang]:                1.247856
      Cartesian components [Ang]: [  0.742733,   0.514357,   0.860772]
    Electron size [Ang]:            4.752313
      Cartesian components [Ang]: [  3.732495,   2.025328,   2.133308]
  
  Beta spin:
    <r_h> [Ang]:                  [ -0.000000,   0.000000,   0.000000]
    <r_e> [Ang]:                  [ -0.000000,   0.000000,  -0.000000]
    |<r_e - r_h>| [Ang]:            0.000000
    Hole size [Ang]:                1.247951
      Cartesian components [Ang]: [  0.742769,   0.514404,   0.860851]
    Electron size [Ang]:            4.766144
      Cartesian components [Ang]: [  3.718870,   2.104751,   2.110961]
  ----------------------------------------------------------------------------


  Electron-attached state 10 (B2g)                                  [converged]
  ----------------------------------------------------------------------------
  Term symbol:  10 (2) B2g                                  R^2 =  6.13100e-08

  Total energy:                                            -77.8500460324 a.u.
  Electron attachment energy:                                     15.698225 eV

  Pole strength:                                                      0.000120

  Dip. moment [a.u.]:                  [   0.000000,   -0.000003,   -0.000000]
  Total dipole [Debye]:                                               0.000007
  <r^2> [a.u.]:                        [ 112.140386,   48.002796,   28.339272]
  Total <r^2> [a.u.]:                                               188.482454

  V1^2 = 0.0001, V2^2 = 0.9999

  Important amplitudes:
       occ i       vir a        vir b           v   
    -------------------------------------------------
     1 (B1u) A    5 (Ag ) A    3 (B3u) B     -0.5686
     1 (B1u) A    3 (B3u) A    5 (Ag ) B     -0.3675
    -------------------------------------------------

  Density matrix analysis:
  ------------------------
  NOs (alpha)
    Occupation of frontier NOs:
       0.2703   0.6493
    Number of electrons:  8.000000
  NOs (beta)
    Occupation of frontier NOs:
       0.3537   0.7277
    Number of electrons:  9.000000
  NOs (spin-traced)
    Occupation of frontier NOs:
       0.9336   0.9980
    Number of electrons: 17.000000
    Number of unpaired electrons: n_u =  3.31132, n_u,nl =  3.02680
    NO participation ratio (PR_NO):  3.819011
  
  
  Mulliken Population Analysis
  Atom  Charge (e)    Spin (e)  h+ (alpha)   h+ (beta)  e- (alpha)   e- (beta)
  ----------------------------------------------------------------------------
   1 C   -0.153565    0.651120    0.448360    0.039865   -0.049484   -0.292109
   2 C   -0.153565    0.651120    0.448360    0.039865   -0.049484   -0.292109
   3 H   -0.173215   -0.075559    0.005381    0.000480   -0.204818   -0.124357
   4 H   -0.173198   -0.075561    0.005381    0.000480   -0.204820   -0.124358
   5 H   -0.173220   -0.075561    0.005381    0.000480   -0.204820   -0.124358
   6 H   -0.173236   -0.075559    0.005381    0.000480   -0.204818   -0.124357
  ----------------------------------------------------------------------------
  Sum:   -1.000000    1.000000    0.918244    0.081648   -0.918244   -1.081648
  
  Multipole moment analysis of the density matrix
    Molecular charge:                      -1.000000
    Number of electrons:                   17.000000
      Center of electronic charge [Ang]: [ -0.000000,   0.000000,   0.000000]
    Total nuclear charge:                  16.000000
      Center of nuclear charge [Ang]:    [  0.000000,   0.000000,   0.000000]
    Dipole moment [D]:                     0.000007
      Cartesian components [D]:          [  0.000000,  -0.000007,  -0.000000]
    RMS size of the density [Ang]:         1.762025
      Cartesian components [Ang]:        [  1.359120,   0.889221,   0.683236]
  
  Exciton analysis of the difference density matrix
  Total:
    <r_h> [Ang]:                  [ -0.000000,   0.000000,   0.000000]
    <r_e> [Ang]:                  [ -0.000000,   0.000001,  -0.000000]
    |<r_e - r_h>| [Ang]:            0.000000
    Hole size [Ang]:                1.247845
      Cartesian components [Ang]: [  0.742732,   0.514354,   0.860759]
    Electron size [Ang]:            3.971985
      Cartesian components [Ang]: [  3.050670,   1.942727,   1.641916]
  
  Alpha spin:
    <r_h> [Ang]:                  [ -0.000000,   0.000000,   0.000000]
    <r_e> [Ang]:                  [ -0.000000,   0.000001,  -0.000000]
    |<r_e - r_h>| [Ang]:            0.000001
    Hole size [Ang]:                1.247892
      Cartesian components [Ang]: [  0.742746,   0.514374,   0.860802]
    Electron size [Ang]:            3.591765
      Cartesian components [Ang]: [  2.735190,   1.854664,   1.407030]
  
  Beta spin:
    <r_h> [Ang]:                  [ -0.000000,   0.000000,   0.000000]
    <r_e> [Ang]:                  [ -0.000000,   0.000000,  -0.000000]
    |<r_e - r_h>| [Ang]:            0.000000
    Hole size [Ang]:                1.247322
      Cartesian components [Ang]: [  0.742575,   0.514124,   0.860273]
    Electron size [Ang]:            4.268266
      Cartesian components [Ang]: [  3.294869,   2.014467,   1.817652]
  ----------------------------------------------------------------------------


--------------------------------------------------------------------------------
  Time of ADC calculation:  CPU 97.47 s  wall 21.95 s
================================================================================
 
 --------------------------------------------------------------
             Orbital Energies (a.u.) and Symmetries
 --------------------------------------------------------------
 
 Alpha MOs, Restricted
 -- Occupied --                  
-11.228 -11.226  -1.040  -0.781  -0.661  -0.568  -0.516  -0.377
  1 Ag    1 B3u   2 Ag    2 B3u   1 B2u   3 Ag    1 B1g   1 B1u                
 -- Virtual --                   
  0.049   0.051   0.058   0.071   0.071   0.084   0.143   0.150
  3 B3u   2 B2u   2 B1u   2 B1g   1 B2g   4 Ag    2 B2g   5 Ag                 
  0.191   0.196   0.218   0.221   0.223   0.295   0.296   0.307
  4 B3u   3 B2u   3 B1g   6 Ag    3 B1u   5 B3u   3 B2g   4 B2u                
  0.445   0.452   0.452   0.605   0.613   0.642   0.646   0.647
  6 B3u   7 Ag    4 B1g   8 Ag    5 B2u   6 B2u   7 B3u   9 Ag                 
  0.666   0.674   0.704   0.757   0.769   0.828   0.842   0.902
  1 B3g   8 B3u   4 B1u   5 B1g   4 B2g   1 Au    9 B3u   5 B1u                
  0.966   1.007   1.032   1.055   1.188   1.202   1.254   1.347
  6 B1g  10 Ag    7 B1g   7 B2u   6 B1u   5 B2g   2 B3g  11 Ag                 
  1.356   1.398   1.465   1.480   1.497   1.533   1.624   1.635
 10 B3u   6 B2g   8 B2u   9 B2u  11 B3u  12 Ag   12 B3u   2 Au                 
  1.711   1.834   1.860   1.978   2.298   2.552   2.616   2.656
  8 B1g  13 B3u  13 Ag    9 B1g  14 Ag    7 B1u  15 Ag    7 B2g                
  2.709   2.766   2.770   2.827   2.859   2.915   3.068   3.101
 10 B2u   8 B1u  11 B2u  14 B3u  10 B1g   3 B3g  11 B1g   9 B1u                
  3.105   3.133   3.151   3.152   3.183   3.258   3.314   3.340
  4 B3g  12 B2u  16 Ag    3 Au   17 Ag    8 B2g  15 B3u  13 B2u                
  3.413   3.426   3.437   3.472   3.501   3.550   3.597   3.641
  9 B2g   4 Au   16 B3u  17 B3u  12 B1g  10 B1u  18 Ag    5 B3g                
  3.743   3.814   3.898   3.956   3.976   3.980   4.014   4.033
 14 B2u  13 B1g  18 B3u  14 B1g   5 Au   10 B2g  15 B2u  19 Ag                 
  4.060   4.187   4.192   4.202   4.209   4.331   4.351   4.487
 11 B1u  19 B3u  15 B1g   6 B3g  20 Ag   12 B1u  11 B2g  16 B2u                
  4.534   4.606   4.680   4.763   4.813   4.937   4.974   5.057
 20 B3u   6 Au   21 Ag   21 B3u  12 B2g  13 B1u  22 Ag   16 B1g                
  5.152   5.216   5.306   5.306   5.426   5.471   5.542   5.562
 17 B2u   7 B3g  23 Ag   22 B3u   7 Au   17 B1g  13 B2g  24 Ag                 
  5.667   6.000   6.100   6.300   6.588   6.874  12.044  14.806
 18 B2u  23 B3u  18 B1g  19 B2u  24 B3u  19 B1g  25 Ag   25 B3u                
 
 Beta MOs, Restricted
 -- Occupied --                  
-11.228 -11.226  -1.040  -0.781  -0.661  -0.568  -0.516  -0.377
  1 Ag    1 B3u   2 Ag    2 B3u   1 B2u   3 Ag    1 B1g   1 B1u                
 -- Virtual --                   
  0.049   0.051   0.058   0.071   0.071   0.084   0.143   0.150
  3 B3u   2 B2u   2 B1u   2 B1g   1 B2g   4 Ag    2 B2g   5 Ag                 
  0.191   0.196   0.218   0.221   0.223   0.295   0.296   0.307
  4 B3u   3 B2u   3 B1g   6 Ag    3 B1u   5 B3u   3 B2g   4 B2u                
  0.445   0.452   0.452   0.605   0.613   0.642   0.646   0.647
  6 B3u   7 Ag    4 B1g   8 Ag    5 B2u   6 B2u   7 B3u   9 Ag                 
  0.666   0.674   0.704   0.757   0.769   0.828   0.842   0.902
  1 B3g   8 B3u   4 B1u   5 B1g   4 B2g   1 Au    9 B3u   5 B1u                
  0.966   1.007   1.032   1.055   1.188   1.202   1.254   1.347
  6 B1g  10 Ag    7 B1g   7 B2u   6 B1u   5 B2g   2 B3g  11 Ag                 
  1.356   1.398   1.465   1.480   1.497   1.533   1.624   1.635
 10 B3u   6 B2g   8 B2u   9 B2u  11 B3u  12 Ag   12 B3u   2 Au                 
  1.711   1.834   1.860   1.978   2.298   2.552   2.616   2.656
  8 B1g  13 B3u  13 Ag    9 B1g  14 Ag    7 B1u  15 Ag    7 B2g                
  2.709   2.766   2.770   2.827   2.859   2.915   3.068   3.101
 10 B2u   8 B1u  11 B2u  14 B3u  10 B1g   3 B3g  11 B1g   9 B1u                
  3.105   3.133   3.151   3.152   3.183   3.258   3.314   3.340
  4 B3g  12 B2u  16 Ag    3 Au   17 Ag    8 B2g  15 B3u  13 B2u                
  3.413   3.426   3.437   3.472   3.501   3.550   3.597   3.641
  9 B2g   4 Au   16 B3u  17 B3u  12 B1g  10 B1u  18 Ag    5 B3g                
  3.743   3.814   3.898   3.956   3.976   3.980   4.014   4.033
 14 B2u  13 B1g  18 B3u  14 B1g   5 Au   10 B2g  15 B2u  19 Ag                 
  4.060   4.187   4.192   4.202   4.209   4.331   4.351   4.487
 11 B1u  19 B3u  15 B1g   6 B3g  20 Ag   12 B1u  11 B2g  16 B2u                
  4.534   4.606   4.680   4.763   4.813   4.937   4.974   5.057
 20 B3u   6 Au   21 Ag   21 B3u  12 B2g  13 B1u  22 Ag   16 B1g                
  5.152   5.216   5.306   5.306   5.426   5.471   5.542   5.562
 17 B2u   7 B3g  23 Ag   22 B3u   7 Au   17 B1g  13 B2g  24 Ag                 
  5.667   6.000   6.100   6.300   6.588   6.874  12.044  14.806
 18 B2u  23 B3u  18 B1g  19 B2u  24 B3u  19 B1g  25 Ag   25 B3u                
 --------------------------------------------------------------
 
          Ground-State Mulliken Net Atomic Charges

     Atom                 Charge (a.u.)
  ----------------------------------------
      1 C                    -0.266608
      2 C                    -0.266608
      3 H                     0.133291
      4 H                     0.133339
      5 H                     0.133317
      6 H                     0.133269
  ----------------------------------------
  Sum of atomic charges =     0.000000

 -----------------------------------------------------------------
                    Cartesian Multipole Moments
 -----------------------------------------------------------------
    Charge (ESU x 10^10)
                 0.0000
    Dipole Moment (Debye)
         X       0.0000      Y      -0.0000      Z      -0.0000
       Tot       0.0000
    Quadrupole Moments (Debye-Ang)
        XX     -12.8617     XY       0.0000     YY     -11.9337
        XZ       0.0000     YZ      -0.0000     ZZ     -16.0991
    Octopole Moments (Debye-Ang^2)
       XXX       0.0000    XXY      -0.0000    XYY       0.0000
       YYY      -0.0000    XXZ      -0.0000    XYZ       0.0000
       YYZ      -0.0000    XZZ       0.0000    YZZ      -0.0000
       ZZZ      -0.0000
    Hexadecapole Moments (Debye-Ang^3)
      XXXX     -67.9921   XXXY       0.0000   XXYY     -13.0982
      XYYY       0.0000   YYYY     -26.7500   XXXZ       0.0000
      XXYZ       0.0000   XYYZ       0.0000   YYYZ      -0.0000
      XXZZ     -15.4212   XYZZ       0.0000   YYZZ      -8.9484
      XZZZ       0.0000   YZZZ      -0.0000   ZZZZ     -21.1763
 -----------------------------------------------------------------
 Total job time:  104.00s(wall), 146.95s(cpu) 
 Fri Feb 25 18:07:22 2022

        *************************************************************
        *                                                           *
        *  Thank you very much for using Q-Chem.  Have a nice day.  *
        *                                                           *
        *************************************************************


