/src/tsommerfeld/qchem/exe/qcprog.exe .input1.666667.14280.qcin.1 /src/jdavis/qchem.scratch/qchem14280/

                  Welcome to Q-Chem
     A Quantum Leap Into The Future Of Chemistry


 Q-Chem 5.4 (devel), Q-Chem, Inc., Pleasanton, CA (2021)

 E. Epifanovsky,  A. T. B. Gilbert,  Xintian Feng,  Joonho Lee,  Yuezhi Mao,  
 N. Mardirossian,  P. Pokhilko,  A. White,  M. Wormit,  M. P. Coons,  
 A. L. Dempwolff,  Zhengting Gan,  D. Hait,  P. R. Horn,  L. D. Jacobson,  
 I. Kaliman,  J. Kussmann,  A. W. Lange,  Ka Un Lao,  D. S. Levine,  Jie Liu,  
 S. C. McKenzie,  A. F. Morrison,  K. Nanda,  F. Plasser,  D. R. Rehn,  
 M. L. Vidal,  Zhi-Qiang You,  Ying Zhu,  B. Alam,  B. Albrecht,  
 A. Aldossary,  E. Alguire,  J. H. Andersen,  D. Barton,  K. Begam,  A. Behn,  
 Y. A. Bernard,  E. J. Berquist,  H. Burton,  A. Carreras,  K. Carter-Fenk,  
 R. Chakraborty,  A. D. Chien,  K. D. Closser,  V. Cofer-Shabica,  
 S. Dasgupta,  Jia Deng,  M. de Wergifosse,  M. Diedenhofen,  Hainam Do,  
 S. Ehlert,  Po-Tung Fang,  S. Fatehi,  Qingguo Feng,  T. Friedhoff,  
 J. Gayvert,  Qinghui Ge,  G. Gidofalvi,  M. Goldey,  J. Gomes,  
 C. Gonzalez-Espinoza,  S. Gulania,  A. Gunina,  M. W. D. Hanson-Heine,  
 P. H. P. Harbach,  A. W. Hauser,  M. F. Herbst,  M. Hernandez Vera,  
 M. Hodecker,  Z. C. Holden,  S. Houck,  Xunkun Huang,  Kerwin Hui,  
 B. C. Huynh,  M. Ivanov,  Hyunjun Ji,  Hanjie Jiang,  B. Kaduk,  S. Kaehler,  
 K. Khistyaev,  Jaehoon Kim,  P. Klunzinger,  Z. Koczor-Benda,  
 Joong Hoon Koh,  D. Kosenkov,  L. Koulias,  T. Kowalczyk,  C. M. Krauter,  
 K. Kue,  A. Kunitsa,  T. Kus,  A. Landau,  K. V. Lawler,  D. Lefrancois,  
 S. Lehtola,  Rain Li,  Yi-Pei Li,  Jiashu Liang,  M. Liebenthal,  
 Hung-Hsuan Lin,  You-Sheng Lin,  Fenglai Liu,  Kuan-Yu Liu,  
 M. Loipersberger,  A. Luenser,  A. Manjanath,  P. Manohar,  E. Mansoor,  
 S. F. Manzer,  Shan-Ping Mao,  A. V. Marenich,  T. Markovich,  S. Mason,  
 S. A. Maurer,  P. F. McLaughlin,  M. F. S. J. Menger,  J.-M. Mewes,  
 S. A. Mewes,  P. Morgante,  J. W. Mullinax,  K. J. Oosterbaan,  G. Paran,  
 Alexander C. Paul,  Suranjan K. Paul,  F. Pavosevic,  Zheng Pei,  S. Prager,  
 E. I. Proynov,  E. Ramos,  B. Rana,  A. E. Rask,  A. Rettig,  R. M. Richard,  
 F. Rob,  E. Rossomme,  T. Scheele,  M. Scheurer,  M. Schneider,  
 N. Sergueev,  S. M. Sharada,  W. Skomorowski,  D. W. Small,  C. J. Stein,  
 Yu-Chuan Su,  E. J. Sundstrom,  Zhen Tao,  J. Thirman,  T. Tsuchimochi,  
 N. M. Tubman,  S. P. Veccham,  O. Vydrov,  J. Wenzel,  J. Witte,  A. Yamada,  
 Kun Yao,  S. Yeganeh,  S. R. Yost,  A. Zech,  Igor Ying Zhang,  Xing Zhang,  
 Yu Zhang,  D. Zuev,  A. Aspuru-Guzik,  A. T. Bell,  N. A. Besley,  
 K. B. Bravaya,  B. R. Brooks,  D. Casanova,  Jeng-Da Chai,  S. Coriani,  
 C. J. Cramer,  A. E. DePrince, III,  R. A. DiStasio Jr.,  A. Dreuw,  
 B. D. Dunietz,  T. R. Furlani,  W. A. Goddard III,  S. Grimme,  
 S. Hammes-Schiffer,  T. Head-Gordon,  W. J. Hehre,  Chao-Ping Hsu,  
 T.-C. Jagau,  Yousung Jung,  A. Klamt,  Jing Kong,  D. S. Lambrecht,  
 WanZhen Liang,  N. J. Mayhall,  C. W. McCurdy,  J. B. Neaton,  
 C. Ochsenfeld,  J. A. Parkhill,  R. Peverati,  V. A. Rassolov,  Yihan Shao,  
 L. V. Slipchenko,  T. Stauch,  R. P. Steele,  J. E. Subotnik,  
 A. J. W. Thom,  A. Tkatchenko,  D. G. Truhlar,  T. Van Voorhis,  
 T. A. Wesolowski,  K. B. Whaley,  H. L. Woodcock III,  P. M. Zimmerman,  
 S. Faraji,  P. M. W. Gill,  M. Head-Gordon,  J. M. Herbert,  A. I. Krylov

 Additional authors for Version 5.4.1: 
 S. Kotaru,  Shaozhi Li,  Xiangyuan Li,  F. Matz,  A. Molle,  Haisheng Ren,  
 Yingli Su,  Hung-Yi Tsai,  C. Utku,  Fang Wang

 Contributors to earlier versions of Q-Chem not listed above: 
 R. D. Adamson,  B. Austin,  R. Baer,  J. Baker,  G. J. O. Beran,  
 K. Brandhorst,  S. T. Brown,  E. F. C. Byrd,  A. K. Chakraborty,  
 G. K. L. Chan,  Chun-Min Chang,  Yunqing Chen,  C.-L. Cheng,  
 Siu Hung Chien,  D. M. Chipman,  D. L. Crittenden,  H. Dachsel,  
 R. J. Doerksen,  A. D. Dutoi,  R. G. Edgar,  J. Fosso-Tande,  
 L. Fusti-Molnar,  D. Ghosh,  A. Ghysels,  A. Golubeva-Zadorozhnaya,  
 J. Gonthier,  M. S. Gordon,  S. R. Gwaltney,  G. Hawkins,  J. E. Herr,  
 A. Heyden,  S. Hirata,  E. G. Hohenstein,  G. Kedziora,  F. J. Keil,  
 C. Kelley,  Jihan Kim,  R. A. King,  R. Z. Khaliullin,  P. P. Korambath,  
 W. Kurlancheek,  A. Laurent,  A. M. Lee,  M. S. Lee,  S. V. Levchenko,  
 Ching Yeh Lin,  D. Liotard,  E. Livshits,  R. C. Lochan,  I. Lotan,  
 L. A. Martinez-Martinez,  P. E. Maslen,  N. Nair,  D. P. O'Neill,  
 D. Neuhauser,  E. Neuscamman,  C. M. Oana,  R. Olivares-Amaya,  R. Olson,  
 T. M. Perrine,  B. Peters,  P. A. Pieniazek,  A. Prociuk,  Y. M. Rhee,  
 J. Ritchie,  M. A. Rohrdanz,  E. Rosta,  N. J. Russ,  H. F. Schaefer III,  
 M. W. Schmidt,  N. E. Schultz,  S. Sharma,  N. Shenvi,  C. D. Sherrill,  
 A. C. Simmonett,  A. Sodt,  T. Stein,  D. Stuck,  K. S. Thanthiriwatte,  
 V. Vanovschi,  L. Vogt,  Tao Wang,  A. Warshel,  M. A. Watson,  
 C. F. Williams,  Q. Wu,  X. Xu,  Jun Yang,  W. Zhang,  Yan Zhao

 Please cite Q-Chem as follows:
 Y. Shao et al., Mol. Phys. 113, 184-215 (2015)
 DOI: 10.1080/00268976.2014.952696

 Q-Chem 5.4.1 for Intel X86 EM64T Linux

 Parts of Q-Chem use Armadillo 9.900.5 (Nocturnal Misbehaviour).
 http://arma.sourceforge.net/

 Q-Chem begins on Sat Mar 26 02:11:56 2022  

 Host: node01
0

     Scratch files written to /src/jdavis/qchem.scratch/qchem14280//
 Processing $rem in /src/tsommerfeld/qchem/config/preferences:
 Processing $rem in /home/jdavis/.qchemrc:

 Checking the input file for inconsistencies... 	...done.

--------------------------------------------------------------
User input:
--------------------------------------------------------------
$molecule
-1 1
C         0.0000003663    0.4438502432    0.6645000000
C         0.0000003663    0.4438502432   -0.6645000000
H        -0.9623486337    0.4438522630    1.1590800000
H        -0.9623486337    0.4438522630   -1.1590800000
H         0.9623483663    0.4438482235    1.1590800000
H         0.9623483663    0.4438482235   -1.1590800000
H        -0.0000038605   -2.4438482235    0.0000000000
$end

$rem
   METHOD adc(2)
   BASIS gen
   PURECART 11
   EE_STATES [0,0,0,10]
   scf_convergence 8
   ADC_DAVIDSON_MAXITER 120
   ADC_DAVIDSON_MAXSUBSPACE 200
   adc_nguess_singles 100
   THRESH 14
   S2THRESH 14
   adc_davidson_conv 5
   adc_davidson_thresh 14
   THREADS 10
   MEM_TOTAL 95000
   STATE_ANALYSIS TRUE
$end
$basis
C 1
S   9   1.00
      6.665000D+03           6.920000D-04
      1.000000D+03           5.329000D-03
      2.280000D+02           2.707700D-02
      6.471000D+01           1.017180D-01
      2.106000D+01           2.747400D-01
      7.495000D+00           4.485640D-01
      2.797000D+00           2.850740D-01
      5.215000D-01           1.520400D-02
      1.596000D-01          -3.191000D-03
S   9   1.00
      6.665000D+03          -1.460000D-04
      1.000000D+03          -1.154000D-03
      2.280000D+02          -5.725000D-03
      6.471000D+01          -2.331200D-02
      2.106000D+01          -6.395500D-02
      7.495000D+00          -1.499810D-01
      2.797000D+00          -1.272620D-01
      5.215000D-01           5.445290D-01
      1.596000D-01           5.804960D-01
S   1   1.00
      1.596000D-01           1.000000D+00
S   1   1.00
      0.0469000              1.0000000
P   4   1.00
      9.439000D+00           3.810900D-02
      2.002000D+00           2.094800D-01
      5.456000D-01           5.085570D-01
      1.517000D-01           4.688420D-01
P   1   1.00
      1.517000D-01           1.000000D+00
P   1   1.00
      0.1011333      1.0000000
P   1   1.00
      0.0505667      1.0000000
D   1   1.00
      5.500000D-01           1.0000000
****
C 2
S   9   1.00
      6.665000D+03           6.920000D-04
      1.000000D+03           5.329000D-03
      2.280000D+02           2.707700D-02
      6.471000D+01           1.017180D-01
      2.106000D+01           2.747400D-01
      7.495000D+00           4.485640D-01
      2.797000D+00           2.850740D-01
      5.215000D-01           1.520400D-02
      1.596000D-01          -3.191000D-03
S   9   1.00
      6.665000D+03          -1.460000D-04
      1.000000D+03          -1.154000D-03
      2.280000D+02          -5.725000D-03
      6.471000D+01          -2.331200D-02
      2.106000D+01          -6.395500D-02
      7.495000D+00          -1.499810D-01
      2.797000D+00          -1.272620D-01
      5.215000D-01           5.445290D-01
      1.596000D-01           5.804960D-01
S   1   1.00
      1.596000D-01           1.000000D+00
S   1   1.00
      0.0469000              1.0000000
P   4   1.00
      9.439000D+00           3.810900D-02
      2.002000D+00           2.094800D-01
      5.456000D-01           5.085570D-01
      1.517000D-01           4.688420D-01
P   1   1.00
      1.517000D-01           1.000000D+00
P   1   1.00
      0.1011333      1.0000000
P   1   1.00
      0.0505667      1.0000000
D   1   1.00
      5.500000D-01           1.0000000
****
H 3
cc-pVDZ
****
H 4
cc-pVDZ
****
H 5
cc-pVDZ
****
H 6
cc-pVDZ
****
H 7
aug-cc-pVDZ
****
$end
--------------------------------------------------------------
 Atom   2: ( -0.6645000000, -0.0000002280, -0.1698646157)
         ->( -0.6645000000,  0.0000002280, -0.1698646157)
 Atom   1: (  0.6645000000, -0.0000002280, -0.1698646157)
         ->(  0.6645000000,  0.0000000000, -0.1698646157)
 Atom   6: ( -1.1590800000, -0.9623482280, -0.1698633794)
         ->( -1.1590800000, -0.9623487720, -0.1698658521)
 Atom   5: (  1.1590800000, -0.9623482280, -0.1698633794)
         ->(  1.1590800000, -0.9623487720, -0.1698658521)
 Atom   7: ( -0.0000000000,  0.0000016481,  2.7178338510)
         ->(  0.0000000000,  0.0000000000,  2.7178338510)
 ----------------------------------------------------------------
             Standard Nuclear Orientation (Angstroms)
    I     Atom           X                Y                Z
 ----------------------------------------------------------------
    1      C       0.6645000000     0.0000000000    -0.1698646157
    2      C      -0.6645000000     0.0000002280    -0.1698646157
    3      H       1.1590800000     0.9623487720    -0.1698658521
    4      H      -1.1590800000     0.9623487720    -0.1698658521
    5      H       1.1590800000    -0.9623487720    -0.1698658521
    6      H      -1.1590800000    -0.9623487720    -0.1698658521
    7      H       0.0000000000     0.0000000000     2.7178338510
 ----------------------------------------------------------------
 Molecular Point Group                 C2v   NOp =  4
 Largest Abelian Subgroup              C2v   NOp =  4
 Nuclear Repulsion Energy =          36.38212131 hartrees
 There are        9 alpha and        9 beta electrons
 Requested basis set is non-standard
 There are 33 shells and 67 basis functions
 Total memory of 95000 MB is distributed as follows: 
   MEM_STATIC is set to 192 MB
   QALLOC/CCMAN JOB total memory use is  94808 MB
 Warning: actual memory use might exceed 95000 MB

 Total QAlloc Memory Limit  95000 MB
 Mega-Array Size       188 MB
 MEM_STATIC part       192 MB

                       Distance Matrix (Angstroms)
             C (  1)   C (  2)   H (  3)   H (  4)   H (  5)   H (  6)
   C (  2)  1.329000
   H (  3)  1.082000  2.061931
   H (  4)  2.061931  1.082000  2.318160
   H (  5)  1.082000  2.061931  1.924698  3.013026
   H (  6)  2.061931  1.082000  3.013026  1.924698  2.318160
   H (  7)  2.963168  2.963168  3.257053  3.257053  3.257053  3.257053

 
 A cutoff of  1.0D-14 yielded    561 shell pairs
 There are      2337 function pairs (      2484 Cartesian)
 Smallest overlap matrix eigenvalue = 1.66E-04

 Scale SEOQF with 1.000000e-01/1.000000e-01/1.000000e-01

 Standard Electronic Orientation quadrupole field applied
 Nucleus-field energy     =    -0.0000000002 hartrees
 ================ Generating on-the-fly SAD Guess ================
Attempting to make child job directory: /src/jdavis/qchem.scratch/qchem14280//Frg1/
Attempting to make child job directory: /src/jdavis/qchem.scratch/qchem14280//Frg2/
Creating input file /src/jdavis/qchem.scratch/qchem14280/Frg1.input
using default PutDataFrgm: nothing
calling putenv with: QCSCRATCH=/src/jdavis/qchem.scratch/qchem14280/ 
Spawning Job For Fragment 0
Done Job For Fragment 0
calling putenv with: QCSCRATCH=/src/jdavis/qchem.scratch 
calling putenv with: QCTHREADS=1 
Creating input file /src/jdavis/qchem.scratch/qchem14280/Frg2.input
using default PutDataFrgm: nothing
calling putenv with: QCSCRATCH=/src/jdavis/qchem.scratch/qchem14280/ 
Spawning Job For Fragment 1
Done Job For Fragment 1
calling putenv with: QCSCRATCH=/src/jdavis/qchem.scratch 
calling putenv with: QCTHREADS=1 
 Time for running child jobs:  CPU 1.77 s  wall 54.34 s
 ============= Method Specific SAD Guess Constructed =============
 Guess from on-the-fly superposition of atomic densities
 Warning: Energy on first SCF cycle will be non-variational
 A restricted Hartree-Fock SCF calculation will be
 performed using Pulay DIIS extrapolation
 SCF converges when DIIS error is below 1.0E-08
 using 10 threads for integral computing
 -------------------------------------------------------
 OpenMP Integral computing Module                
 Release: version 1.0, May 2013, Q-Chem Inc. Pittsburgh 
 -------------------------------------------------------
 ---------------------------------------
  Cycle       Energy         DIIS Error
 ---------------------------------------
    1     -78.8097200469      7.37E-02
    2     -78.4326840229      7.18E-03
    3     -78.4852618271      1.85E-03
    4     -78.4884470036      5.86E-04
    5     -78.4888338238      1.32E-04
    6     -78.4888709344      3.53E-05
    7     -78.4888757633      1.20E-05
    8     -78.4888767333      1.66E-06
    9     -78.4888767831      4.08E-07
   10     -78.4888767873      5.90E-08
   11     -78.4888767861      1.10E-08
   12     -78.4888767859      1.91E-09 Convergence criterion met
 ---------------------------------------
 SCF time:  CPU 10.93 s  wall 1.10 s
 SCF   energy in the final basis set = -78.48887679
 Total energy in the final basis set = -78.48887679
================================================================================
|                                                                              |
|                                 A D C  M A N                                 |
|                                                                              |
 ------------------------------------------------------------------------------ 
|                                                                              |
| Components:                                                                  |
|                                                                              |
| - libvmm - 1.3-trunk                                                         |
|   Authors:                                                                   |
|   Evgeny Epifanovsky, Ilya Kaliman                                           |
|                                                                              |
| - libtensor - 2.5-trunk                                                      |
|   Authors:                                                                   |
|   Evgeny Epifanovsky, Michael Wormit, Dmitry Zuev, Sam Manzer,               |
|   Ilya Kaliman                                                               |
|                                                                              |
| - libwfa - 1.1-trunk                                                         |
|   Authors:                                                                   |
|   Felix Plasser, Stefanie Mewes (Baeppler), Benjamin Thomitzni,              |
|   Michael Wormit, Feng Chen, Anna I. Krylov, Pavel Pokhilko                  |
|                                                                              |
| - libadc - 1.1-trunk                                                         |
|   Authors:                                                                   |
|   Michael Wormit, Adrian L. Dempwolff, Philipp H. P. Harbach,                |
|   Caroline Krauter, Dirk Rehn, Matthias Schneider, Jan Wenzel                |
|                                                                              |
| - adcman - 2.6-trunk                                                         |
|   Authors:                                                                   |
|   Michael Wormit, Adrian L. Dempwolff, Philipp H. P. Harbach,                |
|   Caroline Krauter, Daniel Lefrancois, Jan-Michael Mewes, Dirk Rehn,         |
|   Matthias Schneider, Jan Wenzel, Andreas Dreuw                              |
|                                                                              |
| Authors of earlier versions of ADCMAN:                                       |
| Andreas Dreuw, Jan Hendrik Starcke, Dirk Rehn, Michael Wormit                |
|                                                                              |
================================================================================

 
 Alpha MOs, Restricted
 -- Occupied --                  
-11.069 -11.067  -0.871  -0.616  -0.493  -0.400  -0.351  -0.205
  1 A1    1 B1    2 A1    2 B1    1 B2    3 A1    1 A2    4 A1                 
 -0.004
  5 A1                                                                         
 -- Virtual --                   
  0.214   0.217   0.235   0.263   0.264   0.266   0.342   0.350
  3 B1    6 A1    2 B2    4 B1    7 A1    2 A2    5 B1    8 A1                 
  0.369   0.466   0.480   0.490   0.535   0.557   0.568   0.590
  6 B1    9 A1    3 B2    7 B1    8 B1   10 A1    4 B2    3 A2                 
  0.600   0.683   0.717   0.784   1.006   1.028   1.075   1.090
 11 A1    9 B1    4 A2   10 B1    5 B2   12 A1   11 B1   13 A1                 
  1.177   1.208   1.284   1.307   1.315   1.334   1.408   1.453
 14 A1    5 A2    6 B2   15 A1   12 B1    7 B2   16 A1    6 A2                 
  1.457   1.509   1.569   1.663   1.797   1.910   1.928   1.962
 13 B1   17 A1   14 B1    7 A2   18 A1    8 B2    9 B2   15 B1                 
  1.970   2.003   2.054   2.134   2.148   2.185   2.276   2.276
  8 A2   19 A1   16 B1   20 A1   17 B1   10 B2   21 A1   11 B2                 
  2.357   2.496   2.581   2.656   2.715   2.750   3.055   3.056
 18 B1   19 B1    9 A2   22 A1   10 A2   20 B1   12 B2   23 A1                 
  3.479   3.524
 21 B1   11 A2                                                                 
 
 Beta MOs, Restricted
 -- Occupied --                  
-11.069 -11.067  -0.871  -0.616  -0.493  -0.400  -0.351  -0.205
  1 A1    1 B1    2 A1    2 B1    1 B2    3 A1    1 A2    4 A1                 
 -0.004
  5 A1                                                                         
 -- Virtual --                   
  0.214   0.217   0.235   0.263   0.264   0.266   0.342   0.350
  3 B1    6 A1    2 B2    4 B1    7 A1    2 A2    5 B1    8 A1                 
  0.369   0.466   0.480   0.490   0.535   0.557   0.568   0.590
  6 B1    9 A1    3 B2    7 B1    8 B1   10 A1    4 B2    3 A2                 
  0.600   0.683   0.717   0.784   1.006   1.028   1.075   1.090
 11 A1    9 B1    4 A2   10 B1    5 B2   12 A1   11 B1   13 A1                 
  1.177   1.208   1.284   1.307   1.315   1.334   1.408   1.453
 14 A1    5 A2    6 B2   15 A1   12 B1    7 B2   16 A1    6 A2                 
  1.457   1.509   1.569   1.663   1.797   1.910   1.928   1.962
 13 B1   17 A1   14 B1    7 A2   18 A1    8 B2    9 B2   15 B1                 
  1.970   2.003   2.054   2.134   2.148   2.185   2.276   2.276
  8 A2   19 A1   16 B1   20 A1   17 B1   10 B2   21 A1   11 B2                 
  2.357   2.496   2.581   2.656   2.715   2.750   3.055   3.056
 18 B1   19 B1    9 A2   22 A1   10 A2   20 B1   12 B2   23 A1                 
  3.479   3.524
 21 B1   11 A2                                                                 

--------------------------------------------------------------------------------
                                   HF Summary                                   
--------------------------------------------------------------------------------
  Energy:                                                  -78.4888767859 a.u.
  Dip. moment [a.u.]:                  [  -0.000000,   -0.000001,   -4.170238]
  Total dipole [Debye]:                                              10.599689
  <r^2> [a.u.]:                        [  52.622596,   26.728310,   66.938290]
  Total <r^2> [a.u.]:                                               146.289196
--------------------------------------------------------------------------------

--------------------------------------------------------------------------------
                                 MP(2) Summary                                  
--------------------------------------------------------------------------------
  MP energy contribution:                                   -0.3079994964 a.u.
  Total energy:                                            -78.7968762823 a.u.
  Dip. moment [a.u.]:                  [  -0.000000,   -0.000002,   -4.110661]
  Total dipole [Debye]:                                              10.448260
  <r^2> [a.u.]:                        [  52.969961,   26.914080,   66.202403]
  Total <r^2> [a.u.]:                                               146.086444

  Density matrix analysis:
  ------------------------
  NOs
    Occupation of frontier NOs:
       0.0467   1.9335
    Number of electrons: 18.000000
    Number of unpaired electrons: n_u =  0.46559, n_u,nl =  0.05211
    NO participation ratio (PR_NO): 15.941709
  
  
  Mulliken Population Analysis
  Atom      Charge (e)              h+              e-           Del q
  --------------------------------------------------------------------
   1 C       -0.404760        0.087433       -0.124789       -0.037356
   2 C       -0.404760        0.087433       -0.124789       -0.037356
   3 H        0.096145        0.019015       -0.008867        0.010148
   4 H        0.096175        0.019015       -0.008867        0.010148
   5 H        0.096163        0.019014       -0.008868        0.010146
   6 H        0.096133        0.019014       -0.008868        0.010146
   7 H       -0.575098        0.048284       -0.014159        0.034125
  --------------------------------------------------------------------
  Sum:       -1.000000        0.299208       -0.299208       -0.000000
  
  Multipole moment analysis of the density matrix
    Molecular charge:                      -1.000000
    Number of electrons:                   18.000000
      Center of electronic charge [Ang]: [  0.000000,   0.000000,   0.120848]
    Total nuclear charge:                  17.000000
      Center of nuclear charge [Ang]:    [  0.000000,   0.000000,  -0.000000]
    Dipole moment [D]:                     10.448257
      Cartesian components [D]:          [ -0.000000,  -0.000006, -10.448257]
    RMS size of the density [Ang]:         1.502692
      Cartesian components [Ang]:        [  0.907778,   0.647075,   1.007629]
  
  Exciton analysis of the difference density matrix
    <r_h> [Ang]:                  [  0.000000,  -0.000001,   0.189080]
    <r_e> [Ang]:                  [  0.000000,   0.000002,   0.083713]
    |<r_e - r_h>| [Ang]:            0.105367
    Hole size [Ang]:                1.798731
      Cartesian components [Ang]: [  0.960559,   0.748020,   1.324095]
    Electron size [Ang]:            1.753403
      Cartesian components [Ang]: [  1.117037,   0.856385,   1.045589]
--------------------------------------------------------------------------------
  Starting Davidson for singlet states of irrep B2 ... 
--------------------------------------------------------------------------------
   It NVec Conv  Avg. Norm  Max. Norm  Conv. states           Remark
--------------------------------------------------------------------------------
       100    0  1.130e-01  4.280e-01  0.1346 n n n n n n n n Guess.
    1  110    0  9.359e-03  4.639e-02  0.0864 n n n n n n n n 
    2  120    0  7.784e-03  7.629e-02  0.0864 n n n n n n n n 
    3  130    1  9.900e-03  9.897e-02  0.0864 y n n n n n n n 
    4  140    5  1.094e-03  1.094e-02  0.0864 y y y y n y n n 
    5  150    8  5.967e-05  5.965e-04  0.0864 y y y y y y y y 
    6  160    9  4.113e-06  4.112e-05  0.0864 y y y y y y y y 
    7  170   10  1.010e-07  1.009e-06  0.0864 y y y y y y y y Converged.
--------------------------------------------------------------------------------
  Davidson Summary: 
 ------------------------------------------------------------
  State  0: excitation energy =   0.0864 a.u.   (converged)
  State  1: excitation energy =   0.2659 a.u.   (converged)
  State  2: excitation energy =   0.2866 a.u.   (converged)
  State  3: excitation energy =   0.3335 a.u.   (converged)
  State  4: excitation energy =   0.3665 a.u.   (converged)
  State  5: excitation energy =   0.3835 a.u.   (converged)
  State  6: excitation energy =   0.4107 a.u.   (converged)
  State  7: excitation energy =   0.4352 a.u.   (converged)
  State  8: excitation energy =   0.4570 a.u.   (converged)
  State  9: excitation energy =   0.4605 a.u.   (converged)
 ------------------------------------------------------------


--------------------------------------------------------------------------------
                   State-averaged natural transition orbitals
--------------------------------------------------------------------------------
--------------------------------------------------------------------------------

--------------------------------------------------------------------------------
                             Excited State Summary
--------------------------------------------------------------------------------
--------------------------------------------------------------------------------

  Excited state 1 (singlet, B2)                                    [converged]
  ----------------------------------------------------------------------------
  Term symbol:  1 (1) B2                                    R^2 =  8.59973e-12

  Total energy:                                            -78.7105189206 a.u.
  Excitation energy:                                               2.349903 eV

  Osc. strength:                                                      0.060375
  Trans. dip. moment [a.u.]:           [   0.000003,    1.024060,   -0.000000]
  <i|r^2|0> [a.u.]:                    [   0.000000,   -0.000001,    0.000001]

  Dip. moment [a.u.]:                  [   0.000000,   -0.000003,    0.432986]
  Total dipole [Debye]:                                               1.100540
  <r^2> [a.u.]:                        [  58.396476,   47.183665,   49.358553]
  Total <r^2> [a.u.]:                                               154.938694

  V1^2 = 0.9392, V2^2 = 0.0608

  Important amplitudes:
      occ i      occ j       vir a       vir b          v   
    ---------------------------------------------------------
     5 (A1) A               2 (B2) A                 -0.6820
     5 (A1) A   5 (A1) B    8 (A1) A    2 (B2) B     -0.0529
    ---------------------------------------------------------

  Density matrix analysis:
  ------------------------
  NOs
    Occupation of frontier NOs:
       0.9924   0.9934
    Number of electrons: 18.000000
    Number of unpaired electrons: n_u =  2.42763, n_u,nl =  2.05100
    NO participation ratio (PR_NO):  2.968812
  
  
  Mulliken Population Analysis
  Atom      Charge (e)              h+              e-           Del q
  --------------------------------------------------------------------
   1 C       -0.699724        0.288724       -0.583688       -0.294964
   2 C       -0.699724        0.288724       -0.583688       -0.294964
   3 H        0.093153        0.003666       -0.006658       -0.002992
   4 H        0.093185        0.003666       -0.006656       -0.002990
   5 H        0.093172        0.003666       -0.006657       -0.002991
   6 H        0.093140        0.003666       -0.006658       -0.002993
   7 H        0.026797        0.635704       -0.033809        0.601894
  --------------------------------------------------------------------
  Sum:       -1.000000        1.227815       -1.227815       -0.000000
  
  Multipole moment analysis of the density matrix
    Molecular charge:                      -1.000000
    Number of electrons:                   18.000000
      Center of electronic charge [Ang]: [ -0.000000,   0.000000,  -0.012730]
    Total nuclear charge:                  17.000000
      Center of nuclear charge [Ang]:    [  0.000000,   0.000000,  -0.000000]
    Dipole moment [D]:                     1.100540
      Cartesian components [D]:          [  0.000000,  -0.000007,   1.100540]
    RMS size of the density [Ang]:         1.552495
      Cartesian components [Ang]:        [  0.953143,   0.856763,   0.876194]
  
  Exciton analysis of the difference density matrix
    <r_h> [Ang]:                  [ -0.000000,   0.000000,   1.958731]
    <r_e> [Ang]:                  [ -0.000000,   0.000000,   0.000460]
    |<r_e - r_h>| [Ang]:            1.958271
    Hole size [Ang]:                2.049812
      Cartesian components [Ang]: [  1.022500,   0.971566,   1.487374]
    Electron size [Ang]:            3.171324
      Cartesian components [Ang]: [  1.511005,   2.359415,   1.485706]

  Transition density matrix analysis:
  -----------------------------------
  
  CT numbers (Mulliken)
    omega =     0.9268
    <Phe> =    -0.0050
  
  Exciton analysis of the transition density matrix
    Trans. dipole moment [D]:             1.301450
      Cartesian components [D]:         [  0.000004,   1.301450,  -0.000000]
    <r_h> [Ang]:                        [ -0.000000,   0.000000,   2.489850]
    <r_e> [Ang]:                        [ -0.000000,   0.000000,  -0.170392]
    |<r_e - r_h>| [Ang]:                  2.660241
    Hole size [Ang]:                      1.504125
      Cartesian components [Ang]:       [  0.811108,   0.787332,   0.992272]
    Electron size [Ang]:                  3.350206
      Cartesian components [Ang]:       [  1.569580,   2.570551,   1.467163]
    RMS electron-hole separation [Ang]:   4.533614
      Cartesian components [Ang]:       [  1.764549,   2.688018,   3.196027]
    Covariance(r_h, r_e) [Ang^2]:         0.004748
    Correlation coefficient:              0.000942
    Center-of-mass size [Ang]:            1.836829
      Cartesian components [Ang]:       [  0.884494,   1.344415,   0.885528]

  Decomposition into state-averaged NTOs
    H- 0 -> L+ 0: -0.6764 ( 91.5%)
                   omega =  92.7%
  ----------------------------------------------------------------------------


  Excited state 2 (singlet, B2)                                    [converged]
  ----------------------------------------------------------------------------
  Term symbol:  2 (1) B2                                    R^2 =  6.62689e-11

  Total energy:                                            -78.5309919190 a.u.
  Excitation energy:                                               7.235081 eV

  Osc. strength:                                                      0.000099
  Trans. dip. moment [a.u.]:           [   0.000005,   -0.023692,    0.000000]
  <i|r^2|0> [a.u.]:                    [   0.000000,    0.000000,   -0.000000]

  Dip. moment [a.u.]:                  [   0.000000,   -0.000002,   -4.005178]
  Total dipole [Debye]:                                              10.180148
  <r^2> [a.u.]:                        [  57.597253,   45.479476,   67.830733]
  Total <r^2> [a.u.]:                                               170.907461

  V1^2 = 0.9488, V2^2 = 0.0512

  Important amplitudes:
      occ i      occ j       vir a       vir b          v   
    ---------------------------------------------------------
     4 (A1) A               2 (B2) A                 -0.6645
     4 (A1) A               3 (B2) A                  0.1192
    ---------------------------------------------------------

  Density matrix analysis:
  ------------------------
  NOs
    Occupation of frontier NOs:
       0.9685   1.0087
    Number of electrons: 18.000000
    Number of unpaired electrons: n_u =  2.39083, n_u,nl =  2.04117
    NO participation ratio (PR_NO):  2.958861
  
  
  Mulliken Population Analysis
  Atom      Charge (e)              h+              e-           Del q
  --------------------------------------------------------------------
   1 C       -0.496254        0.512227       -0.603721       -0.091494
   2 C       -0.496254        0.512227       -0.603721       -0.091494
   3 H        0.132964        0.079872       -0.043053        0.036819
   4 H        0.132995        0.079871       -0.043052        0.036820
   5 H        0.132985        0.079872       -0.043051        0.036821
   6 H        0.132954        0.079872       -0.043052        0.036821
   7 H       -0.539390        0.044124       -0.008417        0.035707
  --------------------------------------------------------------------
  Sum:       -1.000000        1.388066       -1.388066       -0.000000
  
  Multipole moment analysis of the density matrix
    Molecular charge:                      -1.000000
    Number of electrons:                   18.000000
      Center of electronic charge [Ang]: [ -0.000000,   0.000000,   0.117747]
    Total nuclear charge:                  17.000000
      Center of nuclear charge [Ang]:    [  0.000000,   0.000000,  -0.000000]
    Dipole moment [D]:                     10.180145
      Cartesian components [D]:          [  0.000000,  -0.000006, -10.180145]
    RMS size of the density [Ang]:         1.626335
      Cartesian components [Ang]:        [  0.946598,   0.841148,   1.020484]
  
  Exciton analysis of the difference density matrix
    <r_h> [Ang]:                  [  0.000000,   0.000000,  -0.109338]
    <r_e> [Ang]:                  [ -0.000000,   0.000000,  -0.149552]
    |<r_e - r_h>| [Ang]:            0.040214
    Hole size [Ang]:                1.701868
      Cartesian components [Ang]: [  1.021418,   0.803519,   1.098826]
    Electron size [Ang]:            2.809509
      Cartesian components [Ang]: [  1.405989,   2.095478,   1.235114]

  Transition density matrix analysis:
  -----------------------------------
  
  CT numbers (Mulliken)
    omega =     0.9173
    <Phe> =    -0.0035
  
  Exciton analysis of the transition density matrix
    Trans. dipole moment [D]:             0.030110
      Cartesian components [D]:         [  0.000007,  -0.030110,   0.000000]
    <r_h> [Ang]:                        [ -0.000000,   0.000000,  -0.124923]
    <r_e> [Ang]:                        [ -0.000000,   0.000000,  -0.170470]
    |<r_e - r_h>| [Ang]:                  0.045547
    Hole size [Ang]:                      1.383231
      Cartesian components [Ang]:       [  0.767449,   0.535282,   1.018736]
    Electron size [Ang]:                  3.183191
      Cartesian components [Ang]:       [  1.545071,   2.425506,   1.364692]
    RMS electron-hole separation [Ang]:   3.467658
      Cartesian components [Ang]:       [  1.719981,   2.482800,   1.703532]
    Covariance(r_h, r_e) [Ang^2]:         0.011728
    Correlation coefficient:              0.002664
    Center-of-mass size [Ang]:            1.737059
      Cartesian components [Ang]:       [  0.865174,   1.242469,   0.851538]

  Decomposition into state-averaged NTOs
    H- 2 -> L+ 0: -0.6678 ( 89.2%)
    H- 0 -> L+ 1:  0.1050 (  2.2%)
                   omega =  91.7%
  ----------------------------------------------------------------------------


  Excited state 3 (singlet, B2)                                    [converged]
  ----------------------------------------------------------------------------
  Term symbol:  3 (1) B2                                    R^2 =  2.27564e-10

  Total energy:                                            -78.5102995722 a.u.
  Excitation energy:                                               7.798149 eV

  Osc. strength:                                                      0.037962
  Trans. dip. moment [a.u.]:           [   0.000001,   -0.445759,   -0.000001]
  <i|r^2|0> [a.u.]:                    [  -0.000001,   -0.000002,    0.000003]

  Dip. moment [a.u.]:                  [  -0.000000,    0.000000,    0.343744]
  Total dipole [Debye]:                                               0.873709
  <r^2> [a.u.]:                        [  58.176513,   34.318675,   46.683634]
  Total <r^2> [a.u.]:                                               139.178822

  V1^2 = 0.9340, V2^2 = 0.0660

  Important amplitudes:
      occ i      occ j       vir a       vir b          v   
    ---------------------------------------------------------
     5 (A1) A               3 (B2) A                  0.6704
     4 (A1) A               2 (B2) A                 -0.1082
    ---------------------------------------------------------

  Density matrix analysis:
  ------------------------
  NOs
    Occupation of frontier NOs:
       0.9592   1.0147
    Number of electrons: 18.000000
    Number of unpaired electrons: n_u =  2.46569, n_u,nl =  2.07192
    NO participation ratio (PR_NO):  3.181453
  
  
  Mulliken Population Analysis
  Atom      Charge (e)              h+              e-           Del q
  --------------------------------------------------------------------
   1 C       -0.227932        0.311724       -0.134896        0.176827
   2 C       -0.227932        0.311724       -0.134896        0.176827
   3 H       -0.142983       -0.007936       -0.231192       -0.239129
   4 H       -0.142956       -0.007936       -0.231195       -0.239131
   5 H       -0.142970       -0.007937       -0.231196       -0.239133
   6 H       -0.142997       -0.007937       -0.231194       -0.239131
   7 H        0.027771        0.626241       -0.023372        0.602869
  --------------------------------------------------------------------
  Sum:       -1.000000        1.217943       -1.217943       -0.000000
  
  Multipole moment analysis of the density matrix
    Molecular charge:                      -1.000000
    Number of electrons:                   18.000000
      Center of electronic charge [Ang]: [  0.000000,   0.000000,  -0.010106]
    Total nuclear charge:                  17.000000
      Center of nuclear charge [Ang]:    [  0.000000,   0.000000,  -0.000000]
    Dipole moment [D]:                     0.873709
      Cartesian components [D]:          [ -0.000000,   0.000000,   0.873709]
    RMS size of the density [Ang]:         1.471435
      Cartesian components [Ang]:        [  0.951346,   0.730685,   0.852151]
  
  Exciton analysis of the difference density matrix
    <r_h> [Ang]:                  [ -0.000000,   0.000000,   1.917622]
    <r_e> [Ang]:                  [ -0.000000,  -0.000001,  -0.017748]
    |<r_e - r_h>| [Ang]:            1.935370
    Hole size [Ang]:                1.974132
      Cartesian components [Ang]: [  0.980392,   0.911111,   1.451173]
    Electron size [Ang]:            2.446622
      Cartesian components [Ang]: [  1.469100,   1.591409,   1.138034]

  Transition density matrix analysis:
  -----------------------------------
  
  CT numbers (Mulliken)
    omega =     0.9181
    <Phe> =    -0.0025
  
  Exciton analysis of the transition density matrix
    Trans. dipole moment [D]:             0.566503
      Cartesian components [D]:         [  0.000002,  -0.566503,  -0.000001]
    <r_h> [Ang]:                        [ -0.000000,   0.000000,   2.399261]
    <r_e> [Ang]:                        [ -0.000000,  -0.000002,  -0.168455]
    |<r_e - r_h>| [Ang]:                  2.567716
    Hole size [Ang]:                      1.576388
      Cartesian components [Ang]:       [  0.807213,   0.778106,   1.108133]
    Electron size [Ang]:                  2.483311
      Cartesian components [Ang]:       [  1.491645,   1.678605,   1.060242]
    RMS electron-hole separation [Ang]:   3.901959
      Cartesian components [Ang]:       [  1.691459,   1.849199,   2.990771]
    Covariance(r_h, r_e) [Ang^2]:         0.009856
    Correlation coefficient:              0.002518
    Center-of-mass size [Ang]:            1.472374
      Cartesian components [Ang]:       [  0.850317,   0.925579,   0.766909]

  Decomposition into state-averaged NTOs
    H- 0 -> L+ 1: -0.6661 ( 88.7%)
    H- 2 -> L+ 0: -0.1059 (  2.2%)
                   omega =  91.8%
  ----------------------------------------------------------------------------


  Excited state 4 (singlet, B2)                                    [converged]
  ----------------------------------------------------------------------------
  Term symbol:  4 (1) B2                                    R^2 =  5.30830e-10

  Total energy:                                            -78.4633297990 a.u.
  Excitation energy:                                               9.076261 eV

  Osc. strength:                                                      0.005656
  Trans. dip. moment [a.u.]:           [  -0.000001,   -0.159490,    0.000000]
  <i|r^2|0> [a.u.]:                    [   0.000001,    0.000001,   -0.000000]

  Dip. moment [a.u.]:                  [  -0.000000,   -0.000003,   -3.240735]
  Total dipole [Debye]:                                               8.237128
  <r^2> [a.u.]:                        [  56.477520,   26.329594,   71.657222]
  Total <r^2> [a.u.]:                                               154.464336

  V1^2 = 0.9480, V2^2 = 0.0520

  Important amplitudes:
      occ i      occ j       vir a       vir b          v   
    ---------------------------------------------------------
     1 (A2) A               3 (B1) A                  0.3997
     1 (A2) A               4 (B1) A                 -0.3790
    ---------------------------------------------------------

  Density matrix analysis:
  ------------------------
  NOs
    Occupation of frontier NOs:
       0.9944   1.0157
    Number of electrons: 18.000000
    Number of unpaired electrons: n_u =  2.44303, n_u,nl =  2.05309
    NO participation ratio (PR_NO):  3.026856
  
  
  Mulliken Population Analysis
  Atom      Charge (e)              h+              e-           Del q
  --------------------------------------------------------------------
   1 C       -0.685482        0.260577       -0.541300       -0.280723
   2 C       -0.685482        0.260577       -0.541300       -0.280723
   3 H        0.234241        0.140541       -0.002444        0.138096
   4 H        0.234272        0.140541       -0.002444        0.138097
   5 H        0.234265        0.140545       -0.002443        0.138102
   6 H        0.234234        0.140544       -0.002443        0.138101
   7 H       -0.566048        0.008981        0.000069        0.009050
  --------------------------------------------------------------------
  Sum:       -1.000000        1.092306       -1.092306       -0.000000
  
  Multipole moment analysis of the density matrix
    Molecular charge:                      -1.000000
    Number of electrons:                   18.000000
      Center of electronic charge [Ang]: [  0.000000,   0.000000,   0.095273]
    Total nuclear charge:                  17.000000
      Center of nuclear charge [Ang]:    [  0.000000,   0.000000,  -0.000000]
    Dipole moment [D]:                     8.237125
      Cartesian components [D]:          [ -0.000000,  -0.000007,  -8.237125]
    RMS size of the density [Ang]:         1.547238
      Cartesian components [Ang]:        [  0.937352,   0.640010,   1.051525]
  
  Exciton analysis of the difference density matrix
    <r_h> [Ang]:                  [  0.000000,   0.000001,  -0.183354]
    <r_e> [Ang]:                  [  0.000000,   0.000001,  -0.604797]
    |<r_e - r_h>| [Ang]:            0.421443
    Hole size [Ang]:                1.593357
      Cartesian components [Ang]: [  1.138897,   0.944989,   0.590505]
    Electron size [Ang]:            2.086725
      Cartesian components [Ang]: [  1.481992,   0.862069,   1.189519]

  Transition density matrix analysis:
  -----------------------------------
  
  CT numbers (Mulliken)
    omega =     0.9196
    <Phe> =    -0.0107
  
  Exciton analysis of the transition density matrix
    Trans. dipole moment [D]:             0.202691
      Cartesian components [D]:         [ -0.000001,  -0.202691,   0.000001]
    <r_h> [Ang]:                        [ -0.000000,   0.000001,  -0.171451]
    <r_e> [Ang]:                        [  0.000000,   0.000001,  -0.654115]
    |<r_e - r_h>| [Ang]:                  0.482664
    Hole size [Ang]:                      1.525058
      Cartesian components [Ang]:       [  1.123312,   0.939074,   0.426747]
    Electron size [Ang]:                  2.118434
      Cartesian components [Ang]:       [  1.516569,   0.860473,   1.203066]
    RMS electron-hole separation [Ang]:   2.619186
      Cartesian components [Ang]:       [  1.843293,   1.266456,   1.363266]
    Covariance(r_h, r_e) [Ang^2]:         0.093198
    Correlation coefficient:              0.028847
    Center-of-mass size [Ang]:            1.322872
      Cartesian components [Ang]:       [  0.965128,   0.640437,   0.639029]

  Decomposition into state-averaged NTOs
    H- 1 -> L+ 3:  0.6552 ( 85.9%)
    H- 1 -> L+ 4:  0.1643 (  5.4%)
                   omega =  92.0%
  ----------------------------------------------------------------------------


  Excited state 5 (singlet, B2)                                    [converged]
  ----------------------------------------------------------------------------
  Term symbol:  5 (1) B2                                    R^2 =  2.14741e-09

  Total energy:                                            -78.4303601481 a.u.
  Excitation energy:                                               9.973411 eV

  Osc. strength:                                                      0.093566
  Trans. dip. moment [a.u.]:           [   0.000002,   -0.618810,   -0.000000]
  <i|r^2|0> [a.u.]:                    [   0.000001,    0.000001,   -0.000001]

  Dip. moment [a.u.]:                  [  -0.000000,   -0.000000,   -3.827515]
  Total dipole [Debye]:                                               9.728576
  <r^2> [a.u.]:                        [  72.715890,   30.278840,   70.805809]
  Total <r^2> [a.u.]:                                               173.800540

  V1^2 = 0.9381, V2^2 = 0.0619

  Important amplitudes:
      occ i      occ j       vir a       vir b          v   
    ---------------------------------------------------------
     1 (A2) A               3 (B1) A                  0.5264
     1 (A2) A               4 (B1) A                  0.3595
    ---------------------------------------------------------

  Density matrix analysis:
  ------------------------
  NOs
    Occupation of frontier NOs:
       0.9669   1.0386
    Number of electrons: 18.000000
    Number of unpaired electrons: n_u =  2.48707, n_u,nl =  2.07946
    NO participation ratio (PR_NO):  3.287352
  
  
  Mulliken Population Analysis
  Atom      Charge (e)              h+              e-           Del q
  --------------------------------------------------------------------
   1 C       -0.711409        0.256137       -0.562786       -0.306649
   2 C       -0.711409        0.256137       -0.562786       -0.306649
   3 H        0.244465        0.182464       -0.034144        0.148320
   4 H        0.244496        0.182465       -0.034144        0.148321
   5 H        0.244489        0.182467       -0.034142        0.148325
   6 H        0.244458        0.182467       -0.034142        0.148325
   7 H       -0.555090        0.024912       -0.004904        0.020007
  --------------------------------------------------------------------
  Sum:       -1.000000        1.267049       -1.267049       -0.000000
  
  Multipole moment analysis of the density matrix
    Molecular charge:                      -1.000000
    Number of electrons:                   18.000000
      Center of electronic charge [Ang]: [  0.000000,   0.000000,   0.112524]
    Total nuclear charge:                  17.000000
      Center of nuclear charge [Ang]:    [  0.000000,   0.000000,  -0.000000]
    Dipole moment [D]:                     9.728573
      Cartesian components [D]:          [ -0.000000,  -0.000000,  -9.728573]
    RMS size of the density [Ang]:         1.640481
      Cartesian components [Ang]:        [  1.063603,   0.686332,   1.043491]
  
  Exciton analysis of the difference density matrix
    <r_h> [Ang]:                  [ -0.000000,   0.000001,  -0.178188]
    <r_e> [Ang]:                  [  0.000000,  -0.000000,  -0.296443]
    |<r_e - r_h>| [Ang]:            0.118254
    Hole size [Ang]:                1.769106
      Cartesian components [Ang]: [  1.207927,   0.997128,   0.822425]
    Electron size [Ang]:            3.032929
      Cartesian components [Ang]: [  2.413111,   1.318297,   1.279706]

  Transition density matrix analysis:
  -----------------------------------
  
  CT numbers (Mulliken)
    omega =     0.9203
    <Phe> =    -0.0070
  
  Exciton analysis of the transition density matrix
    Trans. dipole moment [D]:             0.786429
      Cartesian components [D]:         [  0.000002,  -0.786429,  -0.000000]
    <r_h> [Ang]:                        [ -0.000000,   0.000001,  -0.163716]
    <r_e> [Ang]:                        [  0.000000,  -0.000001,  -0.335667]
    |<r_e - r_h>| [Ang]:                  0.171951
    Hole size [Ang]:                      1.535613
      Cartesian components [Ang]:       [  1.125618,   0.940768,   0.453924]
    Electron size [Ang]:                  3.304054
      Cartesian components [Ang]:       [  2.659675,   1.427006,   1.344081]
    RMS electron-hole separation [Ang]:   3.497303
      Cartesian components [Ang]:       [  2.722528,   1.667797,   1.427382]
    Covariance(r_h, r_e) [Ang^2]:         0.536660
    Correlation coefficient:              0.105772
    Center-of-mass size [Ang]:            1.893951
      Cartesian components [Ang]:       [  1.522302,   0.874819,   0.710167]

  Decomposition into state-averaged NTOs
    H- 1 -> L+ 4:  0.6179 ( 76.4%)
    H- 1 -> L+ 5:  0.2030 (  8.2%)
    H- 1 -> L+ 3: -0.1573 (  4.9%)
                   omega =  92.0%
  ----------------------------------------------------------------------------


  Excited state 6 (singlet, B2)                                    [converged]
  ----------------------------------------------------------------------------
  Term symbol:  6 (1) B2                                    R^2 =  4.78838e-10

  Total energy:                                            -78.4133928110 a.u.
  Excitation energy:                                              10.435116 eV

  Osc. strength:                                                      0.001990
  Trans. dip. moment [a.u.]:           [  -0.000002,   -0.088229,   -0.000001]
  <i|r^2|0> [a.u.]:                    [  -0.000002,   -0.000001,   -0.000001]

  Dip. moment [a.u.]:                  [  -0.000000,   -0.000002,    0.373776]
  Total dipole [Debye]:                                               0.950045
  <r^2> [a.u.]:                        [  55.038286,   37.841766,   47.604199]
  Total <r^2> [a.u.]:                                               140.484251

  V1^2 = 0.9387, V2^2 = 0.0613

  Important amplitudes:
      occ i      occ j       vir a       vir b          v   
    ---------------------------------------------------------
     5 (A1) A               4 (B2) A                  0.6791
     5 (A1) A   5 (A1) B    8 (A1) A    4 (B2) B      0.0495
    ---------------------------------------------------------

  Density matrix analysis:
  ------------------------
  NOs
    Occupation of frontier NOs:
       0.9751   0.9985
    Number of electrons: 18.000000
    Number of unpaired electrons: n_u =  2.45771, n_u,nl =  2.05670
    NO participation ratio (PR_NO):  3.077104
  
  
  Mulliken Population Analysis
  Atom      Charge (e)              h+              e-           Del q
  --------------------------------------------------------------------
   1 C       -1.065132        0.296462       -0.956835       -0.660373
   2 C       -1.065132        0.296462       -0.956835       -0.660373
   3 H        0.274375       -0.005809        0.184039        0.178230
   4 H        0.274403       -0.005809        0.184037        0.178228
   5 H        0.274390       -0.005809        0.184036        0.178227
   6 H        0.274362       -0.005809        0.184038        0.178229
   7 H        0.032735        0.633950       -0.026118        0.607832
  --------------------------------------------------------------------
  Sum:       -1.000000        1.203637       -1.203637       -0.000000
  
  Multipole moment analysis of the density matrix
    Molecular charge:                      -1.000000
    Number of electrons:                   18.000000
      Center of electronic charge [Ang]: [  0.000000,   0.000000,  -0.010989]
    Total nuclear charge:                  17.000000
      Center of nuclear charge [Ang]:    [  0.000000,   0.000000,  -0.000000]
    Dipole moment [D]:                     0.950044
      Cartesian components [D]:          [ -0.000000,  -0.000004,   0.950044]
    RMS size of the density [Ang]:         1.478314
      Cartesian components [Ang]:        [  0.925331,   0.767274,   0.860502]
  
  Exciton analysis of the difference density matrix
    <r_h> [Ang]:                  [ -0.000000,   0.000000,   1.958098]
    <r_e> [Ang]:                  [  0.000000,  -0.000000,  -0.013479]
    |<r_e - r_h>| [Ang]:            1.971577
    Hole size [Ang]:                1.983762
      Cartesian components [Ang]: [  0.975070,   0.934716,   1.452879]
    Electron size [Ang]:            2.542817
      Cartesian components [Ang]: [  1.196646,   1.848254,   1.271972]

  Transition density matrix analysis:
  -----------------------------------
  
  CT numbers (Mulliken)
    omega =     0.9254
    <Phe> =    -0.0008
  
  Exciton analysis of the transition density matrix
    Trans. dipole moment [D]:             0.112128
      Cartesian components [D]:         [ -0.000003,  -0.112128,  -0.000001]
    <r_h> [Ang]:                        [ -0.000000,   0.000000,   2.433411]
    <r_e> [Ang]:                        [  0.000000,  -0.000000,  -0.167767]
    |<r_e - r_h>| [Ang]:                  2.601178
    Hole size [Ang]:                      1.552383
      Cartesian components [Ang]:       [  0.811500,   0.783482,   1.066545]
    Electron size [Ang]:                  2.592243
      Cartesian components [Ang]:       [  1.156733,   1.972276,   1.221399]
    RMS electron-hole separation [Ang]:   3.985604
      Cartesian components [Ang]:       [  1.409101,   2.121574,   3.065680]
    Covariance(r_h, r_e) [Ang^2]:         0.005354
    Correlation coefficient:              0.001331
    Center-of-mass size [Ang]:            1.511648
      Cartesian components [Ang]:       [  0.708442,   1.061410,   0.810309]

  Decomposition into state-averaged NTOs
    H- 0 -> L+ 2: -0.6757 ( 91.3%)
                   omega =  92.5%
  ----------------------------------------------------------------------------


  Excited state 7 (singlet, B2)                                    [converged]
  ----------------------------------------------------------------------------
  Term symbol:  7 (1) B2                                    R^2 =  3.34272e-09

  Total energy:                                            -78.3862017735 a.u.
  Excitation energy:                                              11.175022 eV

  Osc. strength:                                                      0.090936
  Trans. dip. moment [a.u.]:           [  -0.000004,   -0.576321,   -0.000000]
  <i|r^2|0> [a.u.]:                    [   0.000003,    0.000003,    0.000001]

  Dip. moment [a.u.]:                  [   0.000000,   -0.000003,   -4.121807]
  Total dipole [Debye]:                                              10.476591
  <r^2> [a.u.]:                        [  55.943957,   45.374611,   70.480944]
  Total <r^2> [a.u.]:                                               171.799511

  V1^2 = 0.9273, V2^2 = 0.0727

  Important amplitudes:
      occ i      occ j       vir a       vir b          v   
    ---------------------------------------------------------
     3 (A1) A               2 (B2) A                  0.6608
     3 (A1) A               3 (B2) A                 -0.1119
    ---------------------------------------------------------

  Density matrix analysis:
  ------------------------
  NOs
    Occupation of frontier NOs:
       0.9770   1.0189
    Number of electrons: 18.000000
    Number of unpaired electrons: n_u =  2.47169, n_u,nl =  2.06663
    NO participation ratio (PR_NO):  3.157072
  
  
  Mulliken Population Analysis
  Atom      Charge (e)              h+              e-           Del q
  --------------------------------------------------------------------
   1 C       -0.605278        0.424546       -0.625064       -0.200518
   2 C       -0.605278        0.424546       -0.625064       -0.200518
   3 H        0.191034        0.142542       -0.047653        0.094889
   4 H        0.191065        0.142541       -0.047652        0.094889
   5 H        0.191055        0.142543       -0.047652        0.094892
   6 H        0.191025        0.142544       -0.047653        0.094891
   7 H       -0.553622        0.026734       -0.005258        0.021475
  --------------------------------------------------------------------
  Sum:       -1.000000        1.445995       -1.445995       -0.000000
  
  Multipole moment analysis of the density matrix
    Molecular charge:                      -1.000000
    Number of electrons:                   18.000000
      Center of electronic charge [Ang]: [ -0.000000,   0.000000,   0.121176]
    Total nuclear charge:                  17.000000
      Center of nuclear charge [Ang]:    [  0.000000,   0.000000,  -0.000000]
    Dipole moment [D]:                     10.476588
      Cartesian components [D]:          [  0.000000,  -0.000007, -10.476588]
    RMS size of the density [Ang]:         1.630345
      Cartesian components [Ang]:        [  0.932914,   0.840178,   1.040095]
  
  Exciton analysis of the difference density matrix
    <r_h> [Ang]:                  [  0.000000,   0.000000,  -0.181078]
    <r_e> [Ang]:                  [ -0.000000,   0.000001,  -0.176999]
    |<r_e - r_h>| [Ang]:            0.004079
    Hole size [Ang]:                1.682205
      Cartesian components [Ang]: [  1.177896,   0.855049,   0.843364]
    Electron size [Ang]:            2.794783
      Cartesian components [Ang]: [  1.401206,   2.075124,   1.241490]

  Transition density matrix analysis:
  -----------------------------------
  
  CT numbers (Mulliken)
    omega =     0.9089
    <Phe> =    -0.0043
  
  Exciton analysis of the transition density matrix
    Trans. dipole moment [D]:             0.732431
      Cartesian components [D]:         [ -0.000006,  -0.732431,  -0.000000]
    <r_h> [Ang]:                        [  0.000000,   0.000000,  -0.164678]
    <r_e> [Ang]:                        [ -0.000000,   0.000000,  -0.178144]
    |<r_e - r_h>| [Ang]:                  0.013467
    Hole size [Ang]:                      1.344691
      Cartesian components [Ang]:       [  1.105147,   0.619860,   0.450130]
    Electron size [Ang]:                  3.213657
      Cartesian components [Ang]:       [  1.572740,   2.440481,   1.377727]
    RMS electron-hole separation [Ang]:   3.443900
      Cartesian components [Ang]:       [  1.864253,   2.506836,   1.449407]
    Covariance(r_h, r_e) [Ang^2]:         0.137757
    Correlation coefficient:              0.031878
    Center-of-mass size [Ang]:            1.761483
      Cartesian components [Ang]:       [  0.989227,   1.264527,   0.724723]

  Decomposition into state-averaged NTOs
    H- 3 -> L+ 0:  0.6679 ( 89.2%)
                   omega =  90.9%
  ----------------------------------------------------------------------------


  Excited state 8 (singlet, B2)                                    [converged]
  ----------------------------------------------------------------------------
  Term symbol:  8 (1) B2                                    R^2 =  1.54449e-09

  Total energy:                                            -78.3616783752 a.u.
  Excitation energy:                                              11.842337 eV

  Osc. strength:                                                      0.000523
  Trans. dip. moment [a.u.]:           [  -0.000001,    0.042444,    0.000001]
  <i|r^2|0> [a.u.]:                    [  -0.000001,   -0.000000,    0.000002]

  Dip. moment [a.u.]:                  [  -0.000000,   -0.000000,   -4.033611]
  Total dipole [Debye]:                                              10.252419
  <r^2> [a.u.]:                        [  57.167430,   35.082169,   66.613028]
  Total <r^2> [a.u.]:                                               158.862627

  V1^2 = 0.9559, V2^2 = 0.0441

  Important amplitudes:
      occ i      occ j       vir a       vir b          v   
    ---------------------------------------------------------
     4 (A1) A               3 (B2) A                  0.6667
     4 (A1) A               2 (B2) A                  0.1122
    ---------------------------------------------------------

  Density matrix analysis:
  ------------------------
  NOs
    Occupation of frontier NOs:
       0.9626   1.0056
    Number of electrons: 18.000000
    Number of unpaired electrons: n_u =  2.39521, n_u,nl =  2.03886
    NO participation ratio (PR_NO):  2.978489
  
  
  Mulliken Population Analysis
  Atom      Charge (e)              h+              e-           Del q
  --------------------------------------------------------------------
   1 C       -0.153965        0.545388       -0.294593        0.250795
   2 C       -0.153965        0.545388       -0.294593        0.250795
   3 H       -0.034957        0.030988       -0.162089       -0.131102
   4 H       -0.034930        0.030987       -0.162092       -0.131105
   5 H       -0.034941        0.030987       -0.162092       -0.131104
   6 H       -0.034968        0.030988       -0.162089       -0.131101
   7 H       -0.552274        0.033136       -0.010313        0.022823
  --------------------------------------------------------------------
  Sum:       -1.000000        1.247861       -1.247861       -0.000000
  
  Multipole moment analysis of the density matrix
    Molecular charge:                      -1.000000
    Number of electrons:                   18.000000
      Center of electronic charge [Ang]: [  0.000000,   0.000000,   0.118583]
    Total nuclear charge:                  17.000000
      Center of nuclear charge [Ang]:    [  0.000000,   0.000000,  -0.000000]
    Dipole moment [D]:                     10.252416
      Cartesian components [D]:          [ -0.000000,  -0.000001, -10.252416]
    RMS size of the density [Ang]:         1.567605
      Cartesian components [Ang]:        [  0.943060,   0.738768,   1.011062]
  
  Exciton analysis of the difference density matrix
    <r_h> [Ang]:                  [  0.000000,   0.000001,  -0.118729]
    <r_e> [Ang]:                  [  0.000000,  -0.000000,  -0.151404]
    |<r_e - r_h>| [Ang]:            0.032674
    Hole size [Ang]:                1.617154
      Cartesian components [Ang]: [  0.955980,   0.766804,   1.055131]
    Electron size [Ang]:            2.339535
      Cartesian components [Ang]: [  1.362291,   1.555944,   1.093902]

  Transition density matrix analysis:
  -----------------------------------
  
  CT numbers (Mulliken)
    omega =     0.9230
    <Phe> =    -0.0105
  
  Exciton analysis of the transition density matrix
    Trans. dipole moment [D]:             0.053941
      Cartesian components [D]:         [ -0.000001,   0.053941,   0.000001]
    <r_h> [Ang]:                        [ -0.000000,   0.000000,  -0.134381]
    <r_e> [Ang]:                        [  0.000000,  -0.000001,  -0.176669]
    |<r_e - r_h>| [Ang]:                  0.042288
    Hole size [Ang]:                      1.364026
      Cartesian components [Ang]:       [  0.776100,   0.544535,   0.980672]
    Electron size [Ang]:                  2.498156
      Cartesian components [Ang]:       [  1.455154,   1.687590,   1.129314]
    RMS electron-hole separation [Ang]:   2.833128
      Cartesian components [Ang]:       [  1.628622,   1.771717,   1.495067]
    Covariance(r_h, r_e) [Ang^2]:         0.038261
    Correlation coefficient:              0.011228
    Center-of-mass size [Ang]:            1.429849
      Cartesian components [Ang]:       [  0.834746,   0.887408,   0.748448]

  Decomposition into state-averaged NTOs
    H- 2 -> L+ 1: -0.6707 ( 90.0%)
    H- 1 -> L+ 5: -0.0747 (  1.1%)
                   omega =  92.3%
  ----------------------------------------------------------------------------


  Excited state 9 (singlet, B2)                                    [converged]
  ----------------------------------------------------------------------------
  Term symbol:  9 (1) B2                                    R^2 =  3.64812e-08

  Total energy:                                            -78.3398453721 a.u.
  Excitation energy:                                              12.436444 eV

  Osc. strength:                                                      0.000618
  Trans. dip. moment [a.u.]:           [   0.000002,    0.045053,    0.000000]
  <i|r^2|0> [a.u.]:                    [   0.000000,   -0.000001,    0.000000]

  Dip. moment [a.u.]:                  [  -0.000000,   -0.000003,   -3.162313]
  Total dipole [Debye]:                                               8.037798
  <r^2> [a.u.]:                        [  68.727181,   29.719923,   80.522450]
  Total <r^2> [a.u.]:                                               178.969554

  V1^2 = 0.9365, V2^2 = 0.0635

  Important amplitudes:
      occ i      occ j       vir a       vir b          v   
    ---------------------------------------------------------
     1 (A2) A               4 (B1) A                  0.4136
     1 (A2) A               6 (B1) A                 -0.3948
    ---------------------------------------------------------

  Density matrix analysis:
  ------------------------
  NOs
    Occupation of frontier NOs:
       0.9602   1.0450
    Number of electrons: 18.000000
    Number of unpaired electrons: n_u =  2.48938, n_u,nl =  2.08670
    NO participation ratio (PR_NO):  3.333360
  
  
  Mulliken Population Analysis
  Atom      Charge (e)              h+              e-           Del q
  --------------------------------------------------------------------
   1 C       -0.736649        0.281048       -0.612937       -0.331890
   2 C       -0.736649        0.281048       -0.612937       -0.331890
   3 H        0.256400        0.172514       -0.012259        0.160255
   4 H        0.256430        0.172514       -0.012259        0.160255
   5 H        0.256422        0.172517       -0.012258        0.160259
   6 H        0.256392        0.172517       -0.012258        0.160259
   7 H       -0.552346        0.027656       -0.004904        0.022751
  --------------------------------------------------------------------
  Sum:       -1.000000        1.279813       -1.279813       -0.000000
  
  Multipole moment analysis of the density matrix
    Molecular charge:                      -1.000000
    Number of electrons:                   18.000000
      Center of electronic charge [Ang]: [  0.000000,   0.000000,   0.092968]
    Total nuclear charge:                  17.000000
      Center of nuclear charge [Ang]:    [  0.000000,   0.000000,  -0.000000]
    Dipole moment [D]:                     8.037796
      Cartesian components [D]:          [ -0.000000,  -0.000007,  -8.037796]
    RMS size of the density [Ang]:         1.666017
      Cartesian components [Ang]:        [  1.034020,   0.679968,   1.115373]
  
  Exciton analysis of the difference density matrix
    <r_h> [Ang]:                  [ -0.000000,   0.000001,  -0.170022]
    <r_e> [Ang]:                  [  0.000000,   0.000001,  -0.562145]
    |<r_e - r_h>| [Ang]:            0.392123
    Hole size [Ang]:                1.774409
      Cartesian components [Ang]: [  1.202825,   1.000889,   0.836637]
    Electron size [Ang]:            3.171181
      Cartesian components [Ang]: [  2.212359,   1.271105,   1.883122]

  Transition density matrix analysis:
  -----------------------------------
  
  CT numbers (Mulliken)
    omega =     0.9188
    <Phe> =    -0.0042
  
  Exciton analysis of the transition density matrix
    Trans. dipole moment [D]:             0.057256
      Cartesian components [D]:         [  0.000002,   0.057256,   0.000000]
    <r_h> [Ang]:                        [ -0.000000,   0.000001,  -0.173081]
    <r_e> [Ang]:                        [  0.000000,   0.000000,  -0.684605]
    |<r_e - r_h>| [Ang]:                  0.511524
    Hole size [Ang]:                      1.524710
      Cartesian components [Ang]:       [  1.121044,   0.938465,   0.432765]
    Electron size [Ang]:                  3.465269
      Cartesian components [Ang]:       [  2.438262,   1.367313,   2.047785]
    RMS electron-hole separation [Ang]:   3.739748
      Cartesian components [Ang]:       [  2.570142,   1.655393,   2.154011]
    Covariance(r_h, r_e) [Ang^2]:         0.304382
    Correlation coefficient:              0.057610
    Center-of-mass size [Ang]:            1.932718
      Cartesian components [Ang]:       [  1.396253,   0.830691,   1.046818]

  Decomposition into state-averaged NTOs
    H- 1 -> L+ 5: -0.6357 ( 80.8%)
    H- 1 -> L+ 4:  0.1972 (  7.8%)
    H- 2 -> L+ 1:  0.0886 (  1.6%)
    H- 4 -> L+ 6: -0.0729 (  1.1%)
                   omega =  91.9%
  ----------------------------------------------------------------------------


  Excited state 10 (singlet, B2)                                    [converged]
  ----------------------------------------------------------------------------
  Term symbol:  10 (1) B2                                   R^2 =  1.00888e-06

  Total energy:                                            -78.3363762679 a.u.
  Excitation energy:                                              12.530843 eV

  Osc. strength:                                                      0.000002
  Trans. dip. moment [a.u.]:           [   0.000000,    0.002749,   -0.000000]
  <i|r^2|0> [a.u.]:                    [  -0.000000,   -0.000000,    0.000000]

  Dip. moment [a.u.]:                  [   0.000000,   -0.000003,    8.401287]
  Total dipole [Debye]:                                              21.353945
  <r^2> [a.u.]:                        [  82.571220,   55.510011,   37.502686]
  Total <r^2> [a.u.]:                                               175.583917

  V1^2 = 0.0038, V2^2 = 0.9962

  Important amplitudes:
      occ i      occ j       vir a       vir b          v   
    ---------------------------------------------------------
     5 (A1) A   5 (A1) B    6 (A1) A    2 (B2) B      0.3523
     5 (A1) A               2 (B2) A                 -0.0389
    ---------------------------------------------------------

  Density matrix analysis:
  ------------------------
  NOs
    Occupation of frontier NOs:
       1.0016   1.0039
    Number of electrons: 18.000000
    Number of unpaired electrons: n_u =  2.40518, n_u,nl =  2.05998
    NO participation ratio (PR_NO):  2.886094
  
  
  Mulliken Population Analysis
  Atom      Charge (e)              h+              e-           Del q
  --------------------------------------------------------------------
   1 C       -1.186744        0.248965       -1.030949       -0.781984
   2 C       -1.186744        0.248965       -1.030949       -0.781984
   3 H        0.092946       -0.018118        0.014919       -0.003199
   4 H        0.092977       -0.018118        0.014920       -0.003198
   5 H        0.092965       -0.018118        0.014920       -0.003198
   6 H        0.092934       -0.018118        0.014919       -0.003199
   7 H        1.001664        1.573200        0.003563        1.576762
  --------------------------------------------------------------------
  Sum:       -1.000000        1.998658       -1.998658        0.000000
  
  Multipole moment analysis of the density matrix
    Molecular charge:                      -1.000000
    Number of electrons:                   18.000000
      Center of electronic charge [Ang]: [ -0.000000,   0.000000,  -0.246987]
    Total nuclear charge:                  17.000000
      Center of nuclear charge [Ang]:    [  0.000000,   0.000000,  -0.000000]
    Dipole moment [D]:                     21.353939
      Cartesian components [D]:          [  0.000000,  -0.000007,  21.353939]
    RMS size of the density [Ang]:         1.634191
      Cartesian components [Ang]:        [  1.133390,   0.929288,   0.722794]
  
  Exciton analysis of the difference density matrix
    <r_h> [Ang]:                  [  0.000000,   0.000000,   2.523467]
    <r_e> [Ang]:                  [ -0.000000,   0.000000,  -0.789275]
    |<r_e - r_h>| [Ang]:            3.312742
    Hole size [Ang]:                1.452796
      Cartesian components [Ang]: [  0.771065,   0.764095,   0.965523]
    Electron size [Ang]:            3.462425
      Cartesian components [Ang]: [  2.177596,   2.142514,   1.629754]

  Transition density matrix analysis:
  -----------------------------------
  
  CT numbers (Mulliken)
    omega =     0.0039
    <Phe> =     0.0078
  
  Exciton analysis of the transition density matrix
    Trans. dipole moment [D]:             0.003493
      Cartesian components [D]:         [  0.000000,   0.003493,  -0.000000]
    <r_h> [Ang]:                        [  0.000000,   0.000000,   2.408582]
    <r_e> [Ang]:                        [ -0.000000,   0.000000,  -0.210644]
    |<r_e - r_h>| [Ang]:                  2.619226
    Hole size [Ang]:                      1.502760
      Cartesian components [Ang]:       [  0.681688,   0.702812,   1.140020]
    Electron size [Ang]:                  3.533647
      Cartesian components [Ang]:       [  1.673767,   2.662099,   1.611954]
    RMS electron-hole separation [Ang]:   4.636184
      Cartesian components [Ang]:       [  1.795062,   2.778711,   3.248188]
    Covariance(r_h, r_e) [Ang^2]:         0.055546
    Correlation coefficient:              0.010460
    Center-of-mass size [Ang]:            1.927177
      Cartesian components [Ang]:       [  0.909690,   1.363836,   1.013127]

  Decomposition into state-averaged NTOs
                   omega =   0.4%
  ----------------------------------------------------------------------------


--------------------------------------------------------------------------------
  Time of ADC calculation:  CPU 250.70 s  wall 60.78 s
================================================================================
 
 --------------------------------------------------------------
             Orbital Energies (a.u.) and Symmetries
 --------------------------------------------------------------
 
 Alpha MOs, Restricted
 -- Occupied --                  
-11.069 -11.067  -0.871  -0.616  -0.493  -0.400  -0.351  -0.205
  1 A1    1 B1    2 A1    2 B1    1 B2    3 A1    1 A2    4 A1                 
 -0.004
  5 A1                                                                         
 -- Virtual --                   
  0.214   0.217   0.235   0.263   0.264   0.266   0.342   0.350
  3 B1    6 A1    2 B2    4 B1    7 A1    2 A2    5 B1    8 A1                 
  0.369   0.466   0.480   0.490   0.535   0.557   0.568   0.590
  6 B1    9 A1    3 B2    7 B1    8 B1   10 A1    4 B2    3 A2                 
  0.600   0.683   0.717   0.784   1.006   1.028   1.075   1.090
 11 A1    9 B1    4 A2   10 B1    5 B2   12 A1   11 B1   13 A1                 
  1.177   1.208   1.284   1.307   1.315   1.334   1.408   1.453
 14 A1    5 A2    6 B2   15 A1   12 B1    7 B2   16 A1    6 A2                 
  1.457   1.509   1.569   1.663   1.797   1.910   1.928   1.962
 13 B1   17 A1   14 B1    7 A2   18 A1    8 B2    9 B2   15 B1                 
  1.970   2.003   2.054   2.134   2.148   2.185   2.276   2.276
  8 A2   19 A1   16 B1   20 A1   17 B1   10 B2   21 A1   11 B2                 
  2.357   2.496   2.581   2.656   2.715   2.750   3.055   3.056
 18 B1   19 B1    9 A2   22 A1   10 A2   20 B1   12 B2   23 A1                 
  3.479   3.524
 21 B1   11 A2                                                                 
 
 Beta MOs, Restricted
 -- Occupied --                  
-11.069 -11.067  -0.871  -0.616  -0.493  -0.400  -0.351  -0.205
  1 A1    1 B1    2 A1    2 B1    1 B2    3 A1    1 A2    4 A1                 
 -0.004
  5 A1                                                                         
 -- Virtual --                   
  0.214   0.217   0.235   0.263   0.264   0.266   0.342   0.350
  3 B1    6 A1    2 B2    4 B1    7 A1    2 A2    5 B1    8 A1                 
  0.369   0.466   0.480   0.490   0.535   0.557   0.568   0.590
  6 B1    9 A1    3 B2    7 B1    8 B1   10 A1    4 B2    3 A2                 
  0.600   0.683   0.717   0.784   1.006   1.028   1.075   1.090
 11 A1    9 B1    4 A2   10 B1    5 B2   12 A1   11 B1   13 A1                 
  1.177   1.208   1.284   1.307   1.315   1.334   1.408   1.453
 14 A1    5 A2    6 B2   15 A1   12 B1    7 B2   16 A1    6 A2                 
  1.457   1.509   1.569   1.663   1.797   1.910   1.928   1.962
 13 B1   17 A1   14 B1    7 A2   18 A1    8 B2    9 B2   15 B1                 
  1.970   2.003   2.054   2.134   2.148   2.185   2.276   2.276
  8 A2   19 A1   16 B1   20 A1   17 B1   10 B2   21 A1   11 B2                 
  2.357   2.496   2.581   2.656   2.715   2.750   3.055   3.056
 18 B1   19 B1    9 A2   22 A1   10 A2   20 B1   12 B2   23 A1                 
  3.479   3.524
 21 B1   11 A2                                                                 
 --------------------------------------------------------------
 
          Ground-State Mulliken Net Atomic Charges

     Atom                 Charge (a.u.)
  ----------------------------------------
      1 C                    -0.367403
      2 C                    -0.367403
      3 H                     0.085997
      4 H                     0.086028
      5 H                     0.086017
      6 H                     0.085987
      7 H                    -0.609223
  ----------------------------------------
  Sum of atomic charges =    -1.000000

 -----------------------------------------------------------------
                    Cartesian Multipole Moments
 -----------------------------------------------------------------
    Charge (ESU x 10^10)
                -4.8032
    Dipole Moment (Debye)
         X      -0.0000      Y      -0.0000      Z     -10.5997
       Tot      10.5997
    Quadrupole Moments (Debye-Ang)
        XX     -19.5166     XY       0.0000     YY     -18.1572
        XZ      -0.0000     YZ       0.0000     ZZ     -52.3374
    Octopole Moments (Debye-Ang^2)
       XXX       0.0000    XXY      -0.0000    XYY       0.0000
       YYY      -0.0000    XXZ      -9.9239    XYZ      -0.0000
       YYZ     -10.1614    XZZ       0.0000    YZZ      -0.0000
       ZZZ    -100.2552
    Hexadecapole Moments (Debye-Ang^3)
      XXXX     -92.6215   XXXY       0.0000   XXYY     -20.5826
      XYYY       0.0000   YYYY     -46.5564   XXXZ      -0.0000
      XXYZ       0.0000   XYYZ      -0.0000   YYYZ       0.0000
      XXZZ     -54.9015   XYZZ      -0.0000   YYZZ     -47.1274
      XZZZ      -0.0000   YZZZ       0.0000   ZZZZ    -415.3803
 -----------------------------------------------------------------
 Total job time:  143.39s(wall), 295.53s(cpu) 
 Sat Mar 26 02:14:19 2022

        *************************************************************
        *                                                           *
        *  Thank you very much for using Q-Chem.  Have a nice day.  *
        *                                                           *
        *************************************************************


