/src/tsommerfeld/qchem/exe/qcprog.exe .input1.444444.13641.qcin.1 /src/jdavis/qchem.scratch/qchem13641/

                  Welcome to Q-Chem
     A Quantum Leap Into The Future Of Chemistry


 Q-Chem 5.4 (devel), Q-Chem, Inc., Pleasanton, CA (2021)

 E. Epifanovsky,  A. T. B. Gilbert,  Xintian Feng,  Joonho Lee,  Yuezhi Mao,  
 N. Mardirossian,  P. Pokhilko,  A. White,  M. Wormit,  M. P. Coons,  
 A. L. Dempwolff,  Zhengting Gan,  D. Hait,  P. R. Horn,  L. D. Jacobson,  
 I. Kaliman,  J. Kussmann,  A. W. Lange,  Ka Un Lao,  D. S. Levine,  Jie Liu,  
 S. C. McKenzie,  A. F. Morrison,  K. Nanda,  F. Plasser,  D. R. Rehn,  
 M. L. Vidal,  Zhi-Qiang You,  Ying Zhu,  B. Alam,  B. Albrecht,  
 A. Aldossary,  E. Alguire,  J. H. Andersen,  D. Barton,  K. Begam,  A. Behn,  
 Y. A. Bernard,  E. J. Berquist,  H. Burton,  A. Carreras,  K. Carter-Fenk,  
 R. Chakraborty,  A. D. Chien,  K. D. Closser,  V. Cofer-Shabica,  
 S. Dasgupta,  Jia Deng,  M. de Wergifosse,  M. Diedenhofen,  Hainam Do,  
 S. Ehlert,  Po-Tung Fang,  S. Fatehi,  Qingguo Feng,  T. Friedhoff,  
 J. Gayvert,  Qinghui Ge,  G. Gidofalvi,  M. Goldey,  J. Gomes,  
 C. Gonzalez-Espinoza,  S. Gulania,  A. Gunina,  M. W. D. Hanson-Heine,  
 P. H. P. Harbach,  A. W. Hauser,  M. F. Herbst,  M. Hernandez Vera,  
 M. Hodecker,  Z. C. Holden,  S. Houck,  Xunkun Huang,  Kerwin Hui,  
 B. C. Huynh,  M. Ivanov,  Hyunjun Ji,  Hanjie Jiang,  B. Kaduk,  S. Kaehler,  
 K. Khistyaev,  Jaehoon Kim,  P. Klunzinger,  Z. Koczor-Benda,  
 Joong Hoon Koh,  D. Kosenkov,  L. Koulias,  T. Kowalczyk,  C. M. Krauter,  
 K. Kue,  A. Kunitsa,  T. Kus,  A. Landau,  K. V. Lawler,  D. Lefrancois,  
 S. Lehtola,  Rain Li,  Yi-Pei Li,  Jiashu Liang,  M. Liebenthal,  
 Hung-Hsuan Lin,  You-Sheng Lin,  Fenglai Liu,  Kuan-Yu Liu,  
 M. Loipersberger,  A. Luenser,  A. Manjanath,  P. Manohar,  E. Mansoor,  
 S. F. Manzer,  Shan-Ping Mao,  A. V. Marenich,  T. Markovich,  S. Mason,  
 S. A. Maurer,  P. F. McLaughlin,  M. F. S. J. Menger,  J.-M. Mewes,  
 S. A. Mewes,  P. Morgante,  J. W. Mullinax,  K. J. Oosterbaan,  G. Paran,  
 Alexander C. Paul,  Suranjan K. Paul,  F. Pavosevic,  Zheng Pei,  S. Prager,  
 E. I. Proynov,  E. Ramos,  B. Rana,  A. E. Rask,  A. Rettig,  R. M. Richard,  
 F. Rob,  E. Rossomme,  T. Scheele,  M. Scheurer,  M. Schneider,  
 N. Sergueev,  S. M. Sharada,  W. Skomorowski,  D. W. Small,  C. J. Stein,  
 Yu-Chuan Su,  E. J. Sundstrom,  Zhen Tao,  J. Thirman,  T. Tsuchimochi,  
 N. M. Tubman,  S. P. Veccham,  O. Vydrov,  J. Wenzel,  J. Witte,  A. Yamada,  
 Kun Yao,  S. Yeganeh,  S. R. Yost,  A. Zech,  Igor Ying Zhang,  Xing Zhang,  
 Yu Zhang,  D. Zuev,  A. Aspuru-Guzik,  A. T. Bell,  N. A. Besley,  
 K. B. Bravaya,  B. R. Brooks,  D. Casanova,  Jeng-Da Chai,  S. Coriani,  
 C. J. Cramer,  A. E. DePrince, III,  R. A. DiStasio Jr.,  A. Dreuw,  
 B. D. Dunietz,  T. R. Furlani,  W. A. Goddard III,  S. Grimme,  
 S. Hammes-Schiffer,  T. Head-Gordon,  W. J. Hehre,  Chao-Ping Hsu,  
 T.-C. Jagau,  Yousung Jung,  A. Klamt,  Jing Kong,  D. S. Lambrecht,  
 WanZhen Liang,  N. J. Mayhall,  C. W. McCurdy,  J. B. Neaton,  
 C. Ochsenfeld,  J. A. Parkhill,  R. Peverati,  V. A. Rassolov,  Yihan Shao,  
 L. V. Slipchenko,  T. Stauch,  R. P. Steele,  J. E. Subotnik,  
 A. J. W. Thom,  A. Tkatchenko,  D. G. Truhlar,  T. Van Voorhis,  
 T. A. Wesolowski,  K. B. Whaley,  H. L. Woodcock III,  P. M. Zimmerman,  
 S. Faraji,  P. M. W. Gill,  M. Head-Gordon,  J. M. Herbert,  A. I. Krylov

 Additional authors for Version 5.4.1: 
 S. Kotaru,  Shaozhi Li,  Xiangyuan Li,  F. Matz,  A. Molle,  Haisheng Ren,  
 Yingli Su,  Hung-Yi Tsai,  C. Utku,  Fang Wang

 Contributors to earlier versions of Q-Chem not listed above: 
 R. D. Adamson,  B. Austin,  R. Baer,  J. Baker,  G. J. O. Beran,  
 K. Brandhorst,  S. T. Brown,  E. F. C. Byrd,  A. K. Chakraborty,  
 G. K. L. Chan,  Chun-Min Chang,  Yunqing Chen,  C.-L. Cheng,  
 Siu Hung Chien,  D. M. Chipman,  D. L. Crittenden,  H. Dachsel,  
 R. J. Doerksen,  A. D. Dutoi,  R. G. Edgar,  J. Fosso-Tande,  
 L. Fusti-Molnar,  D. Ghosh,  A. Ghysels,  A. Golubeva-Zadorozhnaya,  
 J. Gonthier,  M. S. Gordon,  S. R. Gwaltney,  G. Hawkins,  J. E. Herr,  
 A. Heyden,  S. Hirata,  E. G. Hohenstein,  G. Kedziora,  F. J. Keil,  
 C. Kelley,  Jihan Kim,  R. A. King,  R. Z. Khaliullin,  P. P. Korambath,  
 W. Kurlancheek,  A. Laurent,  A. M. Lee,  M. S. Lee,  S. V. Levchenko,  
 Ching Yeh Lin,  D. Liotard,  E. Livshits,  R. C. Lochan,  I. Lotan,  
 L. A. Martinez-Martinez,  P. E. Maslen,  N. Nair,  D. P. O'Neill,  
 D. Neuhauser,  E. Neuscamman,  C. M. Oana,  R. Olivares-Amaya,  R. Olson,  
 T. M. Perrine,  B. Peters,  P. A. Pieniazek,  A. Prociuk,  Y. M. Rhee,  
 J. Ritchie,  M. A. Rohrdanz,  E. Rosta,  N. J. Russ,  H. F. Schaefer III,  
 M. W. Schmidt,  N. E. Schultz,  S. Sharma,  N. Shenvi,  C. D. Sherrill,  
 A. C. Simmonett,  A. Sodt,  T. Stein,  D. Stuck,  K. S. Thanthiriwatte,  
 V. Vanovschi,  L. Vogt,  Tao Wang,  A. Warshel,  M. A. Watson,  
 C. F. Williams,  Q. Wu,  X. Xu,  Jun Yang,  W. Zhang,  Yan Zhao

 Please cite Q-Chem as follows:
 Y. Shao et al., Mol. Phys. 113, 184-215 (2015)
 DOI: 10.1080/00268976.2014.952696

 Q-Chem 5.4.1 for Intel X86 EM64T Linux

 Parts of Q-Chem use Armadillo 9.900.5 (Nocturnal Misbehaviour).
 http://arma.sourceforge.net/

 Q-Chem begins on Sat Mar 26 01:52:03 2022  

 Host: node01
0

     Scratch files written to /src/jdavis/qchem.scratch/qchem13641//
 Processing $rem in /src/tsommerfeld/qchem/config/preferences:
 Processing $rem in /home/jdavis/.qchemrc:

 Checking the input file for inconsistencies... 	...done.

--------------------------------------------------------------
User input:
--------------------------------------------------------------
$molecule
-1 1
C         0.0000003663    0.4438502432    0.6645000000
C         0.0000003663    0.4438502432   -0.6645000000
H        -0.9623486337    0.4438522630    1.1590800000
H        -0.9623486337    0.4438522630   -1.1590800000
H         0.9623483663    0.4438482235    1.1590800000
H         0.9623483663    0.4438482235   -1.1590800000
H        -0.0000038605   -2.4438482235    0.0000000000
$end

$rem
   METHOD adc(2)
   BASIS gen
   PURECART 11
   EE_STATES [0,0,0,10]
   scf_convergence 8
   ADC_DAVIDSON_MAXITER 120
   ADC_DAVIDSON_MAXSUBSPACE 200
   adc_nguess_singles 100
   THRESH 14
   S2THRESH 14
   adc_davidson_conv 5
   adc_davidson_thresh 14
   THREADS 10
   MEM_TOTAL 95000
   STATE_ANALYSIS TRUE
$end
$basis
C 1
S   9   1.00
      6.665000D+03           6.920000D-04
      1.000000D+03           5.329000D-03
      2.280000D+02           2.707700D-02
      6.471000D+01           1.017180D-01
      2.106000D+01           2.747400D-01
      7.495000D+00           4.485640D-01
      2.797000D+00           2.850740D-01
      5.215000D-01           1.520400D-02
      1.596000D-01          -3.191000D-03
S   9   1.00
      6.665000D+03          -1.460000D-04
      1.000000D+03          -1.154000D-03
      2.280000D+02          -5.725000D-03
      6.471000D+01          -2.331200D-02
      2.106000D+01          -6.395500D-02
      7.495000D+00          -1.499810D-01
      2.797000D+00          -1.272620D-01
      5.215000D-01           5.445290D-01
      1.596000D-01           5.804960D-01
S   1   1.00
      1.596000D-01           1.000000D+00
S   1   1.00
      0.0469000              1.0000000
P   4   1.00
      9.439000D+00           3.810900D-02
      2.002000D+00           2.094800D-01
      5.456000D-01           5.085570D-01
      1.517000D-01           4.688420D-01
P   1   1.00
      1.517000D-01           1.000000D+00
P   1   1.00
      0.0876489      1.0000000
P   1   1.00
      0.0438244      1.0000000
D   1   1.00
      5.500000D-01           1.0000000
****
C 2
S   9   1.00
      6.665000D+03           6.920000D-04
      1.000000D+03           5.329000D-03
      2.280000D+02           2.707700D-02
      6.471000D+01           1.017180D-01
      2.106000D+01           2.747400D-01
      7.495000D+00           4.485640D-01
      2.797000D+00           2.850740D-01
      5.215000D-01           1.520400D-02
      1.596000D-01          -3.191000D-03
S   9   1.00
      6.665000D+03          -1.460000D-04
      1.000000D+03          -1.154000D-03
      2.280000D+02          -5.725000D-03
      6.471000D+01          -2.331200D-02
      2.106000D+01          -6.395500D-02
      7.495000D+00          -1.499810D-01
      2.797000D+00          -1.272620D-01
      5.215000D-01           5.445290D-01
      1.596000D-01           5.804960D-01
S   1   1.00
      1.596000D-01           1.000000D+00
S   1   1.00
      0.0469000              1.0000000
P   4   1.00
      9.439000D+00           3.810900D-02
      2.002000D+00           2.094800D-01
      5.456000D-01           5.085570D-01
      1.517000D-01           4.688420D-01
P   1   1.00
      1.517000D-01           1.000000D+00
P   1   1.00
      0.0876489      1.0000000
P   1   1.00
      0.0438244      1.0000000
D   1   1.00
      5.500000D-01           1.0000000
****
H 3
cc-pVDZ
****
H 4
cc-pVDZ
****
H 5
cc-pVDZ
****
H 6
cc-pVDZ
****
H 7
aug-cc-pVDZ
****
$end
--------------------------------------------------------------
 Atom   2: ( -0.6645000000, -0.0000002280, -0.1698646157)
         ->( -0.6645000000,  0.0000002280, -0.1698646157)
 Atom   1: (  0.6645000000, -0.0000002280, -0.1698646157)
         ->(  0.6645000000,  0.0000000000, -0.1698646157)
 Atom   6: ( -1.1590800000, -0.9623482280, -0.1698633794)
         ->( -1.1590800000, -0.9623487720, -0.1698658521)
 Atom   5: (  1.1590800000, -0.9623482280, -0.1698633794)
         ->(  1.1590800000, -0.9623487720, -0.1698658521)
 Atom   7: ( -0.0000000000,  0.0000016481,  2.7178338510)
         ->(  0.0000000000,  0.0000000000,  2.7178338510)
 ----------------------------------------------------------------
             Standard Nuclear Orientation (Angstroms)
    I     Atom           X                Y                Z
 ----------------------------------------------------------------
    1      C       0.6645000000     0.0000000000    -0.1698646157
    2      C      -0.6645000000     0.0000002280    -0.1698646157
    3      H       1.1590800000     0.9623487720    -0.1698658521
    4      H      -1.1590800000     0.9623487720    -0.1698658521
    5      H       1.1590800000    -0.9623487720    -0.1698658521
    6      H      -1.1590800000    -0.9623487720    -0.1698658521
    7      H       0.0000000000     0.0000000000     2.7178338510
 ----------------------------------------------------------------
 Molecular Point Group                 C2v   NOp =  4
 Largest Abelian Subgroup              C2v   NOp =  4
 Nuclear Repulsion Energy =          36.38212131 hartrees
 There are        9 alpha and        9 beta electrons
 Requested basis set is non-standard
 There are 33 shells and 67 basis functions
 Total memory of 95000 MB is distributed as follows: 
   MEM_STATIC is set to 192 MB
   QALLOC/CCMAN JOB total memory use is  94808 MB
 Warning: actual memory use might exceed 95000 MB

 Total QAlloc Memory Limit  95000 MB
 Mega-Array Size       188 MB
 MEM_STATIC part       192 MB

                       Distance Matrix (Angstroms)
             C (  1)   C (  2)   H (  3)   H (  4)   H (  5)   H (  6)
   C (  2)  1.329000
   H (  3)  1.082000  2.061931
   H (  4)  2.061931  1.082000  2.318160
   H (  5)  1.082000  2.061931  1.924698  3.013026
   H (  6)  2.061931  1.082000  3.013026  1.924698  2.318160
   H (  7)  2.963168  2.963168  3.257053  3.257053  3.257053  3.257053

 
 A cutoff of  1.0D-14 yielded    561 shell pairs
 There are      2337 function pairs (      2484 Cartesian)
 Smallest overlap matrix eigenvalue = 2.05E-04

 Scale SEOQF with 1.000000e-01/1.000000e-01/1.000000e-01

 Standard Electronic Orientation quadrupole field applied
 Nucleus-field energy     =    -0.0000000002 hartrees
 ================ Generating on-the-fly SAD Guess ================
Attempting to make child job directory: /src/jdavis/qchem.scratch/qchem13641//Frg1/
Attempting to make child job directory: /src/jdavis/qchem.scratch/qchem13641//Frg2/
Creating input file /src/jdavis/qchem.scratch/qchem13641/Frg1.input
using default PutDataFrgm: nothing
calling putenv with: QCSCRATCH=/src/jdavis/qchem.scratch/qchem13641/ 
Spawning Job For Fragment 0
Done Job For Fragment 0
calling putenv with: QCSCRATCH=/src/jdavis/qchem.scratch 
calling putenv with: QCTHREADS=1 
Creating input file /src/jdavis/qchem.scratch/qchem13641/Frg2.input
using default PutDataFrgm: nothing
calling putenv with: QCSCRATCH=/src/jdavis/qchem.scratch/qchem13641/ 
Spawning Job For Fragment 1
Done Job For Fragment 1
calling putenv with: QCSCRATCH=/src/jdavis/qchem.scratch 
calling putenv with: QCTHREADS=1 
 Time for running child jobs:  CPU 1.77 s  wall 54.36 s
 ============= Method Specific SAD Guess Constructed =============
 Guess from on-the-fly superposition of atomic densities
 Warning: Energy on first SCF cycle will be non-variational
 A restricted Hartree-Fock SCF calculation will be
 performed using Pulay DIIS extrapolation
 SCF converges when DIIS error is below 1.0E-08
 using 10 threads for integral computing
 -------------------------------------------------------
 OpenMP Integral computing Module                
 Release: version 1.0, May 2013, Q-Chem Inc. Pittsburgh 
 -------------------------------------------------------
 ---------------------------------------
  Cycle       Energy         DIIS Error
 ---------------------------------------
    1     -78.8088045158      7.37E-02
    2     -78.4334020704      7.18E-03
    3     -78.4869216868      1.85E-03
    4     -78.4900569883      5.82E-04
    5     -78.4904266783      1.28E-04
    6     -78.4904599563      3.35E-05
    7     -78.4904643560      1.19E-05
    8     -78.4904652914      1.73E-06
    9     -78.4904653357      4.41E-07
   10     -78.4904653388      7.22E-08
   11     -78.4904653376      1.39E-08
   12     -78.4904653374      2.16E-09 Convergence criterion met
 ---------------------------------------
 SCF time:  CPU 10.85 s  wall 1.09 s
 SCF   energy in the final basis set = -78.49046534
 Total energy in the final basis set = -78.49046534
================================================================================
|                                                                              |
|                                 A D C  M A N                                 |
|                                                                              |
 ------------------------------------------------------------------------------ 
|                                                                              |
| Components:                                                                  |
|                                                                              |
| - libvmm - 1.3-trunk                                                         |
|   Authors:                                                                   |
|   Evgeny Epifanovsky, Ilya Kaliman                                           |
|                                                                              |
| - libtensor - 2.5-trunk                                                      |
|   Authors:                                                                   |
|   Evgeny Epifanovsky, Michael Wormit, Dmitry Zuev, Sam Manzer,               |
|   Ilya Kaliman                                                               |
|                                                                              |
| - libwfa - 1.1-trunk                                                         |
|   Authors:                                                                   |
|   Felix Plasser, Stefanie Mewes (Baeppler), Benjamin Thomitzni,              |
|   Michael Wormit, Feng Chen, Anna I. Krylov, Pavel Pokhilko                  |
|                                                                              |
| - libadc - 1.1-trunk                                                         |
|   Authors:                                                                   |
|   Michael Wormit, Adrian L. Dempwolff, Philipp H. P. Harbach,                |
|   Caroline Krauter, Dirk Rehn, Matthias Schneider, Jan Wenzel                |
|                                                                              |
| - adcman - 2.6-trunk                                                         |
|   Authors:                                                                   |
|   Michael Wormit, Adrian L. Dempwolff, Philipp H. P. Harbach,                |
|   Caroline Krauter, Daniel Lefrancois, Jan-Michael Mewes, Dirk Rehn,         |
|   Matthias Schneider, Jan Wenzel, Andreas Dreuw                              |
|                                                                              |
| Authors of earlier versions of ADCMAN:                                       |
| Andreas Dreuw, Jan Hendrik Starcke, Dirk Rehn, Michael Wormit                |
|                                                                              |
================================================================================

 
 Alpha MOs, Restricted
 -- Occupied --                  
-11.070 -11.068  -0.872  -0.617  -0.494  -0.402  -0.352  -0.206
  1 A1    1 B1    2 A1    2 B1    1 B2    3 A1    1 A2    4 A1                 
 -0.007
  5 A1                                                                         
 -- Virtual --                   
  0.191   0.206   0.218   0.242   0.244   0.244   0.338   0.349
  3 B1    6 A1    2 B2    2 A2    4 B1    7 A1    8 A1    5 B1                 
  0.357   0.456   0.472   0.477   0.513   0.513   0.525   0.543
  6 B1    9 A1    3 B2    7 B1   10 A1    8 B1    4 B2    3 A2                 
  0.557   0.630   0.703   0.781   1.006   1.021   1.088   1.091
 11 A1    9 B1    4 A2   10 B1    5 B2   12 A1   13 A1   11 B1                 
  1.147   1.183   1.252   1.253   1.284   1.308   1.357   1.373
 14 A1    5 A2   15 A1    6 B2    7 B2   12 B1   16 A1   13 B1                 
  1.451   1.477   1.481   1.636   1.792   1.883   1.899   1.923
  6 A2   17 A1   14 B1    7 A2   18 A1    8 A2    8 B2    9 B2                 
  1.957   1.989   2.048   2.131   2.133   2.183   2.258   2.268
 15 B1   19 A1   16 B1   17 B1   20 A1   10 B2   21 A1   11 B2                 
  2.353   2.502   2.580   2.647   2.723   2.746   3.018   3.027
 18 B1   19 B1    9 A2   22 A1   10 A2   20 B1   12 B2   23 A1                 
  3.440   3.511
 21 B1   11 A2                                                                 
 
 Beta MOs, Restricted
 -- Occupied --                  
-11.070 -11.068  -0.872  -0.617  -0.494  -0.402  -0.352  -0.206
  1 A1    1 B1    2 A1    2 B1    1 B2    3 A1    1 A2    4 A1                 
 -0.007
  5 A1                                                                         
 -- Virtual --                   
  0.191   0.206   0.218   0.242   0.244   0.244   0.338   0.349
  3 B1    6 A1    2 B2    2 A2    4 B1    7 A1    8 A1    5 B1                 
  0.357   0.456   0.472   0.477   0.513   0.513   0.525   0.543
  6 B1    9 A1    3 B2    7 B1   10 A1    8 B1    4 B2    3 A2                 
  0.557   0.630   0.703   0.781   1.006   1.021   1.088   1.091
 11 A1    9 B1    4 A2   10 B1    5 B2   12 A1   13 A1   11 B1                 
  1.147   1.183   1.252   1.253   1.284   1.308   1.357   1.373
 14 A1    5 A2   15 A1    6 B2    7 B2   12 B1   16 A1   13 B1                 
  1.451   1.477   1.481   1.636   1.792   1.883   1.899   1.923
  6 A2   17 A1   14 B1    7 A2   18 A1    8 A2    8 B2    9 B2                 
  1.957   1.989   2.048   2.131   2.133   2.183   2.258   2.268
 15 B1   19 A1   16 B1   17 B1   20 A1   10 B2   21 A1   11 B2                 
  2.353   2.502   2.580   2.647   2.723   2.746   3.018   3.027
 18 B1   19 B1    9 A2   22 A1   10 A2   20 B1   12 B2   23 A1                 
  3.440   3.511
 21 B1   11 A2                                                                 

--------------------------------------------------------------------------------
                                   HF Summary                                   
--------------------------------------------------------------------------------
  Energy:                                                  -78.4904653374 a.u.
  Dip. moment [a.u.]:                  [  -0.000000,   -0.000001,   -4.190450]
  Total dipole [Debye]:                                              10.651065
  <r^2> [a.u.]:                        [  52.769119,   26.941009,   67.428419]
  Total <r^2> [a.u.]:                                               147.138547
--------------------------------------------------------------------------------

--------------------------------------------------------------------------------
                                 MP(2) Summary                                  
--------------------------------------------------------------------------------
  MP energy contribution:                                   -0.3074741407 a.u.
  Total energy:                                            -78.7979394781 a.u.
  Dip. moment [a.u.]:                  [   0.000000,   -0.000001,   -4.127474]
  Total dipole [Debye]:                                              10.490993
  <r^2> [a.u.]:                        [  53.140210,   27.155696,   66.744573]
  Total <r^2> [a.u.]:                                               147.040479

  Density matrix analysis:
  ------------------------
  NOs
    Occupation of frontier NOs:
       0.0467   1.9336
    Number of electrons: 18.000000
    Number of unpaired electrons: n_u =  0.46694, n_u,nl =  0.05230
    NO participation ratio (PR_NO): 15.979246
  
  
  Mulliken Population Analysis
  Atom      Charge (e)              h+              e-           Del q
  --------------------------------------------------------------------
   1 C       -0.400683        0.087272       -0.124459       -0.037187
   2 C       -0.400683        0.087272       -0.124459       -0.037187
   3 H        0.087272        0.018734       -0.009208        0.009526
   4 H        0.087302        0.018734       -0.009209        0.009525
   5 H        0.087292        0.018734       -0.009209        0.009525
   6 H        0.087262        0.018734       -0.009208        0.009526
   7 H       -0.547762        0.050072       -0.013799        0.036273
  --------------------------------------------------------------------
  Sum:       -1.000000        0.299551       -0.299551       -0.000000
  
  Multipole moment analysis of the density matrix
    Molecular charge:                      -1.000000
    Number of electrons:                   18.000000
      Center of electronic charge [Ang]: [ -0.000000,   0.000000,   0.121342]
    Total nuclear charge:                  17.000000
      Center of nuclear charge [Ang]:    [  0.000000,   0.000000,  -0.000000]
    Dipole moment [D]:                     10.490990
      Cartesian components [D]:          [  0.000000,  -0.000003, -10.490990]
    RMS size of the density [Ang]:         1.507583
      Cartesian components [Ang]:        [  0.909236,   0.649973,   1.011746]
  
  Exciton analysis of the difference density matrix
    <r_h> [Ang]:                  [ -0.000000,   0.000000,   0.197493]
    <r_e> [Ang]:                  [ -0.000000,   0.000000,   0.086240]
    |<r_e - r_h>| [Ang]:            0.111253
    Hole size [Ang]:                1.801853
      Cartesian components [Ang]: [  0.959716,   0.747631,   1.329160]
    Electron size [Ang]:            1.785095
      Cartesian components [Ang]: [  1.126037,   0.871577,   1.076548]
--------------------------------------------------------------------------------
  Starting Davidson for singlet states of irrep B2 ... 
--------------------------------------------------------------------------------
   It NVec Conv  Avg. Norm  Max. Norm  Conv. states           Remark
--------------------------------------------------------------------------------
       100    0  1.118e-01  4.117e-01  0.1239 n n n n n n n n Guess.
    1  110    0  9.090e-03  6.062e-02  0.0764 n n n n n n n n 
    2  120    0  6.407e-03  6.283e-02  0.0763 n n n n n n n n 
    3  130    1  1.431e-02  1.431e-01  0.0763 y n n n n n n n 
    4  140    4  7.193e-03  7.193e-02  0.0763 y y y n y n n n 
    5  150    8  2.471e-03  2.471e-02  0.0763 y y y y y y y y 
    6  160    9  1.262e-04  1.262e-03  0.0763 y y y y y y y y 
    7  170    9  3.848e-06  3.848e-05  0.0763 y y y y y y y y 
    8  180   10  9.051e-08  9.051e-07  0.0763 y y y y y y y y Converged.
--------------------------------------------------------------------------------
  Davidson Summary: 
 ------------------------------------------------------------
  State  0: excitation energy =   0.0763 a.u.   (converged)
  State  1: excitation energy =   0.2578 a.u.   (converged)
  State  2: excitation energy =   0.2821 a.u.   (converged)
  State  3: excitation energy =   0.3328 a.u.   (converged)
  State  4: excitation energy =   0.3472 a.u.   (converged)
  State  5: excitation energy =   0.3544 a.u.   (converged)
  State  6: excitation energy =   0.4021 a.u.   (converged)
  State  7: excitation energy =   0.4291 a.u.   (converged)
  State  8: excitation energy =   0.4374 a.u.   (converged)
  State  9: excitation energy =   0.4449 a.u.   (converged)
 ------------------------------------------------------------


--------------------------------------------------------------------------------
                   State-averaged natural transition orbitals
--------------------------------------------------------------------------------
--------------------------------------------------------------------------------

--------------------------------------------------------------------------------
                             Excited State Summary
--------------------------------------------------------------------------------
--------------------------------------------------------------------------------

  Excited state 1 (singlet, B2)                                    [converged]
  ----------------------------------------------------------------------------
  Term symbol:  1 (1) B2                                    R^2 =  1.96461e-13

  Total energy:                                            -78.7216376903 a.u.
  Excitation energy:                                               2.076277 eV

  Osc. strength:                                                      0.050234
  Trans. dip. moment [a.u.]:           [  -0.000001,   -0.993748,    0.000000]
  <i|r^2|0> [a.u.]:                    [  -0.000000,    0.000001,   -0.000001]

  Dip. moment [a.u.]:                  [  -0.000000,   -0.000001,    0.430708]
  Total dipole [Debye]:                                               1.094750
  <r^2> [a.u.]:                        [  59.362645,   49.924482,   50.215044]
  Total <r^2> [a.u.]:                                               159.502172

  V1^2 = 0.9371, V2^2 = 0.0629

  Important amplitudes:
      occ i      occ j       vir a       vir b          v   
    ---------------------------------------------------------
     5 (A1) A               2 (B2) A                  0.6811
     5 (A1) A   5 (A1) B    8 (A1) A    2 (B2) B      0.0587
    ---------------------------------------------------------

  Density matrix analysis:
  ------------------------
  NOs
    Occupation of frontier NOs:
       0.9922   0.9943
    Number of electrons: 18.000000
    Number of unpaired electrons: n_u =  2.42621, n_u,nl =  2.05058
    NO participation ratio (PR_NO):  2.963558
  
  
  Mulliken Population Analysis
  Atom      Charge (e)              h+              e-           Del q
  --------------------------------------------------------------------
   1 C       -0.680115        0.299394       -0.578826       -0.279432
   2 C       -0.680115        0.299394       -0.578826       -0.279432
   3 H        0.082879        0.005699       -0.010092       -0.004394
   4 H        0.082909        0.005699       -0.010092       -0.004393
   5 H        0.082899        0.005699       -0.010092       -0.004393
   6 H        0.082868        0.005699       -0.010093       -0.004394
   7 H        0.028676        0.613951       -0.037513        0.576438
  --------------------------------------------------------------------
  Sum:       -1.000000        1.235534       -1.235534        0.000000
  
  Multipole moment analysis of the density matrix
    Molecular charge:                      -1.000000
    Number of electrons:                   18.000000
      Center of electronic charge [Ang]: [  0.000000,   0.000000,  -0.012663]
    Total nuclear charge:                  17.000000
      Center of nuclear charge [Ang]:    [  0.000000,   0.000000,  -0.000000]
    Dipole moment [D]:                     1.094750
      Cartesian components [D]:          [ -0.000000,  -0.000003,   1.094750]
    RMS size of the density [Ang]:         1.575194
      Cartesian components [Ang]:        [  0.960996,   0.881296,   0.883766]
  
  Exciton analysis of the difference density matrix
    <r_h> [Ang]:                  [ -0.000000,   0.000000,   1.953872]
    <r_e> [Ang]:                  [ -0.000000,   0.000000,   0.001610]
    |<r_e - r_h>| [Ang]:            1.952262
    Hole size [Ang]:                2.122515
      Cartesian components [Ang]: [  1.045993,   1.007857,   1.547641]
    Electron size [Ang]:            3.338723
      Cartesian components [Ang]: [  1.582527,   2.485201,   1.570496]

  Transition density matrix analysis:
  -----------------------------------
  
  CT numbers (Mulliken)
    omega =     0.9246
    <Phe> =    -0.0048
  
  Exciton analysis of the transition density matrix
    Trans. dipole moment [D]:             1.262928
      Cartesian components [D]:         [ -0.000002,  -1.262928,   0.000000]
    <r_h> [Ang]:                        [ -0.000000,   0.000000,   2.495521]
    <r_e> [Ang]:                        [ -0.000000,   0.000000,  -0.170257]
    |<r_e - r_h>| [Ang]:                  2.665778
    Hole size [Ang]:                      1.544661
      Cartesian components [Ang]:       [  0.826767,   0.810826,   1.022250]
    Electron size [Ang]:                  3.538156
      Cartesian components [Ang]:       [  1.656427,   2.715780,   1.548978]
    RMS electron-hole separation [Ang]:   4.690635
      Cartesian components [Ang]:       [  1.849261,   2.833922,   3.248257]
    Covariance(r_h, r_e) [Ang^2]:         0.004420
    Correlation coefficient:              0.000809
    Center-of-mass size [Ang]:            1.930891
      Cartesian components [Ang]:       [  0.926664,   1.417277,   0.927880]

  Decomposition into state-averaged NTOs
    H- 0 -> L+ 0:  0.6751 ( 91.2%)
                   omega =  92.5%
  ----------------------------------------------------------------------------


  Excited state 2 (singlet, B2)                                    [converged]
  ----------------------------------------------------------------------------
  Term symbol:  2 (1) B2                                    R^2 =  1.29514e-12

  Total energy:                                            -78.5400972337 a.u.
  Excitation energy:                                               7.016244 eV

  Osc. strength:                                                      0.000388
  Trans. dip. moment [a.u.]:           [  -0.000007,    0.047531,    0.000000]
  <i|r^2|0> [a.u.]:                    [   0.000000,    0.000000,   -0.000000]

  Dip. moment [a.u.]:                  [   0.000000,   -0.000001,   -4.039152]
  Total dipole [Debye]:                                              10.266501
  <r^2> [a.u.]:                        [  58.495807,   48.073117,   69.094491]
  Total <r^2> [a.u.]:                                               175.663415

  V1^2 = 0.9475, V2^2 = 0.0525

  Important amplitudes:
      occ i      occ j       vir a       vir b          v   
    ---------------------------------------------------------
     4 (A1) A               2 (B2) A                  0.6644
     4 (A1) A               3 (B2) A                 -0.1352
    ---------------------------------------------------------

  Density matrix analysis:
  ------------------------
  NOs
    Occupation of frontier NOs:
       0.9720   1.0063
    Number of electrons: 18.000000
    Number of unpaired electrons: n_u =  2.39279, n_u,nl =  2.04048
    NO participation ratio (PR_NO):  2.946412
  
  
  Mulliken Population Analysis
  Atom      Charge (e)              h+              e-           Del q
  --------------------------------------------------------------------
   1 C       -0.500374        0.512091       -0.611782       -0.099691
   2 C       -0.500374        0.512091       -0.611782       -0.099691
   3 H        0.129613        0.086084       -0.043743        0.042340
   4 H        0.129644        0.086085       -0.043743        0.042342
   5 H        0.129633        0.086085       -0.043744        0.042341
   6 H        0.129602        0.086084       -0.043744        0.042340
   7 H       -0.517743        0.042156       -0.012137        0.030019
  --------------------------------------------------------------------
  Sum:       -1.000000        1.410674       -1.410674       -0.000000
  
  Multipole moment analysis of the density matrix
    Molecular charge:                      -1.000000
    Number of electrons:                   18.000000
      Center of electronic charge [Ang]: [ -0.000000,   0.000000,   0.118746]
    Total nuclear charge:                  17.000000
      Center of nuclear charge [Ang]:    [  0.000000,   0.000000,  -0.000000]
    Dipole moment [D]:                     10.266498
      Cartesian components [D]:          [  0.000000,  -0.000003, -10.266498]
    RMS size of the density [Ang]:         1.648854
      Cartesian components [Ang]:        [  0.953954,   0.864801,   1.029957]
  
  Exciton analysis of the difference density matrix
    <r_h> [Ang]:                  [ -0.000000,   0.000000,  -0.111272]
    <r_e> [Ang]:                  [ -0.000000,   0.000000,  -0.144403]
    |<r_e - r_h>| [Ang]:            0.033132
    Hole size [Ang]:                1.727799
      Cartesian components [Ang]: [  1.033782,   0.818736,   1.116359]
    Electron size [Ang]:            2.942562
      Cartesian components [Ang]: [  1.460078,   2.196038,   1.305473]

  Transition density matrix analysis:
  -----------------------------------
  
  CT numbers (Mulliken)
    omega =     0.9162
    <Phe> =    -0.0030
  
  Exciton analysis of the transition density matrix
    Trans. dipole moment [D]:             0.060406
      Cartesian components [D]:         [ -0.000008,   0.060406,   0.000000]
    <r_h> [Ang]:                        [ -0.000000,   0.000000,  -0.134098]
    <r_e> [Ang]:                        [ -0.000000,   0.000000,  -0.170248]
    |<r_e - r_h>| [Ang]:                  0.036149
    Hole size [Ang]:                      1.374629
      Cartesian components [Ang]:       [  0.767462,   0.534715,   1.007316]
    Electron size [Ang]:                  3.356536
      Cartesian components [Ang]:       [  1.618040,   2.562056,   1.443659]
    RMS electron-hole separation [Ang]:   3.624226
      Cartesian components [Ang]:       [  1.786028,   2.616333,   1.760659]
    Covariance(r_h, r_e) [Ang^2]:         0.011117
    Correlation coefficient:              0.002409
    Center-of-mass size [Ang]:            1.815088
      Cartesian components [Ang]:       [  0.897805,   1.309093,   0.880208]

  Decomposition into state-averaged NTOs
    H- 2 -> L+ 0:  0.6683 ( 89.3%)
    H- 0 -> L+ 1: -0.0983 (  1.9%)
                   omega =  91.6%
  ----------------------------------------------------------------------------


  Excited state 3 (singlet, B2)                                    [converged]
  ----------------------------------------------------------------------------
  Term symbol:  3 (1) B2                                    R^2 =  3.78101e-12

  Total energy:                                            -78.5158093965 a.u.
  Excitation energy:                                               7.677150 eV

  Osc. strength:                                                      0.023443
  Trans. dip. moment [a.u.]:           [   0.000001,    0.353046,    0.000000]
  <i|r^2|0> [a.u.]:                    [   0.000001,    0.000000,    0.000001]

  Dip. moment [a.u.]:                  [   0.000000,   -0.000001,    0.353357]
  Total dipole [Debye]:                                               0.898145
  <r^2> [a.u.]:                        [  58.515744,   36.223122,   46.820055]
  Total <r^2> [a.u.]:                                               141.558920

  V1^2 = 0.9307, V2^2 = 0.0693

  Important amplitudes:
      occ i      occ j       vir a       vir b          v   
    ---------------------------------------------------------
     5 (A1) A               3 (B2) A                 -0.6677
     4 (A1) A               2 (B2) A                  0.1029
    ---------------------------------------------------------

  Density matrix analysis:
  ------------------------
  NOs
    Occupation of frontier NOs:
       0.9604   1.0120
    Number of electrons: 18.000000
    Number of unpaired electrons: n_u =  2.46815, n_u,nl =  2.07119
    NO participation ratio (PR_NO):  3.175653
  
  
  Mulliken Population Analysis
  Atom      Charge (e)              h+              e-           Del q
  --------------------------------------------------------------------
   1 C       -0.169161        0.320404       -0.088882        0.231522
   2 C       -0.169161        0.320404       -0.088882        0.231522
   3 H       -0.174033       -0.005616       -0.255689       -0.261305
   4 H       -0.174000       -0.005616       -0.255686       -0.261302
   5 H       -0.174010       -0.005616       -0.255686       -0.261302
   6 H       -0.174043       -0.005616       -0.255689       -0.261305
   7 H        0.034408        0.607484       -0.025314        0.582170
  --------------------------------------------------------------------
  Sum:       -1.000000        1.225828       -1.225828        0.000000
  
  Multipole moment analysis of the density matrix
    Molecular charge:                      -1.000000
    Number of electrons:                   18.000000
      Center of electronic charge [Ang]: [ -0.000000,   0.000000,  -0.010389]
    Total nuclear charge:                  17.000000
      Center of nuclear charge [Ang]:    [  0.000000,   0.000000,  -0.000000]
    Dipole moment [D]:                     0.898144
      Cartesian components [D]:          [  0.000000,  -0.000002,   0.898144]
    RMS size of the density [Ang]:         1.483962
      Cartesian components [Ang]:        [  0.954116,   0.750685,   0.853392]
  
  Exciton analysis of the difference density matrix
    <r_h> [Ang]:                  [ -0.000000,   0.000000,   1.918329]
    <r_e> [Ang]:                  [ -0.000000,  -0.000000,  -0.015998]
    |<r_e - r_h>| [Ang]:            1.934327
    Hole size [Ang]:                2.030269
      Cartesian components [Ang]: [  0.997502,   0.941886,   1.496607]
    Electron size [Ang]:            2.559202
      Cartesian components [Ang]: [  1.490972,   1.720033,   1.169616]

  Transition density matrix analysis:
  -----------------------------------
  
  CT numbers (Mulliken)
    omega =     0.9143
    <Phe> =    -0.0013
  
  Exciton analysis of the transition density matrix
    Trans. dipole moment [D]:             0.448677
      Cartesian components [D]:         [  0.000001,   0.448677,   0.000000]
    <r_h> [Ang]:                        [ -0.000000,   0.000000,   2.409087]
    <r_e> [Ang]:                        [ -0.000000,  -0.000000,  -0.168798]
    |<r_e - r_h>| [Ang]:                  2.577885
    Hole size [Ang]:                      1.609575
      Cartesian components [Ang]:       [  0.821625,   0.800588,   1.129037]
    Electron size [Ang]:                  2.610501
      Cartesian components [Ang]:       [  1.519573,   1.829487,   1.076380]
    RMS electron-hole separation [Ang]:   4.004013
      Cartesian components [Ang]:       [  1.723269,   1.996054,   3.013011]
    Covariance(r_h, r_e) [Ang^2]:         0.009408
    Correlation coefficient:              0.002239
    Center-of-mass size [Ang]:            1.534948
      Cartesian components [Ang]:       [  0.865835,   0.998962,   0.780046]

  Decomposition into state-averaged NTOs
    H- 0 -> L+ 1:  0.6638 ( 88.1%)
    H- 2 -> L+ 0:  0.1007 (  2.0%)
                   omega =  91.4%
  ----------------------------------------------------------------------------


  Excited state 4 (singlet, B2)                                    [converged]
  ----------------------------------------------------------------------------
  Term symbol:  4 (1) B2                                    R^2 =  3.34074e-11

  Total energy:                                            -78.4651876397 a.u.
  Excitation energy:                                               9.054638 eV

  Osc. strength:                                                      0.009481
  Trans. dip. moment [a.u.]:           [   0.000001,    0.206739,   -0.000000]
  <i|r^2|0> [a.u.]:                    [   0.000000,    0.000000,    0.000000]

  Dip. moment [a.u.]:                  [   0.000000,    0.000001,   -3.130845]
  Total dipole [Debye]:                                               7.957815
  <r^2> [a.u.]:                        [  59.039109,   26.980405,   72.658753]
  Total <r^2> [a.u.]:                                               158.678267

  V1^2 = 0.9469, V2^2 = 0.0531

  Important amplitudes:
      occ i      occ j       vir a       vir b          v   
    ---------------------------------------------------------
     1 (A2) A               5 (B1) A                 -0.4111
     1 (A2) A               4 (B1) A                  0.3833
    ---------------------------------------------------------

  Density matrix analysis:
  ------------------------
  NOs
    Occupation of frontier NOs:
       0.9923   1.0175
    Number of electrons: 18.000000
    Number of unpaired electrons: n_u =  2.45075, n_u,nl =  2.05579
    NO participation ratio (PR_NO):  3.057098
  
  
  Mulliken Population Analysis
  Atom      Charge (e)              h+              e-           Del q
  --------------------------------------------------------------------
   1 C       -0.692963        0.253074       -0.545355       -0.292280
   2 C       -0.692963        0.253074       -0.545355       -0.292280
   3 H        0.231021        0.148562       -0.004813        0.143749
   4 H        0.231052        0.148563       -0.004813        0.143750
   5 H        0.231042        0.148563       -0.004813        0.143750
   6 H        0.231011        0.148562       -0.004813        0.143749
   7 H       -0.538199        0.010420       -0.000857        0.009563
  --------------------------------------------------------------------
  Sum:       -1.000000        1.110819       -1.110819       -0.000000
  
  Multipole moment analysis of the density matrix
    Molecular charge:                      -1.000000
    Number of electrons:                   18.000000
      Center of electronic charge [Ang]: [ -0.000000,   0.000000,   0.092043]
    Total nuclear charge:                  17.000000
      Center of nuclear charge [Ang]:    [  0.000000,   0.000000,  -0.000000]
    Dipole moment [D]:                     7.957813
      Cartesian components [D]:          [  0.000000,   0.000002,  -7.957813]
    RMS size of the density [Ang]:         1.568473
      Cartesian components [Ang]:        [  0.958373,   0.647872,   1.059193]
  
  Exciton analysis of the difference density matrix
    <r_h> [Ang]:                  [ -0.000000,   0.000000,  -0.179706]
    <r_e> [Ang]:                  [ -0.000000,  -0.000000,  -0.654485]
    |<r_e - r_h>| [Ang]:            0.474779
    Hole size [Ang]:                1.625544
      Cartesian components [Ang]: [  1.151034,   0.955335,   0.636278]
    Electron size [Ang]:            2.275990
      Cartesian components [Ang]: [  1.676885,   0.931921,   1.224627]

  Transition density matrix analysis:
  -----------------------------------
  
  CT numbers (Mulliken)
    omega =     0.9196
    <Phe> =    -0.0103
  
  Exciton analysis of the transition density matrix
    Trans. dipole moment [D]:             0.262739
      Cartesian components [D]:         [  0.000002,   0.262739,  -0.000000]
    <r_h> [Ang]:                        [ -0.000000,   0.000001,  -0.168347]
    <r_e> [Ang]:                        [ -0.000000,  -0.000001,  -0.715943]
    |<r_e - r_h>| [Ang]:                  0.547596
    Hole size [Ang]:                      1.528725
      Cartesian components [Ang]:       [  1.124087,   0.939920,   0.435867]
    Electron size [Ang]:                  2.327259
      Cartesian components [Ang]:       [  1.732418,   0.939714,   1.237658]
    RMS electron-hole separation [Ang]:   2.791307
      Cartesian components [Ang]:       [  2.008825,   1.319842,   1.419166]
    Covariance(r_h, r_e) [Ang^2]:         0.130800
    Correlation coefficient:              0.036765
    Center-of-mass size [Ang]:            1.415515
      Cartesian components [Ang]:       [  1.059989,   0.669149,   0.657530]

  Decomposition into state-averaged NTOs
    H- 1 -> L+ 3:  0.6276 ( 78.8%)
    H- 1 -> L+ 4: -0.2413 ( 11.6%)
                   omega =  92.0%
  ----------------------------------------------------------------------------


  Excited state 5 (singlet, B2)                                    [converged]
  ----------------------------------------------------------------------------
  Term symbol:  5 (1) B2                                    R^2 =  1.43101e-11

  Total energy:                                            -78.4507078401 a.u.
  Excitation energy:                                               9.448653 eV

  Osc. strength:                                                      0.005875
  Trans. dip. moment [a.u.]:           [  -0.000015,   -0.159313,   -0.000001]
  <i|r^2|0> [a.u.]:                    [  -0.000002,   -0.000001,   -0.000004]

  Dip. moment [a.u.]:                  [   0.000000,   -0.000000,    0.291735]
  Total dipole [Debye]:                                               0.741516
  <r^2> [a.u.]:                        [  55.540237,   37.547426,   48.594804]
  Total <r^2> [a.u.]:                                               141.682467

  V1^2 = 0.9405, V2^2 = 0.0595

  Important amplitudes:
      occ i      occ j       vir a       vir b          v   
    ---------------------------------------------------------
     5 (A1) A               4 (B2) A                  0.6736
     1 (A2) A               3 (B1) A                 -0.0916
    ---------------------------------------------------------

  Density matrix analysis:
  ------------------------
  NOs
    Occupation of frontier NOs:
       0.9629   1.0137
    Number of electrons: 18.000000
    Number of unpaired electrons: n_u =  2.45710, n_u,nl =  2.06086
    NO participation ratio (PR_NO):  3.149891
  
  
  Mulliken Population Analysis
  Atom      Charge (e)              h+              e-           Del q
  --------------------------------------------------------------------
   1 C       -1.083069        0.301500       -0.983885       -0.682386
   2 C       -1.083069        0.301500       -0.983885       -0.682386
   3 H        0.285256       -0.002177        0.200161        0.197984
   4 H        0.285288       -0.002177        0.200163        0.197986
   5 H        0.285278       -0.002177        0.200163        0.197986
   6 H        0.285246       -0.002177        0.200161        0.197984
   7 H        0.025070        0.601225       -0.028393        0.572831
  --------------------------------------------------------------------
  Sum:       -1.000000        1.195516       -1.195516        0.000000
  
  Multipole moment analysis of the density matrix
    Molecular charge:                      -1.000000
    Number of electrons:                   18.000000
      Center of electronic charge [Ang]: [ -0.000000,   0.000000,  -0.008577]
    Total nuclear charge:                  17.000000
      Center of nuclear charge [Ang]:    [  0.000000,   0.000000,  -0.000000]
    Dipole moment [D]:                     0.741516
      Cartesian components [D]:          [  0.000000,  -0.000000,   0.741516]
    RMS size of the density [Ang]:         1.484621
      Cartesian components [Ang]:        [  0.929541,   0.764284,   0.869438]
  
  Exciton analysis of the difference density matrix
    <r_h> [Ang]:                  [ -0.000000,   0.000000,   1.935218]
    <r_e> [Ang]:                  [ -0.000000,  -0.000000,  -0.020879]
    |<r_e - r_h>| [Ang]:            1.956097
    Hole size [Ang]:                2.059535
      Cartesian components [Ang]: [  0.996970,   0.971926,   1.517594]
    Electron size [Ang]:            2.594474
      Cartesian components [Ang]: [  1.247443,   1.838129,   1.340321]

  Transition density matrix analysis:
  -----------------------------------
  
  CT numbers (Mulliken)
    omega =     0.9270
    <Phe> =    -0.0017
  
  Exciton analysis of the transition density matrix
    Trans. dipole moment [D]:             0.202466
      Cartesian components [D]:         [ -0.000019,  -0.202466,  -0.000001]
    <r_h> [Ang]:                        [ -0.000000,   0.000000,   2.394936]
    <r_e> [Ang]:                        [ -0.000000,  -0.000000,  -0.173291]
    |<r_e - r_h>| [Ang]:                  2.568228
    Hole size [Ang]:                      1.624370
      Cartesian components [Ang]:       [  0.832238,   0.809030,   1.136410]
    Electron size [Ang]:                  2.638564
      Cartesian components [Ang]:       [  1.229338,   1.951187,   1.282036]
    RMS electron-hole separation [Ang]:   4.016061
      Cartesian components [Ang]:       [  1.473777,   2.110404,   3.082681]
    Covariance(r_h, r_e) [Ang^2]:         0.033823
    Correlation coefficient:              0.007892
    Center-of-mass size [Ang]:            1.554690
      Cartesian components [Ang]:       [  0.747624,   1.057062,   0.860662]

  Decomposition into state-averaged NTOs
    H- 0 -> L+ 2: -0.6696 ( 89.7%)
    H- 1 -> L+ 4: -0.0899 (  1.6%)
                   omega =  92.7%
  ----------------------------------------------------------------------------


  Excited state 6 (singlet, B2)                                    [converged]
  ----------------------------------------------------------------------------
  Term symbol:  6 (1) B2                                    R^2 =  6.77279e-11

  Total energy:                                            -78.4435623782 a.u.
  Excitation energy:                                               9.643091 eV

  Osc. strength:                                                      0.068343
  Trans. dip. moment [a.u.]:           [   0.000000,    0.537849,    0.000000]
  <i|r^2|0> [a.u.]:                    [  -0.000002,   -0.000002,    0.000001]

  Dip. moment [a.u.]:                  [  -0.000000,   -0.000002,   -3.988699]
  Total dipole [Debye]:                                              10.138263
  <r^2> [a.u.]:                        [  77.834282,   30.490994,   70.681705]
  Total <r^2> [a.u.]:                                               179.006981

  V1^2 = 0.9379, V2^2 = 0.0621

  Important amplitudes:
      occ i      occ j       vir a       vir b          v   
    ---------------------------------------------------------
     1 (A2) A               3 (B1) A                 -0.5439
     1 (A2) A               4 (B1) A                 -0.2857
    ---------------------------------------------------------

  Density matrix analysis:
  ------------------------
  NOs
    Occupation of frontier NOs:
       0.9576   1.0490
    Number of electrons: 18.000000
    Number of unpaired electrons: n_u =  2.48911, n_u,nl =  2.07957
    NO participation ratio (PR_NO):  3.358438
  
  
  Mulliken Population Analysis
  Atom      Charge (e)              h+              e-           Del q
  --------------------------------------------------------------------
   1 C       -0.707699        0.247891       -0.554907       -0.307016
   2 C       -0.707699        0.247891       -0.554907       -0.307016
   3 H        0.234071        0.181847       -0.035047        0.146799
   4 H        0.234102        0.181848       -0.035048        0.146800
   5 H        0.234092        0.181848       -0.035047        0.146801
   6 H        0.234062        0.181846       -0.035047        0.146800
   7 H       -0.520929        0.031929       -0.005096        0.026833
  --------------------------------------------------------------------
  Sum:       -1.000000        1.255099       -1.255099       -0.000000
  
  Multipole moment analysis of the density matrix
    Molecular charge:                      -1.000000
    Number of electrons:                   18.000000
      Center of electronic charge [Ang]: [  0.000000,   0.000000,   0.117262]
    Total nuclear charge:                  17.000000
      Center of nuclear charge [Ang]:    [  0.000000,   0.000000,  -0.000000]
    Dipole moment [D]:                     10.138260
      Cartesian components [D]:          [ -0.000000,  -0.000006, -10.138260]
    RMS size of the density [Ang]:         1.664658
      Cartesian components [Ang]:        [  1.100399,   0.688733,   1.042044]
  
  Exciton analysis of the difference density matrix
    <r_h> [Ang]:                  [ -0.000000,   0.000000,  -0.148844]
    <r_e> [Ang]:                  [  0.000000,   0.000001,  -0.207354]
    |<r_e - r_h>| [Ang]:            0.058510
    Hole size [Ang]:                1.803860
      Cartesian components [Ang]: [  1.212372,   1.001553,   0.883716]
    Electron size [Ang]:            3.219503
      Cartesian components [Ang]: [  2.641857,   1.321838,   1.280054]

  Transition density matrix analysis:
  -----------------------------------
  
  CT numbers (Mulliken)
    omega =     0.9195
    <Phe> =    -0.0067
  
  Exciton analysis of the transition density matrix
    Trans. dipole moment [D]:             0.683537
      Cartesian components [D]:         [  0.000001,   0.683537,   0.000000]
    <r_h> [Ang]:                        [ -0.000000,   0.000001,  -0.115624]
    <r_e> [Ang]:                        [  0.000000,   0.000001,  -0.213012]
    |<r_e - r_h>| [Ang]:                  0.097388
    Hole size [Ang]:                      1.577270
      Cartesian components [Ang]:       [  1.121270,   0.939879,   0.589203]
    Electron size [Ang]:                  3.503127
      Cartesian components [Ang]:       [  2.905735,   1.423718,   1.342248]
    RMS electron-hole separation [Ang]:   3.719173
      Cartesian components [Ang]:       [  2.978674,   1.675476,   1.467151]
    Covariance(r_h, r_e) [Ang^2]:         0.468458
    Correlation coefficient:              0.084783
    Center-of-mass size [Ang]:            1.980946
      Cartesian components [Ang]:       [  1.622389,   0.867967,   0.733916]

  Decomposition into state-averaged NTOs
    H- 1 -> L+ 4: -0.5554 ( 61.7%)
    H- 1 -> L+ 5:  0.2721 ( 14.8%)
    H- 1 -> L+ 3: -0.2450 ( 12.0%)
    H- 0 -> L+ 2:  0.1017 (  2.1%)
                   omega =  91.9%
  ----------------------------------------------------------------------------


  Excited state 7 (singlet, B2)                                    [converged]
  ----------------------------------------------------------------------------
  Term symbol:  7 (1) B2                                    R^2 =  8.50134e-11

  Total energy:                                            -78.3958622491 a.u.
  Excitation energy:                                              10.941078 eV

  Osc. strength:                                                      0.088555
  Trans. dip. moment [a.u.]:           [   0.000002,   -0.574775,   -0.000000]
  <i|r^2|0> [a.u.]:                    [   0.000001,    0.000001,    0.000000]

  Dip. moment [a.u.]:                  [   0.000000,   -0.000001,   -4.160139]
  Total dipole [Debye]:                                              10.574022
  <r^2> [a.u.]:                        [  56.921591,   48.035148,   71.781227]
  Total <r^2> [a.u.]:                                               176.737966

  V1^2 = 0.9263, V2^2 = 0.0737

  Important amplitudes:
      occ i      occ j       vir a       vir b          v   
    ---------------------------------------------------------
     3 (A1) A               2 (B2) A                  0.6619
     3 (A1) A               3 (B2) A                 -0.1286
    ---------------------------------------------------------

  Density matrix analysis:
  ------------------------
  NOs
    Occupation of frontier NOs:
       0.9841   1.0129
    Number of electrons: 18.000000
    Number of unpaired electrons: n_u =  2.47312, n_u,nl =  2.06527
    NO participation ratio (PR_NO):  3.120416
  
  
  Mulliken Population Analysis
  Atom      Charge (e)              h+              e-           Del q
  --------------------------------------------------------------------
   1 C       -0.603714        0.430911       -0.633941       -0.203030
   2 C       -0.603714        0.430911       -0.633941       -0.203030
   3 H        0.184430        0.145186       -0.048029        0.097157
   4 H        0.184460        0.145187       -0.048028        0.097158
   5 H        0.184450        0.145187       -0.048029        0.097158
   6 H        0.184419        0.145186       -0.048029        0.097157
   7 H       -0.530331        0.025852       -0.008421        0.017431
  --------------------------------------------------------------------
  Sum:       -1.000000        1.468418       -1.468418       -0.000000
  
  Multipole moment analysis of the density matrix
    Molecular charge:                      -1.000000
    Number of electrons:                   18.000000
      Center of electronic charge [Ang]: [ -0.000000,   0.000000,   0.122303]
    Total nuclear charge:                  17.000000
      Center of nuclear charge [Ang]:    [  0.000000,   0.000000,  -0.000000]
    Dipole moment [D]:                     10.574019
      Cartesian components [D]:          [  0.000000,  -0.000002, -10.574019]
    RMS size of the density [Ang]:         1.653656
      Cartesian components [Ang]:        [  0.941030,   0.864459,   1.049644]
  
  Exciton analysis of the difference density matrix
    <r_h> [Ang]:                  [  0.000000,   0.000000,  -0.180420]
    <r_e> [Ang]:                  [  0.000000,   0.000000,  -0.168648]
    |<r_e - r_h>| [Ang]:            0.011772
    Hole size [Ang]:                1.700244
      Cartesian components [Ang]: [  1.183893,   0.866271,   0.859536]
    Electron size [Ang]:            2.925453
      Cartesian components [Ang]: [  1.456954,   2.175352,   1.305146]

  Transition density matrix analysis:
  -----------------------------------
  
  CT numbers (Mulliken)
    omega =     0.9080
    <Phe> =    -0.0038
  
  Exciton analysis of the transition density matrix
    Trans. dipole moment [D]:             0.730466
      Cartesian components [D]:         [  0.000002,  -0.730466,  -0.000000]
    <r_h> [Ang]:                        [ -0.000000,   0.000000,  -0.173232]
    <r_e> [Ang]:                        [ -0.000000,   0.000000,  -0.174950]
    |<r_e - r_h>| [Ang]:                  0.001718
    Hole size [Ang]:                      1.335410
      Cartesian components [Ang]:       [  1.106288,   0.618090,   0.421203]
    Electron size [Ang]:                  3.389732
      Cartesian components [Ang]:       [  1.649882,   2.578266,   1.456267]
    RMS electron-hole separation [Ang]:   3.602940
      Cartesian components [Ang]:       [  1.927616,   2.639572,   1.515959]
    Covariance(r_h, r_e) [Ang^2]:         0.146214
    Correlation coefficient:              0.032300
    Center-of-mass size [Ang]:            1.841605
      Cartesian components [Ang]:       [  1.021796,   1.331507,   0.757978]

  Decomposition into state-averaged NTOs
    H- 3 -> L+ 0: -0.6698 ( 89.7%)
                   omega =  90.8%
  ----------------------------------------------------------------------------


  Excited state 8 (singlet, B2)                                    [converged]
  ----------------------------------------------------------------------------
  Term symbol:  8 (1) B2                                    R^2 =  4.09263e-11

  Total energy:                                            -78.3688071628 a.u.
  Excitation energy:                                              11.677284 eV

  Osc. strength:                                                      0.000665
  Trans. dip. moment [a.u.]:           [   0.000002,   -0.048211,   -0.000000]
  <i|r^2|0> [a.u.]:                    [  -0.000000,   -0.000000,   -0.000000]

  Dip. moment [a.u.]:                  [   0.000000,   -0.000001,   -4.060445]
  Total dipole [Debye]:                                              10.320624
  <r^2> [a.u.]:                        [  58.123476,   36.837835,   67.655909]
  Total <r^2> [a.u.]:                                               162.617220

  V1^2 = 0.9547, V2^2 = 0.0453

  Important amplitudes:
      occ i      occ j       vir a       vir b          v   
    ---------------------------------------------------------
     4 (A1) A               3 (B2) A                 -0.6521
     1 (A2) A               4 (B1) A                 -0.1229
    ---------------------------------------------------------

  Density matrix analysis:
  ------------------------
  NOs
    Occupation of frontier NOs:
       0.9436   1.0230
    Number of electrons: 18.000000
    Number of unpaired electrons: n_u =  2.40081, n_u,nl =  2.04777
    NO participation ratio (PR_NO):  3.100068
  
  
  Mulliken Population Analysis
  Atom      Charge (e)              h+              e-           Del q
  --------------------------------------------------------------------
   1 C       -0.112298        0.528728       -0.240342        0.288386
   2 C       -0.112298        0.528728       -0.240342        0.288386
   3 H       -0.061674        0.037913       -0.186860       -0.148946
   4 H       -0.061639        0.037914       -0.186856       -0.148941
   5 H       -0.061650        0.037914       -0.186856       -0.148942
   6 H       -0.061684        0.037913       -0.186860       -0.148947
   7 H       -0.528757        0.032305       -0.013300        0.019005
  --------------------------------------------------------------------
  Sum:       -1.000000        1.241415       -1.241415        0.000000
  
  Multipole moment analysis of the density matrix
    Molecular charge:                      -1.000000
    Number of electrons:                   18.000000
      Center of electronic charge [Ang]: [ -0.000000,   0.000000,   0.119372]
    Total nuclear charge:                  17.000000
      Center of nuclear charge [Ang]:    [  0.000000,   0.000000,  -0.000000]
    Dipole moment [D]:                     10.320621
      Cartesian components [D]:          [  0.000000,  -0.000002, -10.320621]
    RMS size of the density [Ang]:         1.586067
      Cartesian components [Ang]:        [  0.950913,   0.757028,   1.018962]
  
  Exciton analysis of the difference density matrix
    <r_h> [Ang]:                  [ -0.000000,   0.000000,  -0.114615]
    <r_e> [Ang]:                  [ -0.000000,   0.000000,  -0.143187]
    |<r_e - r_h>| [Ang]:            0.028572
    Hole size [Ang]:                1.651446
      Cartesian components [Ang]: [  0.971740,   0.791428,   1.075471]
    Electron size [Ang]:            2.496715
      Cartesian components [Ang]: [  1.438180,   1.676418,   1.163977]

  Transition density matrix analysis:
  -----------------------------------
  
  CT numbers (Mulliken)
    omega =     0.9219
    <Phe> =    -0.0091
  
  Exciton analysis of the transition density matrix
    Trans. dipole moment [D]:             0.061271
      Cartesian components [D]:         [  0.000002,  -0.061271,  -0.000000]
    <r_h> [Ang]:                        [ -0.000000,   0.000000,  -0.134839]
    <r_e> [Ang]:                        [  0.000000,  -0.000000,  -0.172089]
    |<r_e - r_h>| [Ang]:                  0.037249
    Hole size [Ang]:                      1.368401
      Cartesian components [Ang]:       [  0.784793,   0.555645,   0.973592]
    Electron size [Ang]:                  2.655305
      Cartesian components [Ang]:       [  1.533087,   1.811590,   1.190980]
    RMS electron-hole separation [Ang]:   2.973120
      Cartesian components [Ang]:       [  1.699962,   1.893472,   1.537638]
    Covariance(r_h, r_e) [Ang^2]:         0.042557
    Correlation coefficient:              0.011712
    Center-of-mass size [Ang]:            1.500690
      Cartesian components [Ang]:       [  0.872158,   0.948151,   0.769689]

  Decomposition into state-averaged NTOs
    H- 2 -> L+ 1:  0.6639 ( 88.2%)
    H- 1 -> L+ 5: -0.1078 (  2.3%)
                   omega =  92.2%
  ----------------------------------------------------------------------------


  Excited state 9 (singlet, B2)                                    [converged]
  ----------------------------------------------------------------------------
  Term symbol:  9 (1) B2                                    R^2 =  9.05071e-07

  Total energy:                                            -78.3605794234 a.u.
  Excitation energy:                                              11.901172 eV

  Osc. strength:                                                      0.000020
  Trans. dip. moment [a.u.]:           [   0.000000,   -0.008315,   -0.000000]
  <i|r^2|0> [a.u.]:                    [  -0.000000,   -0.000000,    0.000000]

  Dip. moment [a.u.]:                  [   0.000000,   -0.000002,    8.134075]
  Total dipole [Debye]:                                              20.674760
  <r^2> [a.u.]:                        [  88.697336,   58.875740,   38.319820]
  Total <r^2> [a.u.]:                                               185.892897

  V1^2 = 0.0009, V2^2 = 0.9991

  Important amplitudes:
      occ i      occ j       vir a       vir b          v   
    ---------------------------------------------------------
     5 (A1) A   5 (A1) B    6 (A1) A    2 (B2) B      0.3532
     5 (A1) A               2 (B2) A                 -0.0180
    ---------------------------------------------------------

  Density matrix analysis:
  ------------------------
  NOs
    Occupation of frontier NOs:
       1.0016   1.0028
    Number of electrons: 18.000000
    Number of unpaired electrons: n_u =  2.40619, n_u,nl =  2.06108
    NO participation ratio (PR_NO):  2.884706
  
  
  Mulliken Population Analysis
  Atom      Charge (e)              h+              e-           Del q
  --------------------------------------------------------------------
   1 C       -1.151814        0.261913       -1.013044       -0.751131
   2 C       -1.151814        0.261913       -1.013044       -0.751131
   3 H        0.074533       -0.018562        0.005823       -0.012739
   4 H        0.074563       -0.018562        0.005823       -0.012739
   5 H        0.074553       -0.018562        0.005823       -0.012739
   6 H        0.074523       -0.018562        0.005823       -0.012739
   7 H        1.005456        1.550128        0.003089        1.553218
  --------------------------------------------------------------------
  Sum:       -1.000000        1.999708       -1.999708        0.000000
  
  Multipole moment analysis of the density matrix
    Molecular charge:                      -1.000000
    Number of electrons:                   18.000000
      Center of electronic charge [Ang]: [ -0.000000,   0.000000,  -0.239132]
    Total nuclear charge:                  17.000000
      Center of nuclear charge [Ang]:    [  0.000000,   0.000000,  -0.000000]
    Dipole moment [D]:                     20.674754
      Cartesian components [D]:          [  0.000000,  -0.000004,  20.674754]
    RMS size of the density [Ang]:         1.683680
      Cartesian components [Ang]:        [  1.174682,   0.957047,   0.734141]
  
  Exciton analysis of the difference density matrix
    <r_h> [Ang]:                  [ -0.000000,   0.000000,   2.523181]
    <r_e> [Ang]:                  [  0.000000,   0.000000,  -0.721559]
    |<r_e - r_h>| [Ang]:            3.244740
    Hole size [Ang]:                1.495688
      Cartesian components [Ang]: [  0.789811,   0.783952,   0.999349]
    Electron size [Ang]:            3.677440
      Cartesian components [Ang]: [  2.367073,   2.248664,   1.692348]

  Transition density matrix analysis:
  -----------------------------------
  
  CT numbers (Mulliken)
    omega =     0.0010
    <Phe> =     0.0313
  
  Exciton analysis of the transition density matrix
    Trans. dipole moment [D]:             0.010567
      Cartesian components [D]:         [  0.000000,  -0.010567,  -0.000000]
    <r_h> [Ang]:                        [  0.000000,   0.000000,   2.283125]
    <r_e> [Ang]:                        [  0.000000,   0.000000,  -0.251885]
    |<r_e - r_h>| [Ang]:                  2.535010
    Hole size [Ang]:                      1.817959
      Cartesian components [Ang]:       [  0.751548,   0.892833,   1.393915]
    Electron size [Ang]:                  3.424495
      Cartesian components [Ang]:       [  1.763514,   2.504008,   1.532032]
    RMS electron-hole separation [Ang]:   4.612061
      Cartesian components [Ang]:       [  1.908754,   2.691441,   3.222408]
    Covariance(r_h, r_e) [Ang^2]:         0.093652
    Correlation coefficient:              0.015043
    Center-of-mass size [Ang]:            1.950605
      Cartesian components [Ang]:       [  0.962584,   1.312494,   1.075012]

  Decomposition into state-averaged NTOs
                   omega =   0.1%
  ----------------------------------------------------------------------------


  Excited state 10 (singlet, B2)                                    [converged]
  ----------------------------------------------------------------------------
  Term symbol:  10 (1) B2                                   R^2 =  6.62233e-10

  Total energy:                                            -78.3530729058 a.u.
  Excitation energy:                                              12.105435 eV

  Osc. strength:                                                      0.000393
  Trans. dip. moment [a.u.]:           [  -0.000002,   -0.036391,   -0.000000]
  <i|r^2|0> [a.u.]:                    [  -0.000002,   -0.000001,   -0.000001]

  Dip. moment [a.u.]:                  [  -0.000000,   -0.000000,   -4.028160]
  Total dipole [Debye]:                                              10.238563
  <r^2> [a.u.]:                        [  70.525582,   30.470162,   83.430740]
  Total <r^2> [a.u.]:                                               184.426484

  V1^2 = 0.9361, V2^2 = 0.0639

  Important amplitudes:
      occ i      occ j       vir a       vir b          v   
    ---------------------------------------------------------
     1 (A2) A               4 (B1) A                 -0.4676
     1 (A2) A               5 (B1) A                 -0.4348
    ---------------------------------------------------------

  Density matrix analysis:
  ------------------------
  NOs
    Occupation of frontier NOs:
       0.9461   1.0597
    Number of electrons: 18.000000
    Number of unpaired electrons: n_u =  2.48887, n_u,nl =  2.09543
    NO participation ratio (PR_NO):  3.425248
  
  
  Mulliken Population Analysis
  Atom      Charge (e)              h+              e-           Del q
  --------------------------------------------------------------------
   1 C       -0.736117        0.281068       -0.616501       -0.335433
   2 C       -0.736117        0.281068       -0.616501       -0.335433
   3 H        0.247933        0.170383       -0.009723        0.160660
   4 H        0.247964        0.170384       -0.009723        0.160662
   5 H        0.247953        0.170384       -0.009723        0.160662
   6 H        0.247922        0.170383       -0.009723        0.160660
   7 H       -0.519539        0.033037       -0.004814        0.028223
  --------------------------------------------------------------------
  Sum:       -1.000000        1.276707       -1.276707        0.000000
  
  Multipole moment analysis of the density matrix
    Molecular charge:                      -1.000000
    Number of electrons:                   18.000000
      Center of electronic charge [Ang]: [  0.000000,   0.000000,   0.118423]
    Total nuclear charge:                  17.000000
      Center of nuclear charge [Ang]:    [  0.000000,   0.000000,  -0.000000]
    Dipole moment [D]:                     10.238560
      Cartesian components [D]:          [ -0.000000,  -0.000001, -10.238560]
    RMS size of the density [Ang]:         1.689711
      Cartesian components [Ang]:        [  1.047462,   0.688497,   1.133102]
  
  Exciton analysis of the difference density matrix
    <r_h> [Ang]:                  [ -0.000000,   0.000000,  -0.153044]
    <r_e> [Ang]:                  [  0.000000,   0.000000,  -0.194208]
    |<r_e - r_h>| [Ang]:            0.041164
    Hole size [Ang]:                1.793121
      Cartesian components [Ang]: [  1.199113,   1.002911,   0.878396]
    Electron size [Ang]:            3.376552
      Cartesian components [Ang]: [  2.291532,   1.316364,   2.101707]

  Transition density matrix analysis:
  -----------------------------------
  
  CT numbers (Mulliken)
    omega =     0.9178
    <Phe> =    -0.0045
  
  Exciton analysis of the transition density matrix
    Trans. dipole moment [D]:             0.046248
      Cartesian components [D]:         [ -0.000003,  -0.046248,  -0.000000]
    <r_h> [Ang]:                        [ -0.000000,   0.000001,  -0.173179]
    <r_e> [Ang]:                        [  0.000000,   0.000000,  -0.224167]
    |<r_e - r_h>| [Ang]:                  0.050988
    Hole size [Ang]:                      1.521855
      Cartesian components [Ang]:       [  1.116138,   0.932761,   0.447477]
    Electron size [Ang]:                  3.701974
      Cartesian components [Ang]:       [  2.524876,   1.413912,   2.308780]
    RMS electron-hole separation [Ang]:   3.939630
      Cartesian components [Ang]:       [  2.668974,   1.692766,   2.351980]
    Covariance(r_h, r_e) [Ang^2]:         0.251282
    Correlation coefficient:              0.044602
    Center-of-mass size [Ang]:            2.032438
      Cartesian components [Ang]:       [  1.424614,   0.847485,   1.176031]

  Decomposition into state-averaged NTOs
    H- 1 -> L+ 5: -0.6006 ( 72.1%)
    H- 1 -> L+ 4: -0.2738 ( 15.0%)
    H- 2 -> L+ 1: -0.1291 (  3.3%)
                   omega =  91.8%
  ----------------------------------------------------------------------------


--------------------------------------------------------------------------------
  Time of ADC calculation:  CPU 296.12 s  wall 70.84 s
================================================================================
 
 --------------------------------------------------------------
             Orbital Energies (a.u.) and Symmetries
 --------------------------------------------------------------
 
 Alpha MOs, Restricted
 -- Occupied --                  
-11.070 -11.068  -0.872  -0.617  -0.494  -0.402  -0.352  -0.206
  1 A1    1 B1    2 A1    2 B1    1 B2    3 A1    1 A2    4 A1                 
 -0.007
  5 A1                                                                         
 -- Virtual --                   
  0.191   0.206   0.218   0.242   0.244   0.244   0.338   0.349
  3 B1    6 A1    2 B2    2 A2    4 B1    7 A1    8 A1    5 B1                 
  0.357   0.456   0.472   0.477   0.513   0.513   0.525   0.543
  6 B1    9 A1    3 B2    7 B1   10 A1    8 B1    4 B2    3 A2                 
  0.557   0.630   0.703   0.781   1.006   1.021   1.088   1.091
 11 A1    9 B1    4 A2   10 B1    5 B2   12 A1   13 A1   11 B1                 
  1.147   1.183   1.252   1.253   1.284   1.308   1.357   1.373
 14 A1    5 A2   15 A1    6 B2    7 B2   12 B1   16 A1   13 B1                 
  1.451   1.477   1.481   1.636   1.792   1.883   1.899   1.923
  6 A2   17 A1   14 B1    7 A2   18 A1    8 A2    8 B2    9 B2                 
  1.957   1.989   2.048   2.131   2.133   2.183   2.258   2.268
 15 B1   19 A1   16 B1   17 B1   20 A1   10 B2   21 A1   11 B2                 
  2.353   2.502   2.580   2.647   2.723   2.746   3.018   3.027
 18 B1   19 B1    9 A2   22 A1   10 A2   20 B1   12 B2   23 A1                 
  3.440   3.511
 21 B1   11 A2                                                                 
 
 Beta MOs, Restricted
 -- Occupied --                  
-11.070 -11.068  -0.872  -0.617  -0.494  -0.402  -0.352  -0.206
  1 A1    1 B1    2 A1    2 B1    1 B2    3 A1    1 A2    4 A1                 
 -0.007
  5 A1                                                                         
 -- Virtual --                   
  0.191   0.206   0.218   0.242   0.244   0.244   0.338   0.349
  3 B1    6 A1    2 B2    2 A2    4 B1    7 A1    8 A1    5 B1                 
  0.357   0.456   0.472   0.477   0.513   0.513   0.525   0.543
  6 B1    9 A1    3 B2    7 B1   10 A1    8 B1    4 B2    3 A2                 
  0.557   0.630   0.703   0.781   1.006   1.021   1.088   1.091
 11 A1    9 B1    4 A2   10 B1    5 B2   12 A1   13 A1   11 B1                 
  1.147   1.183   1.252   1.253   1.284   1.308   1.357   1.373
 14 A1    5 A2   15 A1    6 B2    7 B2   12 B1   16 A1   13 B1                 
  1.451   1.477   1.481   1.636   1.792   1.883   1.899   1.923
  6 A2   17 A1   14 B1    7 A2   18 A1    8 A2    8 B2    9 B2                 
  1.957   1.989   2.048   2.131   2.133   2.183   2.258   2.268
 15 B1   19 A1   16 B1   17 B1   20 A1   10 B2   21 A1   11 B2                 
  2.353   2.502   2.580   2.647   2.723   2.746   3.018   3.027
 18 B1   19 B1    9 A2   22 A1   10 A2   20 B1   12 B2   23 A1                 
  3.440   3.511
 21 B1   11 A2                                                                 
 --------------------------------------------------------------
 
          Ground-State Mulliken Net Atomic Charges

     Atom                 Charge (a.u.)
  ----------------------------------------
      1 C                    -0.363496
      2 C                    -0.363496
      3 H                     0.077747
      4 H                     0.077777
      5 H                     0.077767
      6 H                     0.077736
      7 H                    -0.584035
  ----------------------------------------
  Sum of atomic charges =    -1.000000

 -----------------------------------------------------------------
                    Cartesian Multipole Moments
 -----------------------------------------------------------------
    Charge (ESU x 10^10)
                -4.8032
    Dipole Moment (Debye)
         X      -0.0000      Y      -0.0000      Z     -10.6511
       Tot      10.6511
    Quadrupole Moments (Debye-Ang)
        XX     -19.7136     XY       0.0000     YY     -18.4433
        XZ      -0.0000     YZ       0.0000     ZZ     -52.9966
    Octopole Moments (Debye-Ang^2)
       XXX       0.0000    XXY      -0.0000    XYY       0.0000
       YYY      -0.0000    XXZ     -10.4489    XYZ      -0.0000
       YYZ     -10.7682    XZZ       0.0000    YZZ      -0.0000
       ZZZ    -101.9091
    Hexadecapole Moments (Debye-Ang^3)
      XXXX     -94.1799   XXXY       0.0000   XXYY     -21.3293
      XYYY       0.0000   YYYY     -49.1224   XXXZ      -0.0000
      XXYZ       0.0000   XYYZ      -0.0000   YYYZ       0.0000
      XXZZ     -57.5712   XYZZ       0.0000   YYZZ     -49.9214
      XZZZ      -0.0000   YZZZ       0.0000   ZZZZ    -430.1514
 -----------------------------------------------------------------
 Total job time:  153.17s(wall), 340.69s(cpu) 
 Sat Mar 26 01:54:37 2022

        *************************************************************
        *                                                           *
        *  Thank you very much for using Q-Chem.  Have a nice day.  *
        *                                                           *
        *************************************************************


