/src/tsommerfeld/qchem/exe/qcprog.exe .input1.305556.13273.qcin.1 /src/jdavis/qchem.scratch/qchem13273/

                  Welcome to Q-Chem
     A Quantum Leap Into The Future Of Chemistry


 Q-Chem 5.4 (devel), Q-Chem, Inc., Pleasanton, CA (2021)

 E. Epifanovsky,  A. T. B. Gilbert,  Xintian Feng,  Joonho Lee,  Yuezhi Mao,  
 N. Mardirossian,  P. Pokhilko,  A. White,  M. Wormit,  M. P. Coons,  
 A. L. Dempwolff,  Zhengting Gan,  D. Hait,  P. R. Horn,  L. D. Jacobson,  
 I. Kaliman,  J. Kussmann,  A. W. Lange,  Ka Un Lao,  D. S. Levine,  Jie Liu,  
 S. C. McKenzie,  A. F. Morrison,  K. Nanda,  F. Plasser,  D. R. Rehn,  
 M. L. Vidal,  Zhi-Qiang You,  Ying Zhu,  B. Alam,  B. Albrecht,  
 A. Aldossary,  E. Alguire,  J. H. Andersen,  D. Barton,  K. Begam,  A. Behn,  
 Y. A. Bernard,  E. J. Berquist,  H. Burton,  A. Carreras,  K. Carter-Fenk,  
 R. Chakraborty,  A. D. Chien,  K. D. Closser,  V. Cofer-Shabica,  
 S. Dasgupta,  Jia Deng,  M. de Wergifosse,  M. Diedenhofen,  Hainam Do,  
 S. Ehlert,  Po-Tung Fang,  S. Fatehi,  Qingguo Feng,  T. Friedhoff,  
 J. Gayvert,  Qinghui Ge,  G. Gidofalvi,  M. Goldey,  J. Gomes,  
 C. Gonzalez-Espinoza,  S. Gulania,  A. Gunina,  M. W. D. Hanson-Heine,  
 P. H. P. Harbach,  A. W. Hauser,  M. F. Herbst,  M. Hernandez Vera,  
 M. Hodecker,  Z. C. Holden,  S. Houck,  Xunkun Huang,  Kerwin Hui,  
 B. C. Huynh,  M. Ivanov,  Hyunjun Ji,  Hanjie Jiang,  B. Kaduk,  S. Kaehler,  
 K. Khistyaev,  Jaehoon Kim,  P. Klunzinger,  Z. Koczor-Benda,  
 Joong Hoon Koh,  D. Kosenkov,  L. Koulias,  T. Kowalczyk,  C. M. Krauter,  
 K. Kue,  A. Kunitsa,  T. Kus,  A. Landau,  K. V. Lawler,  D. Lefrancois,  
 S. Lehtola,  Rain Li,  Yi-Pei Li,  Jiashu Liang,  M. Liebenthal,  
 Hung-Hsuan Lin,  You-Sheng Lin,  Fenglai Liu,  Kuan-Yu Liu,  
 M. Loipersberger,  A. Luenser,  A. Manjanath,  P. Manohar,  E. Mansoor,  
 S. F. Manzer,  Shan-Ping Mao,  A. V. Marenich,  T. Markovich,  S. Mason,  
 S. A. Maurer,  P. F. McLaughlin,  M. F. S. J. Menger,  J.-M. Mewes,  
 S. A. Mewes,  P. Morgante,  J. W. Mullinax,  K. J. Oosterbaan,  G. Paran,  
 Alexander C. Paul,  Suranjan K. Paul,  F. Pavosevic,  Zheng Pei,  S. Prager,  
 E. I. Proynov,  E. Ramos,  B. Rana,  A. E. Rask,  A. Rettig,  R. M. Richard,  
 F. Rob,  E. Rossomme,  T. Scheele,  M. Scheurer,  M. Schneider,  
 N. Sergueev,  S. M. Sharada,  W. Skomorowski,  D. W. Small,  C. J. Stein,  
 Yu-Chuan Su,  E. J. Sundstrom,  Zhen Tao,  J. Thirman,  T. Tsuchimochi,  
 N. M. Tubman,  S. P. Veccham,  O. Vydrov,  J. Wenzel,  J. Witte,  A. Yamada,  
 Kun Yao,  S. Yeganeh,  S. R. Yost,  A. Zech,  Igor Ying Zhang,  Xing Zhang,  
 Yu Zhang,  D. Zuev,  A. Aspuru-Guzik,  A. T. Bell,  N. A. Besley,  
 K. B. Bravaya,  B. R. Brooks,  D. Casanova,  Jeng-Da Chai,  S. Coriani,  
 C. J. Cramer,  A. E. DePrince, III,  R. A. DiStasio Jr.,  A. Dreuw,  
 B. D. Dunietz,  T. R. Furlani,  W. A. Goddard III,  S. Grimme,  
 S. Hammes-Schiffer,  T. Head-Gordon,  W. J. Hehre,  Chao-Ping Hsu,  
 T.-C. Jagau,  Yousung Jung,  A. Klamt,  Jing Kong,  D. S. Lambrecht,  
 WanZhen Liang,  N. J. Mayhall,  C. W. McCurdy,  J. B. Neaton,  
 C. Ochsenfeld,  J. A. Parkhill,  R. Peverati,  V. A. Rassolov,  Yihan Shao,  
 L. V. Slipchenko,  T. Stauch,  R. P. Steele,  J. E. Subotnik,  
 A. J. W. Thom,  A. Tkatchenko,  D. G. Truhlar,  T. Van Voorhis,  
 T. A. Wesolowski,  K. B. Whaley,  H. L. Woodcock III,  P. M. Zimmerman,  
 S. Faraji,  P. M. W. Gill,  M. Head-Gordon,  J. M. Herbert,  A. I. Krylov

 Additional authors for Version 5.4.1: 
 S. Kotaru,  Shaozhi Li,  Xiangyuan Li,  F. Matz,  A. Molle,  Haisheng Ren,  
 Yingli Su,  Hung-Yi Tsai,  C. Utku,  Fang Wang

 Contributors to earlier versions of Q-Chem not listed above: 
 R. D. Adamson,  B. Austin,  R. Baer,  J. Baker,  G. J. O. Beran,  
 K. Brandhorst,  S. T. Brown,  E. F. C. Byrd,  A. K. Chakraborty,  
 G. K. L. Chan,  Chun-Min Chang,  Yunqing Chen,  C.-L. Cheng,  
 Siu Hung Chien,  D. M. Chipman,  D. L. Crittenden,  H. Dachsel,  
 R. J. Doerksen,  A. D. Dutoi,  R. G. Edgar,  J. Fosso-Tande,  
 L. Fusti-Molnar,  D. Ghosh,  A. Ghysels,  A. Golubeva-Zadorozhnaya,  
 J. Gonthier,  M. S. Gordon,  S. R. Gwaltney,  G. Hawkins,  J. E. Herr,  
 A. Heyden,  S. Hirata,  E. G. Hohenstein,  G. Kedziora,  F. J. Keil,  
 C. Kelley,  Jihan Kim,  R. A. King,  R. Z. Khaliullin,  P. P. Korambath,  
 W. Kurlancheek,  A. Laurent,  A. M. Lee,  M. S. Lee,  S. V. Levchenko,  
 Ching Yeh Lin,  D. Liotard,  E. Livshits,  R. C. Lochan,  I. Lotan,  
 L. A. Martinez-Martinez,  P. E. Maslen,  N. Nair,  D. P. O'Neill,  
 D. Neuhauser,  E. Neuscamman,  C. M. Oana,  R. Olivares-Amaya,  R. Olson,  
 T. M. Perrine,  B. Peters,  P. A. Pieniazek,  A. Prociuk,  Y. M. Rhee,  
 J. Ritchie,  M. A. Rohrdanz,  E. Rosta,  N. J. Russ,  H. F. Schaefer III,  
 M. W. Schmidt,  N. E. Schultz,  S. Sharma,  N. Shenvi,  C. D. Sherrill,  
 A. C. Simmonett,  A. Sodt,  T. Stein,  D. Stuck,  K. S. Thanthiriwatte,  
 V. Vanovschi,  L. Vogt,  Tao Wang,  A. Warshel,  M. A. Watson,  
 C. F. Williams,  Q. Wu,  X. Xu,  Jun Yang,  W. Zhang,  Yan Zhao

 Please cite Q-Chem as follows:
 Y. Shao et al., Mol. Phys. 113, 184-215 (2015)
 DOI: 10.1080/00268976.2014.952696

 Q-Chem 5.4.1 for Intel X86 EM64T Linux

 Parts of Q-Chem use Armadillo 9.900.5 (Nocturnal Misbehaviour).
 http://arma.sourceforge.net/

 Q-Chem begins on Sat Mar 26 01:38:11 2022  

 Host: node01
0

     Scratch files written to /src/jdavis/qchem.scratch/qchem13273//
 Processing $rem in /src/tsommerfeld/qchem/config/preferences:
 Processing $rem in /home/jdavis/.qchemrc:

 Checking the input file for inconsistencies... 	...done.

--------------------------------------------------------------
User input:
--------------------------------------------------------------
$molecule
-1 1
C         0.0000003663    0.4438502432    0.6645000000
C         0.0000003663    0.4438502432   -0.6645000000
H        -0.9623486337    0.4438522630    1.1590800000
H        -0.9623486337    0.4438522630   -1.1590800000
H         0.9623483663    0.4438482235    1.1590800000
H         0.9623483663    0.4438482235   -1.1590800000
H        -0.0000038605   -2.4438482235    0.0000000000
$end

$rem
   METHOD adc(2)
   BASIS gen
   PURECART 11
   EE_STATES [0,0,0,10]
   scf_convergence 8
   ADC_DAVIDSON_MAXITER 120
   ADC_DAVIDSON_MAXSUBSPACE 200
   adc_nguess_singles 100
   THRESH 14
   S2THRESH 14
   adc_davidson_conv 5
   adc_davidson_thresh 14
   THREADS 10
   MEM_TOTAL 95000
   STATE_ANALYSIS TRUE
$end
$basis
C 1
S   9   1.00
      6.665000D+03           6.920000D-04
      1.000000D+03           5.329000D-03
      2.280000D+02           2.707700D-02
      6.471000D+01           1.017180D-01
      2.106000D+01           2.747400D-01
      7.495000D+00           4.485640D-01
      2.797000D+00           2.850740D-01
      5.215000D-01           1.520400D-02
      1.596000D-01          -3.191000D-03
S   9   1.00
      6.665000D+03          -1.460000D-04
      1.000000D+03          -1.154000D-03
      2.280000D+02          -5.725000D-03
      6.471000D+01          -2.331200D-02
      2.106000D+01          -6.395500D-02
      7.495000D+00          -1.499810D-01
      2.797000D+00          -1.272620D-01
      5.215000D-01           5.445290D-01
      1.596000D-01           5.804960D-01
S   1   1.00
      1.596000D-01           1.000000D+00
S   1   1.00
      0.0469000              1.0000000
P   4   1.00
      9.439000D+00           3.810900D-02
      2.002000D+00           2.094800D-01
      5.456000D-01           5.085570D-01
      1.517000D-01           4.688420D-01
P   1   1.00
      1.517000D-01           1.000000D+00
P   1   1.00
      0.0792211      1.0000000
P   1   1.00
      0.0396106      1.0000000
D   1   1.00
      5.500000D-01           1.0000000
****
C 2
S   9   1.00
      6.665000D+03           6.920000D-04
      1.000000D+03           5.329000D-03
      2.280000D+02           2.707700D-02
      6.471000D+01           1.017180D-01
      2.106000D+01           2.747400D-01
      7.495000D+00           4.485640D-01
      2.797000D+00           2.850740D-01
      5.215000D-01           1.520400D-02
      1.596000D-01          -3.191000D-03
S   9   1.00
      6.665000D+03          -1.460000D-04
      1.000000D+03          -1.154000D-03
      2.280000D+02          -5.725000D-03
      6.471000D+01          -2.331200D-02
      2.106000D+01          -6.395500D-02
      7.495000D+00          -1.499810D-01
      2.797000D+00          -1.272620D-01
      5.215000D-01           5.445290D-01
      1.596000D-01           5.804960D-01
S   1   1.00
      1.596000D-01           1.000000D+00
S   1   1.00
      0.0469000              1.0000000
P   4   1.00
      9.439000D+00           3.810900D-02
      2.002000D+00           2.094800D-01
      5.456000D-01           5.085570D-01
      1.517000D-01           4.688420D-01
P   1   1.00
      1.517000D-01           1.000000D+00
P   1   1.00
      0.0792211      1.0000000
P   1   1.00
      0.0396106      1.0000000
D   1   1.00
      5.500000D-01           1.0000000
****
H 3
cc-pVDZ
****
H 4
cc-pVDZ
****
H 5
cc-pVDZ
****
H 6
cc-pVDZ
****
H 7
aug-cc-pVDZ
****
$end
--------------------------------------------------------------
 Atom   2: ( -0.6645000000, -0.0000002280, -0.1698646157)
         ->( -0.6645000000,  0.0000002280, -0.1698646157)
 Atom   1: (  0.6645000000, -0.0000002280, -0.1698646157)
         ->(  0.6645000000,  0.0000000000, -0.1698646157)
 Atom   6: ( -1.1590800000, -0.9623482280, -0.1698633794)
         ->( -1.1590800000, -0.9623487720, -0.1698658521)
 Atom   5: (  1.1590800000, -0.9623482280, -0.1698633794)
         ->(  1.1590800000, -0.9623487720, -0.1698658521)
 Atom   7: ( -0.0000000000,  0.0000016481,  2.7178338510)
         ->(  0.0000000000,  0.0000000000,  2.7178338510)
 ----------------------------------------------------------------
             Standard Nuclear Orientation (Angstroms)
    I     Atom           X                Y                Z
 ----------------------------------------------------------------
    1      C       0.6645000000     0.0000000000    -0.1698646157
    2      C      -0.6645000000     0.0000002280    -0.1698646157
    3      H       1.1590800000     0.9623487720    -0.1698658521
    4      H      -1.1590800000     0.9623487720    -0.1698658521
    5      H       1.1590800000    -0.9623487720    -0.1698658521
    6      H      -1.1590800000    -0.9623487720    -0.1698658521
    7      H       0.0000000000     0.0000000000     2.7178338510
 ----------------------------------------------------------------
 Molecular Point Group                 C2v   NOp =  4
 Largest Abelian Subgroup              C2v   NOp =  4
 Nuclear Repulsion Energy =          36.38212131 hartrees
 There are        9 alpha and        9 beta electrons
 Requested basis set is non-standard
 There are 33 shells and 67 basis functions
 Total memory of 95000 MB is distributed as follows: 
   MEM_STATIC is set to 192 MB
   QALLOC/CCMAN JOB total memory use is  94808 MB
 Warning: actual memory use might exceed 95000 MB

 Total QAlloc Memory Limit  95000 MB
 Mega-Array Size       188 MB
 MEM_STATIC part       192 MB

                       Distance Matrix (Angstroms)
             C (  1)   C (  2)   H (  3)   H (  4)   H (  5)   H (  6)
   C (  2)  1.329000
   H (  3)  1.082000  2.061931
   H (  4)  2.061931  1.082000  2.318160
   H (  5)  1.082000  2.061931  1.924698  3.013026
   H (  6)  2.061931  1.082000  3.013026  1.924698  2.318160
   H (  7)  2.963168  2.963168  3.257053  3.257053  3.257053  3.257053

 
 A cutoff of  1.0D-14 yielded    561 shell pairs
 There are      2337 function pairs (      2484 Cartesian)
 Smallest overlap matrix eigenvalue = 2.39E-04

 Scale SEOQF with 1.000000e-01/1.000000e-01/1.000000e-01

 Standard Electronic Orientation quadrupole field applied
 Nucleus-field energy     =    -0.0000000002 hartrees
 ================ Generating on-the-fly SAD Guess ================
Attempting to make child job directory: /src/jdavis/qchem.scratch/qchem13273//Frg1/
Attempting to make child job directory: /src/jdavis/qchem.scratch/qchem13273//Frg2/
Creating input file /src/jdavis/qchem.scratch/qchem13273/Frg1.input
using default PutDataFrgm: nothing
calling putenv with: QCSCRATCH=/src/jdavis/qchem.scratch/qchem13273/ 
Spawning Job For Fragment 0
Done Job For Fragment 0
calling putenv with: QCSCRATCH=/src/jdavis/qchem.scratch 
calling putenv with: QCTHREADS=1 
Creating input file /src/jdavis/qchem.scratch/qchem13273/Frg2.input
using default PutDataFrgm: nothing
calling putenv with: QCSCRATCH=/src/jdavis/qchem.scratch/qchem13273/ 
Spawning Job For Fragment 1
Done Job For Fragment 1
calling putenv with: QCSCRATCH=/src/jdavis/qchem.scratch 
calling putenv with: QCTHREADS=1 
 Time for running child jobs:  CPU 1.77 s  wall 54.35 s
 ============= Method Specific SAD Guess Constructed =============
 Guess from on-the-fly superposition of atomic densities
 Warning: Energy on first SCF cycle will be non-variational
 A restricted Hartree-Fock SCF calculation will be
 performed using Pulay DIIS extrapolation
 SCF converges when DIIS error is below 1.0E-08
 using 10 threads for integral computing
 -------------------------------------------------------
 OpenMP Integral computing Module                
 Release: version 1.0, May 2013, Q-Chem Inc. Pittsburgh 
 -------------------------------------------------------
 ---------------------------------------
  Cycle       Energy         DIIS Error
 ---------------------------------------
    1     -78.8082021615      7.37E-02
    2     -78.4339079780      7.18E-03
    3     -78.4881539366      1.85E-03
    4     -78.4912460613      5.79E-04
    5     -78.4916028794      1.24E-04
    6     -78.4916332658      3.21E-05
    7     -78.4916372770      1.16E-05
    8     -78.4916381593      1.76E-06
    9     -78.4916381998      4.61E-07
   10     -78.4916382024      8.01E-08
   11     -78.4916382013      1.50E-08
   12     -78.4916382012      2.23E-09 Convergence criterion met
 ---------------------------------------
 SCF time:  CPU 10.94 s  wall 1.10 s
 SCF   energy in the final basis set = -78.49163820
 Total energy in the final basis set = -78.49163820
================================================================================
|                                                                              |
|                                 A D C  M A N                                 |
|                                                                              |
 ------------------------------------------------------------------------------ 
|                                                                              |
| Components:                                                                  |
|                                                                              |
| - libvmm - 1.3-trunk                                                         |
|   Authors:                                                                   |
|   Evgeny Epifanovsky, Ilya Kaliman                                           |
|                                                                              |
| - libtensor - 2.5-trunk                                                      |
|   Authors:                                                                   |
|   Evgeny Epifanovsky, Michael Wormit, Dmitry Zuev, Sam Manzer,               |
|   Ilya Kaliman                                                               |
|                                                                              |
| - libwfa - 1.1-trunk                                                         |
|   Authors:                                                                   |
|   Felix Plasser, Stefanie Mewes (Baeppler), Benjamin Thomitzni,              |
|   Michael Wormit, Feng Chen, Anna I. Krylov, Pavel Pokhilko                  |
|                                                                              |
| - libadc - 1.1-trunk                                                         |
|   Authors:                                                                   |
|   Michael Wormit, Adrian L. Dempwolff, Philipp H. P. Harbach,                |
|   Caroline Krauter, Dirk Rehn, Matthias Schneider, Jan Wenzel                |
|                                                                              |
| - adcman - 2.6-trunk                                                         |
|   Authors:                                                                   |
|   Michael Wormit, Adrian L. Dempwolff, Philipp H. P. Harbach,                |
|   Caroline Krauter, Daniel Lefrancois, Jan-Michael Mewes, Dirk Rehn,         |
|   Matthias Schneider, Jan Wenzel, Andreas Dreuw                              |
|                                                                              |
| Authors of earlier versions of ADCMAN:                                       |
| Andreas Dreuw, Jan Hendrik Starcke, Dirk Rehn, Michael Wormit                |
|                                                                              |
================================================================================

 
 Alpha MOs, Restricted
 -- Occupied --                  
-11.071 -11.069  -0.873  -0.618  -0.495  -0.403  -0.353  -0.207
  1 A1    1 B1    2 A1    2 B1    1 B2    3 A1    1 A2    4 A1                 
 -0.009
  5 A1                                                                         
 -- Virtual --                   
  0.178   0.199   0.206   0.226   0.230   0.234   0.330   0.335
  3 B1    6 A1    2 B2    2 A2    7 A1    4 B1    8 A1    5 B1                 
  0.351   0.446   0.458   0.460   0.483   0.501   0.504   0.520
  6 B1    9 A1    3 B2    7 B1   10 A1    3 A2    4 B2    8 B1                 
  0.532   0.594   0.704   0.776   1.007   1.011   1.085   1.092
 11 A1    9 B1    4 A2   10 B1    5 B2   12 A1   13 A1   11 B1                 
  1.116   1.182   1.201   1.230   1.283   1.295   1.313   1.321
 14 A1    5 A2    6 B2   15 A1    7 B2   12 B1   16 A1   13 B1                 
  1.450   1.452   1.467   1.607   1.788   1.835   1.892   1.919
  6 A2   14 B1   17 A1    7 A2   18 A1    8 A2    8 B2    9 B2                 
  1.951   1.979   2.044   2.123   2.131   2.182   2.244   2.262
 15 B1   19 A1   16 B1   17 B1   20 A1   10 B2   21 A1   11 B2                 
  2.350   2.497   2.579   2.640   2.733   2.743   2.997   3.011
 18 B1   19 B1    9 A2   22 A1   10 A2   20 B1   12 B2   23 A1                 
  3.427   3.505
 21 B1   11 A2                                                                 
 
 Beta MOs, Restricted
 -- Occupied --                  
-11.071 -11.069  -0.873  -0.618  -0.495  -0.403  -0.353  -0.207
  1 A1    1 B1    2 A1    2 B1    1 B2    3 A1    1 A2    4 A1                 
 -0.009
  5 A1                                                                         
 -- Virtual --                   
  0.178   0.199   0.206   0.226   0.230   0.234   0.330   0.335
  3 B1    6 A1    2 B2    2 A2    7 A1    4 B1    8 A1    5 B1                 
  0.351   0.446   0.458   0.460   0.483   0.501   0.504   0.520
  6 B1    9 A1    3 B2    7 B1   10 A1    3 A2    4 B2    8 B1                 
  0.532   0.594   0.704   0.776   1.007   1.011   1.085   1.092
 11 A1    9 B1    4 A2   10 B1    5 B2   12 A1   13 A1   11 B1                 
  1.116   1.182   1.201   1.230   1.283   1.295   1.313   1.321
 14 A1    5 A2    6 B2   15 A1    7 B2   12 B1   16 A1   13 B1                 
  1.450   1.452   1.467   1.607   1.788   1.835   1.892   1.919
  6 A2   14 B1   17 A1    7 A2   18 A1    8 A2    8 B2    9 B2                 
  1.951   1.979   2.044   2.123   2.131   2.182   2.244   2.262
 15 B1   19 A1   16 B1   17 B1   20 A1   10 B2   21 A1   11 B2                 
  2.350   2.497   2.579   2.640   2.733   2.743   2.997   3.011
 18 B1   19 B1    9 A2   22 A1   10 A2   20 B1   12 B2   23 A1                 
  3.427   3.505
 21 B1   11 A2                                                                 

--------------------------------------------------------------------------------
                                   HF Summary                                   
--------------------------------------------------------------------------------
  Energy:                                                  -78.4916382012 a.u.
  Dip. moment [a.u.]:                  [  -0.000000,   -0.000001,   -4.193797]
  Total dipole [Debye]:                                              10.659572
  <r^2> [a.u.]:                        [  52.889734,   27.117469,   67.895485]
  Total <r^2> [a.u.]:                                               147.902687
--------------------------------------------------------------------------------

--------------------------------------------------------------------------------
                                 MP(2) Summary                                  
--------------------------------------------------------------------------------
  MP energy contribution:                                   -0.3071554548 a.u.
  Total energy:                                            -78.7987936560 a.u.
  Dip. moment [a.u.]:                  [  -0.000000,   -0.000001,   -4.124192]
  Total dipole [Debye]:                                              10.482654
  <r^2> [a.u.]:                        [  53.283962,   27.363339,   67.271727]
  Total <r^2> [a.u.]:                                               147.919027

  Density matrix analysis:
  ------------------------
  NOs
    Occupation of frontier NOs:
       0.0467   1.9336
    Number of electrons: 18.000000
    Number of unpaired electrons: n_u =  0.46822, n_u,nl =  0.05248
    NO participation ratio (PR_NO): 16.011151
  
  
  Mulliken Population Analysis
  Atom      Charge (e)              h+              e-           Del q
  --------------------------------------------------------------------
   1 C       -0.394458        0.087225       -0.124680       -0.037456
   2 C       -0.394458        0.087225       -0.124680       -0.037456
   3 H        0.079967        0.018583       -0.009409        0.009174
   4 H        0.079995        0.018583       -0.009409        0.009174
   5 H        0.079985        0.018583       -0.009409        0.009174
   6 H        0.079957        0.018583       -0.009409        0.009174
   7 H       -0.530989        0.051833       -0.013617        0.038215
  --------------------------------------------------------------------
  Sum:       -1.000000        0.300613       -0.300613        0.000000
  
  Multipole moment analysis of the density matrix
    Molecular charge:                      -1.000000
    Number of electrons:                   18.000000
      Center of electronic charge [Ang]: [  0.000000,   0.000000,   0.121246]
    Total nuclear charge:                  17.000000
      Center of nuclear charge [Ang]:    [  0.000000,   0.000000,  -0.000000]
    Dipole moment [D]:                     10.482650
      Cartesian components [D]:          [ -0.000000,  -0.000002, -10.482650]
    RMS size of the density [Ang]:         1.512117
      Cartesian components [Ang]:        [  0.910465,   0.652453,   1.015803]
  
  Exciton analysis of the difference density matrix
    <r_h> [Ang]:                  [  0.000000,   0.000000,   0.204778]
    <r_e> [Ang]:                  [  0.000000,   0.000000,   0.082251]
    |<r_e - r_h>| [Ang]:            0.122527
    Hole size [Ang]:                1.809208
      Cartesian components [Ang]: [  0.959100,   0.749133,   1.338717]
    Electron size [Ang]:            1.823081
      Cartesian components [Ang]: [  1.134507,   0.888951,   1.116371]
--------------------------------------------------------------------------------
  Starting Davidson for singlet states of irrep B2 ... 
--------------------------------------------------------------------------------
   It NVec Conv  Avg. Norm  Max. Norm  Conv. states           Remark
--------------------------------------------------------------------------------
       100    0  1.110e-01  4.098e-01  0.1173 n n n n n n n n Guess.
    1  110    0  7.746e-03  3.860e-02  0.0699 n n n n n n n n 
    2  120    0  3.222e-03  2.790e-02  0.0698 n n n n n n n n 
    3  130    1  7.026e-03  7.025e-02  0.0698 y n n n n n n n 
    4  140    4  3.503e-03  3.503e-02  0.0698 y y y y n n n n 
    5  150    9  3.299e-03  3.299e-02  0.0698 y y y y y y y n 
    6  160    9  1.111e-03  1.111e-02  0.0698 y y y y y y y n 
    7  170    9  1.281e-04  1.281e-03  0.0698 y y y y y y y n 
    8  180    9  3.974e-06  3.974e-05  0.0698 y y y y y y y n 
    9  190   10  8.359e-08  8.346e-07  0.0698 y y y y y y y y Converged.
--------------------------------------------------------------------------------
  Davidson Summary: 
 ------------------------------------------------------------
  State  0: excitation energy =   0.0698 a.u.   (converged)
  State  1: excitation energy =   0.2528 a.u.   (converged)
  State  2: excitation energy =   0.2751 a.u.   (converged)
  State  3: excitation energy =   0.3281 a.u.   (converged)
  State  4: excitation energy =   0.3317 a.u.   (converged)
  State  5: excitation energy =   0.3499 a.u.   (converged)
  State  6: excitation energy =   0.3969 a.u.   (converged)
  State  7: excitation energy =   0.4216 a.u.   (converged)
  State  8: excitation energy =   0.4229 a.u.   (converged)
  State  9: excitation energy =   0.4231 a.u.   (converged)
 ------------------------------------------------------------


--------------------------------------------------------------------------------
                   State-averaged natural transition orbitals
--------------------------------------------------------------------------------
--------------------------------------------------------------------------------

--------------------------------------------------------------------------------
                             Excited State Summary
--------------------------------------------------------------------------------
--------------------------------------------------------------------------------

  Excited state 1 (singlet, B2)                                    [converged]
  ----------------------------------------------------------------------------
  Term symbol:  1 (1) B2                                    R^2 =  5.05940e-12

  Total energy:                                            -78.7290011074 a.u.
  Excitation energy:                                               1.899152 eV

  Osc. strength:                                                      0.042945
  Trans. dip. moment [a.u.]:           [   0.000000,    0.960726,   -0.000000]
  <i|r^2|0> [a.u.]:                    [   0.000000,   -0.000001,    0.000001]

  Dip. moment [a.u.]:                  [  -0.000000,   -0.000001,    0.432050]
  Total dipole [Debye]:                                               1.098162
  <r^2> [a.u.]:                        [  60.143917,   52.158490,   50.925346]
  Total <r^2> [a.u.]:                                               163.227753

  V1^2 = 0.9346, V2^2 = 0.0654

  Important amplitudes:
      occ i      occ j       vir a       vir b          v   
    ---------------------------------------------------------
     5 (A1) A               2 (B2) A                 -0.6801
     5 (A1) A               3 (B2) A                 -0.0652
    ---------------------------------------------------------

  Density matrix analysis:
  ------------------------
  NOs
    Occupation of frontier NOs:
       0.9917   0.9949
    Number of electrons: 18.000000
    Number of unpaired electrons: n_u =  2.42532, n_u,nl =  2.05033
    NO participation ratio (PR_NO):  2.961103
  
  
  Mulliken Population Analysis
  Atom      Charge (e)              h+              e-           Del q
  --------------------------------------------------------------------
   1 C       -0.663136        0.306745       -0.575424       -0.268679
   2 C       -0.663136        0.306745       -0.575424       -0.268679
   3 H        0.074088        0.006588       -0.012467       -0.005879
   4 H        0.074116        0.006588       -0.012468       -0.005879
   5 H        0.074106        0.006589       -0.012468       -0.005879
   6 H        0.074078        0.006588       -0.012467       -0.005879
   7 H        0.029884        0.601663       -0.040789        0.560873
  --------------------------------------------------------------------
  Sum:       -1.000000        1.241507       -1.241507        0.000000
  
  Multipole moment analysis of the density matrix
    Molecular charge:                      -1.000000
    Number of electrons:                   18.000000
      Center of electronic charge [Ang]: [  0.000000,   0.000000,  -0.012702]
    Total nuclear charge:                  17.000000
      Center of nuclear charge [Ang]:    [  0.000000,   0.000000,  -0.000000]
    Dipole moment [D]:                     1.098161
      Cartesian components [D]:          [ -0.000000,  -0.000002,   1.098161]
    RMS size of the density [Ang]:         1.593485
      Cartesian components [Ang]:        [  0.967299,   0.900798,   0.889995]
  
  Exciton analysis of the difference density matrix
    <r_h> [Ang]:                  [  0.000000,   0.000000,   1.943053]
    <r_e> [Ang]:                  [ -0.000000,   0.000000,   0.001010]
    |<r_e - r_h>| [Ang]:            1.942043
    Hole size [Ang]:                2.193912
      Cartesian components [Ang]: [  1.066202,   1.038035,   1.612125]
    Electron size [Ang]:            3.470111
      Cartesian components [Ang]: [  1.638318,   2.582672,   1.639325]

  Transition density matrix analysis:
  -----------------------------------
  
  CT numbers (Mulliken)
    omega =     0.9220
    <Phe> =    -0.0045
  
  Exciton analysis of the transition density matrix
    Trans. dipole moment [D]:             1.220961
      Cartesian components [D]:         [  0.000000,   1.220961,  -0.000000]
    <r_h> [Ang]:                        [ -0.000000,   0.000000,   2.494699]
    <r_e> [Ang]:                        [ -0.000000,  -0.000000,  -0.170160]
    |<r_e - r_h>| [Ang]:                  2.664858
    Hole size [Ang]:                      1.591340
      Cartesian components [Ang]:       [  0.840614,   0.831068,   1.065391]
    Electron size [Ang]:                  3.683416
      Cartesian components [Ang]:       [  1.722664,   2.828204,   1.612837]
    RMS electron-hole separation [Ang]:   4.815908
      Cartesian components [Ang]:       [  1.914911,   2.947520,   3.292143]
    Covariance(r_h, r_e) [Ang^2]:         0.004210
    Correlation coefficient:              0.000718
    Center-of-mass size [Ang]:            2.006760
      Cartesian components [Ang]:       [  0.959365,   1.474021,   0.966419]

  Decomposition into state-averaged NTOs
    H- 0 -> L+ 0: -0.6738 ( 90.8%)
    H- 0 -> L+ 1: -0.0747 (  1.1%)
                   omega =  92.2%
  ----------------------------------------------------------------------------


  Excited state 2 (singlet, B2)                                    [converged]
  ----------------------------------------------------------------------------
  Term symbol:  2 (1) B2                                    R^2 =  8.45698e-11

  Total energy:                                            -78.5459996482 a.u.
  Excitation energy:                                               6.878875 eV

  Osc. strength:                                                      0.000650
  Trans. dip. moment [a.u.]:           [   0.000005,   -0.062094,    0.000000]
  <i|r^2|0> [a.u.]:                    [  -0.000000,   -0.000000,    0.000000]

  Dip. moment [a.u.]:                  [   0.000000,   -0.000001,   -4.012757]
  Total dipole [Debye]:                                              10.199412
  <r^2> [a.u.]:                        [  59.213907,   50.059305,   69.988619]
  Total <r^2> [a.u.]:                                               179.261831

  V1^2 = 0.9463, V2^2 = 0.0537

  Important amplitudes:
      occ i      occ j       vir a       vir b          v   
    ---------------------------------------------------------
     4 (A1) A               2 (B2) A                 -0.6607
     4 (A1) A               3 (B2) A                 -0.1473
    ---------------------------------------------------------

  Density matrix analysis:
  ------------------------
  NOs
    Occupation of frontier NOs:
       0.9654   1.0131
    Number of electrons: 18.000000
    Number of unpaired electrons: n_u =  2.39657, n_u,nl =  2.04502
    NO participation ratio (PR_NO):  2.994064
  
  
  Mulliken Population Analysis
  Atom      Charge (e)              h+              e-           Del q
  --------------------------------------------------------------------
   1 C       -0.497022        0.510583       -0.613147       -0.102564
   2 C       -0.497022        0.510583       -0.613147       -0.102564
   3 H        0.123616        0.087785       -0.044137        0.043649
   4 H        0.123642        0.087785       -0.044138        0.043647
   5 H        0.123632        0.087786       -0.044138        0.043647
   6 H        0.123606        0.087786       -0.044137        0.043649
   7 H       -0.500452        0.044777       -0.014240        0.030537
  --------------------------------------------------------------------
  Sum:       -1.000000        1.417085       -1.417085        0.000000
  
  Multipole moment analysis of the density matrix
    Molecular charge:                      -1.000000
    Number of electrons:                   18.000000
      Center of electronic charge [Ang]: [ -0.000000,   0.000000,   0.117970]
    Total nuclear charge:                  17.000000
      Center of nuclear charge [Ang]:    [  0.000000,   0.000000,  -0.000000]
    Dipole moment [D]:                     10.199409
      Cartesian components [D]:          [  0.000000,  -0.000002, -10.199409]
    RMS size of the density [Ang]:         1.665798
      Cartesian components [Ang]:        [  0.959791,   0.882485,   1.036777]
  
  Exciton analysis of the difference density matrix
    <r_h> [Ang]:                  [  0.000000,   0.000000,  -0.101687]
    <r_e> [Ang]:                  [ -0.000000,  -0.000000,  -0.143300]
    |<r_e - r_h>| [Ang]:            0.041613
    Hole size [Ang]:                1.757630
      Cartesian components [Ang]: [  1.042396,   0.826775,   1.148529]
    Electron size [Ang]:            3.045109
      Cartesian components [Ang]: [  1.502797,   2.273429,   1.358604]

  Transition density matrix analysis:
  -----------------------------------
  
  CT numbers (Mulliken)
    omega =     0.9153
    <Phe> =    -0.0028
  
  Exciton analysis of the transition density matrix
    Trans. dipole moment [D]:             0.078914
      Cartesian components [D]:         [  0.000006,  -0.078914,   0.000000]
    <r_h> [Ang]:                        [ -0.000000,   0.000000,  -0.119476]
    <r_e> [Ang]:                        [ -0.000000,  -0.000000,  -0.170136]
    |<r_e - r_h>| [Ang]:                  0.050660
    Hole size [Ang]:                      1.390153
      Cartesian components [Ang]:       [  0.767680,   0.536879,   1.027109]
    Electron size [Ang]:                  3.482528
      Cartesian components [Ang]:       [  1.671849,   2.660739,   1.501131]
    RMS electron-hole separation [Ang]:   3.747214
      Cartesian components [Ang]:       [  1.835129,   2.713526,   1.819529]
    Covariance(r_h, r_e) [Ang^2]:         0.010743
    Correlation coefficient:              0.002219
    Center-of-mass size [Ang]:            1.876301
      Cartesian components [Ang]:       [  0.922107,   1.357600,   0.909474]

  Decomposition into state-averaged NTOs
    H- 2 -> L+ 0:  0.6653 ( 88.5%)
    H- 0 -> L+ 1: -0.1130 (  2.6%)
                   omega =  91.5%
  ----------------------------------------------------------------------------


  Excited state 3 (singlet, B2)                                    [converged]
  ----------------------------------------------------------------------------
  Term symbol:  3 (1) B2                                    R^2 =  1.46654e-09

  Total energy:                                            -78.5236607184 a.u.
  Excitation energy:                                               7.486748 eV

  Osc. strength:                                                      0.009028
  Trans. dip. moment [a.u.]:           [   0.000007,   -0.221858,    0.000000]
  <i|r^2|0> [a.u.]:                    [   0.000001,    0.000001,   -0.000002]

  Dip. moment [a.u.]:                  [   0.000000,   -0.000002,    0.326790]
  Total dipole [Debye]:                                               0.830616
  <r^2> [a.u.]:                        [  58.531321,   39.141866,   47.521588]
  Total <r^2> [a.u.]:                                               145.194775

  V1^2 = 0.9283, V2^2 = 0.0717

  Important amplitudes:
      occ i      occ j       vir a       vir b          v   
    ---------------------------------------------------------
     5 (A1) A               3 (B2) A                 -0.6544
     5 (A1) A               4 (B2) A                  0.1204
    ---------------------------------------------------------

  Density matrix analysis:
  ------------------------
  NOs
    Occupation of frontier NOs:
       0.9521   1.0184
    Number of electrons: 18.000000
    Number of unpaired electrons: n_u =  2.47145, n_u,nl =  2.07654
    NO participation ratio (PR_NO):  3.228264
  
  
  Mulliken Population Analysis
  Atom      Charge (e)              h+              e-           Del q
  --------------------------------------------------------------------
   1 C       -0.222735        0.321004       -0.149282        0.171722
   2 C       -0.222735        0.321004       -0.149282        0.171722
   3 H       -0.147026       -0.003992       -0.223001       -0.226993
   4 H       -0.147005       -0.003992       -0.223008       -0.227000
   5 H       -0.147014       -0.003992       -0.223008       -0.226999
   6 H       -0.147035       -0.003992       -0.223001       -0.226993
   7 H        0.033551        0.592185       -0.027645        0.564540
  --------------------------------------------------------------------
  Sum:       -1.000000        1.218225       -1.218225       -0.000000
  
  Multipole moment analysis of the density matrix
    Molecular charge:                      -1.000000
    Number of electrons:                   18.000000
      Center of electronic charge [Ang]: [ -0.000000,   0.000000,  -0.009607]
    Total nuclear charge:                  17.000000
      Center of nuclear charge [Ang]:    [  0.000000,   0.000000,  -0.000000]
    Dipole moment [D]:                     0.830616
      Cartesian components [D]:          [  0.000000,  -0.000005,   0.830616]
    RMS size of the density [Ang]:         1.502905
      Cartesian components [Ang]:        [  0.954243,   0.780343,   0.859772]
  
  Exciton analysis of the difference density matrix
    <r_h> [Ang]:                  [ -0.000000,   0.000000,   1.917711]
    <r_e> [Ang]:                  [ -0.000000,   0.000000,  -0.015723]
    |<r_e - r_h>| [Ang]:            1.933434
    Hole size [Ang]:                2.094047
      Cartesian components [Ang]: [  1.013577,   0.971531,   1.553648]
    Electron size [Ang]:            2.726938
      Cartesian components [Ang]: [  1.494499,   1.910852,   1.245515]

  Transition density matrix analysis:
  -----------------------------------
  
  CT numbers (Mulliken)
    omega =     0.9118
    <Phe> =    -0.0000
  
  Exciton analysis of the transition density matrix
    Trans. dipole moment [D]:             0.281954
      Cartesian components [D]:         [  0.000009,  -0.281954,   0.000000]
    <r_h> [Ang]:                        [ -0.000000,   0.000000,   2.393925]
    <r_e> [Ang]:                        [ -0.000000,   0.000001,  -0.169055]
    |<r_e - r_h>| [Ang]:                  2.562980
    Hole size [Ang]:                      1.660509
      Cartesian components [Ang]:       [  0.834432,   0.818598,   1.179368]
    Electron size [Ang]:                  2.794772
      Cartesian components [Ang]:       [  1.521707,   2.044231,   1.147292]
    RMS electron-hole separation [Ang]:   4.137695
      Cartesian components [Ang]:       [  1.731879,   2.201209,   3.045618]
    Covariance(r_h, r_e) [Ang^2]:         0.008196
    Correlation coefficient:              0.001766
    Center-of-mass size [Ang]:            1.626686
      Cartesian components [Ang]:       [  0.869530,   1.101436,   0.822718]

  Decomposition into state-averaged NTOs
    H- 0 -> L+ 1:  0.6540 ( 85.5%)
    H- 2 -> L+ 0:  0.1176 (  2.8%)
    H- 0 -> L+ 2: -0.0939 (  1.8%)
                   omega =  91.2%
  ----------------------------------------------------------------------------


  Excited state 4 (singlet, B2)                                    [converged]
  ----------------------------------------------------------------------------
  Term symbol:  4 (1) B2                                    R^2 =  1.47874e-09

  Total energy:                                            -78.4707000308 a.u.
  Excitation energy:                                               8.927882 eV

  Osc. strength:                                                      0.029702
  Trans. dip. moment [a.u.]:           [  -0.000007,    0.368500,    0.000000]
  <i|r^2|0> [a.u.]:                    [   0.000001,    0.000001,    0.000011]

  Dip. moment [a.u.]:                  [  -0.000000,   -0.000001,    0.362913]
  Total dipole [Debye]:                                               0.922434
  <r^2> [a.u.]:                        [  55.354197,   36.223036,   48.221876]
  Total <r^2> [a.u.]:                                               139.799108

  V1^2 = 0.9406, V2^2 = 0.0594

  Important amplitudes:
      occ i      occ j       vir a       vir b          v   
    ---------------------------------------------------------
     5 (A1) A               4 (B2) A                 -0.6720
     5 (A1) A               3 (B2) A                 -0.1201
    ---------------------------------------------------------

  Density matrix analysis:
  ------------------------
  NOs
    Occupation of frontier NOs:
       0.9856   0.9950
    Number of electrons: 18.000000
    Number of unpaired electrons: n_u =  2.43906, n_u,nl =  2.05281
    NO participation ratio (PR_NO):  3.011770
  
  
  Mulliken Population Analysis
  Atom      Charge (e)              h+              e-           Del q
  --------------------------------------------------------------------
   1 C       -1.008445        0.317185       -0.931173       -0.613987
   2 C       -1.008445        0.317185       -0.931173       -0.613987
   3 H        0.244842       -0.006978        0.171853        0.164875
   4 H        0.244862       -0.006979        0.171846        0.164867
   5 H        0.244853       -0.006978        0.171846        0.164867
   6 H        0.244832       -0.006978        0.171853        0.164875
   7 H        0.037501        0.599144       -0.030653        0.568490
  --------------------------------------------------------------------
  Sum:       -1.000000        1.205601       -1.205601       -0.000000
  
  Multipole moment analysis of the density matrix
    Molecular charge:                      -1.000000
    Number of electrons:                   18.000000
      Center of electronic charge [Ang]: [  0.000000,   0.000000,  -0.010669]
    Total nuclear charge:                  17.000000
      Center of nuclear charge [Ang]:    [  0.000000,   0.000000,  -0.000000]
    Dipole moment [D]:                     0.922434
      Cartesian components [D]:          [ -0.000000,  -0.000002,   0.922434]
    RMS size of the density [Ang]:         1.474707
      Cartesian components [Ang]:        [  0.927983,   0.750684,   0.866072]
  
  Exciton analysis of the difference density matrix
    <r_h> [Ang]:                  [ -0.000000,   0.000000,   1.960887]
    <r_e> [Ang]:                  [  0.000000,  -0.000000,  -0.008649]
    |<r_e - r_h>| [Ang]:            1.969536
    Hole size [Ang]:                2.103047
      Cartesian components [Ang]: [  1.013588,   0.997428,   1.549381]
    Electron size [Ang]:            2.526216
      Cartesian components [Ang]: [  1.228096,   1.747207,   1.349377]

  Transition density matrix analysis:
  -----------------------------------
  
  CT numbers (Mulliken)
    omega =     0.9267
    <Phe> =    -0.0041
  
  Exciton analysis of the transition density matrix
    Trans. dipole moment [D]:             0.468317
      Cartesian components [D]:         [ -0.000009,   0.468317,   0.000000]
    <r_h> [Ang]:                        [ -0.000000,   0.000000,   2.445218]
    <r_e> [Ang]:                        [  0.000000,  -0.000000,  -0.166884]
    |<r_e - r_h>| [Ang]:                  2.612101
    Hole size [Ang]:                      1.628204
      Cartesian components [Ang]:       [  0.837493,   0.825227,   1.126345]
    Electron size [Ang]:                  2.548999
      Cartesian components [Ang]:       [  1.202052,   1.848113,   1.279431]
    RMS electron-hole separation [Ang]:   3.995259
      Cartesian components [Ang]:       [  1.461171,   2.023449,   3.119732]
    Covariance(r_h, r_e) [Ang^2]:         0.004711
    Correlation coefficient:              0.001135
    Center-of-mass size [Ang]:            1.513098
      Cartesian components [Ang]:       [  0.734443,   1.012262,   0.851695]

  Decomposition into state-averaged NTOs
    H- 0 -> L+ 2: -0.6713 ( 90.1%)
    H- 0 -> L+ 1: -0.0993 (  2.0%)
                   omega =  92.7%
  ----------------------------------------------------------------------------


  Excited state 5 (singlet, B2)                                    [converged]
  ----------------------------------------------------------------------------
  Term symbol:  5 (1) B2                                    R^2 =  1.03831e-09

  Total energy:                                            -78.4670587332 a.u.
  Excitation energy:                                               9.026966 eV

  Osc. strength:                                                      0.011045
  Trans. dip. moment [a.u.]:           [  -0.000002,   -0.223480,    0.000000]
  <i|r^2|0> [a.u.]:                    [   0.000001,    0.000001,    0.000000]

  Dip. moment [a.u.]:                  [   0.000000,   -0.000000,   -2.938442]
  Total dipole [Debye]:                                               7.468775
  <r^2> [a.u.]:                        [  62.152681,   27.880653,   73.935657]
  Total <r^2> [a.u.]:                                               163.968991

  V1^2 = 0.9453, V2^2 = 0.0547

  Important amplitudes:
      occ i      occ j       vir a       vir b          v   
    ---------------------------------------------------------
     1 (A2) A               3 (B1) A                  0.4118
     1 (A2) A               5 (B1) A                  0.3930
    ---------------------------------------------------------

  Density matrix analysis:
  ------------------------
  NOs
    Occupation of frontier NOs:
       0.9908   1.0187
    Number of electrons: 18.000000
    Number of unpaired electrons: n_u =  2.45924, n_u,nl =  2.05919
    NO participation ratio (PR_NO):  3.085089
  
  
  Mulliken Population Analysis
  Atom      Charge (e)              h+              e-           Del q
  --------------------------------------------------------------------
   1 C       -0.698333        0.248995       -0.552870       -0.303875
   2 C       -0.698333        0.248995       -0.552870       -0.303875
   3 H        0.229897        0.157280       -0.007350        0.149930
   4 H        0.229926        0.157281       -0.007349        0.149932
   5 H        0.229917        0.157281       -0.007349        0.149932
   6 H        0.229888        0.157280       -0.007350        0.149930
   7 H       -0.522962        0.011339       -0.003312        0.008027
  --------------------------------------------------------------------
  Sum:       -1.000000        1.138450       -1.138450        0.000000
  
  Multipole moment analysis of the density matrix
    Molecular charge:                      -1.000000
    Number of electrons:                   18.000000
      Center of electronic charge [Ang]: [ -0.000000,   0.000000,   0.086386]
    Total nuclear charge:                  17.000000
      Center of nuclear charge [Ang]:    [  0.000000,   0.000000,  -0.000000]
    Dipole moment [D]:                     7.468773
      Cartesian components [D]:          [  0.000000,  -0.000000,  -7.468773]
    RMS size of the density [Ang]:         1.594812
      Cartesian components [Ang]:        [  0.983320,   0.658592,   1.069002]
  
  Exciton analysis of the difference density matrix
    <r_h> [Ang]:                  [  0.000000,   0.000000,  -0.179954]
    <r_e> [Ang]:                  [ -0.000000,   0.000000,  -0.731117]
    |<r_e - r_h>| [Ang]:            0.551164
    Hole size [Ang]:                1.664930
      Cartesian components [Ang]: [  1.165610,   0.968787,   0.689055]
    Electron size [Ang]:            2.493533
      Cartesian components [Ang]: [  1.881520,   1.032373,   1.269566]

  Transition density matrix analysis:
  -----------------------------------
  
  CT numbers (Mulliken)
    omega =     0.9196
    <Phe> =    -0.0089
  
  Exciton analysis of the transition density matrix
    Trans. dipole moment [D]:             0.284015
      Cartesian components [D]:         [ -0.000003,  -0.284015,   0.000000]
    <r_h> [Ang]:                        [  0.000000,   0.000001,  -0.170352]
    <r_e> [Ang]:                        [ -0.000000,   0.000000,  -0.819691]
    |<r_e - r_h>| [Ang]:                  0.649339
    Hole size [Ang]:                      1.527988
      Cartesian components [Ang]:       [  1.124951,   0.940637,   0.429458]
    Electron size [Ang]:                  2.570628
      Cartesian components [Ang]:       [  1.967827,   1.054789,   1.274050]
    RMS electron-hole separation [Ang]:   3.004380
      Cartesian components [Ang]:       [  2.199858,   1.401279,   1.491086]
    Covariance(r_h, r_e) [Ang^2]:         0.169109
    Correlation coefficient:              0.043053
    Center-of-mass size [Ang]:            1.523244
      Cartesian components [Ang]:       [  1.165798,   0.712596,   0.673346]

  Decomposition into state-averaged NTOs
    H- 1 -> L+ 3:  0.6050 ( 73.2%)
    H- 1 -> L+ 4: -0.2992 ( 17.9%)
                   omega =  92.0%
  ----------------------------------------------------------------------------


  Excited state 6 (singlet, B2)                                    [converged]
  ----------------------------------------------------------------------------
  Term symbol:  6 (1) B2                                    R^2 =  3.56782e-10

  Total energy:                                            -78.4489200576 a.u.
  Excitation energy:                                               9.520545 eV

  Osc. strength:                                                      0.051270
  Trans. dip. moment [a.u.]:           [   0.000002,   -0.468835,   -0.000000]
  <i|r^2|0> [a.u.]:                    [   0.000002,    0.000001,   -0.000001]

  Dip. moment [a.u.]:                  [   0.000000,   -0.000001,   -4.182865]
  Total dipole [Debye]:                                              10.631784
  <r^2> [a.u.]:                        [  78.453141,   30.906125,   72.190775]
  Total <r^2> [a.u.]:                                               181.550041

  V1^2 = 0.9385, V2^2 = 0.0615

  Important amplitudes:
      occ i      occ j       vir a       vir b          v   
    ---------------------------------------------------------
     1 (A2) A               3 (B1) A                  0.5216
     1 (A2) A               4 (B1) A                 -0.2886
    ---------------------------------------------------------

  Density matrix analysis:
  ------------------------
  NOs
    Occupation of frontier NOs:
       0.9794   1.0279
    Number of electrons: 18.000000
    Number of unpaired electrons: n_u =  2.48583, n_u,nl =  2.07412
    NO participation ratio (PR_NO):  3.211045
  
  
  Mulliken Population Analysis
  Atom      Charge (e)              h+              e-           Del q
  --------------------------------------------------------------------
   1 C       -0.696955        0.248811       -0.551308       -0.302498
   2 C       -0.696955        0.248811       -0.551308       -0.302498
   3 H        0.227581        0.182466       -0.034851        0.147615
   4 H        0.227610        0.182467       -0.034852        0.147615
   5 H        0.227601        0.182467       -0.034851        0.147615
   6 H        0.227572        0.182466       -0.034851        0.147615
   7 H       -0.516454        0.022119       -0.007584        0.014535
  --------------------------------------------------------------------
  Sum:       -1.000000        1.249607       -1.249607       -0.000000
  
  Multipole moment analysis of the density matrix
    Molecular charge:                      -1.000000
    Number of electrons:                   18.000000
      Center of electronic charge [Ang]: [ -0.000000,   0.000000,   0.122971]
    Total nuclear charge:                  17.000000
      Center of nuclear charge [Ang]:    [  0.000000,   0.000000,  -0.000000]
    Dipole moment [D]:                     10.631781
      Cartesian components [D]:          [  0.000000,  -0.000002, -10.631781]
    RMS size of the density [Ang]:         1.676090
      Cartesian components [Ang]:        [  1.104765,   0.693405,   1.052597]
  
  Exciton analysis of the difference density matrix
    <r_h> [Ang]:                  [  0.000000,   0.000000,  -0.171355]
    <r_e> [Ang]:                  [ -0.000000,   0.000000,  -0.146508]
    |<r_e - r_h>| [Ang]:            0.024846
    Hole size [Ang]:                1.773715
      Cartesian components [Ang]: [  1.209815,   0.999812,   0.826309]
    Electron size [Ang]:            3.269625
      Cartesian components [Ang]: [  2.665314,   1.339230,   1.339034]

  Transition density matrix analysis:
  -----------------------------------
  
  CT numbers (Mulliken)
    omega =     0.9189
    <Phe> =    -0.0066
  
  Exciton analysis of the transition density matrix
    Trans. dipole moment [D]:             0.595830
      Cartesian components [D]:         [  0.000002,  -0.595830,  -0.000000]
    <r_h> [Ang]:                        [  0.000000,   0.000001,  -0.168951]
    <r_e> [Ang]:                        [ -0.000000,   0.000000,  -0.154707]
    |<r_e - r_h>| [Ang]:                  0.014244
    Hole size [Ang]:                      1.531943
      Cartesian components [Ang]:       [  1.126649,   0.942341,   0.435322]
    Electron size [Ang]:                  3.548760
      Cartesian components [Ang]:       [  2.926590,   1.438665,   1.399647]
    RMS electron-hole separation [Ang]:   3.756036
      Cartesian components [Ang]:       [  3.016234,   1.691756,   1.465638]
    Covariance(r_h, r_e) [Ang^2]:         0.416472
    Correlation coefficient:              0.076607
    Center-of-mass size [Ang]:            1.985793
      Cartesian components [Ang]:       [  1.625643,   0.873712,   0.732997]

  Decomposition into state-averaged NTOs
    H- 1 -> L+ 4: -0.6027 ( 72.6%)
    H- 1 -> L+ 3: -0.2985 ( 17.8%)
                   omega =  91.9%
  ----------------------------------------------------------------------------


  Excited state 7 (singlet, B2)                                    [converged]
  ----------------------------------------------------------------------------
  Term symbol:  7 (1) B2                                    R^2 =  6.57319e-11

  Total energy:                                            -78.4019212465 a.u.
  Excitation energy:                                              10.799447 eV

  Osc. strength:                                                      0.082653
  Trans. dip. moment [a.u.]:           [  -0.000003,   -0.558920,   -0.000000]
  <i|r^2|0> [a.u.]:                    [  -0.000000,    0.000001,    0.000000]

  Dip. moment [a.u.]:                  [   0.000000,   -0.000000,   -4.161343]
  Total dipole [Debye]:                                              10.577081
  <r^2> [a.u.]:                        [  57.687665,   50.161024,   72.889736]
  Total <r^2> [a.u.]:                                               180.738425

  V1^2 = 0.9255, V2^2 = 0.0745

  Important amplitudes:
      occ i      occ j       vir a       vir b          v   
    ---------------------------------------------------------
     3 (A1) A               2 (B2) A                  0.6614
     3 (A1) A               3 (B2) A                  0.1410
    ---------------------------------------------------------

  Density matrix analysis:
  ------------------------
  NOs
    Occupation of frontier NOs:
       0.9858   1.0118
    Number of electrons: 18.000000
    Number of unpaired electrons: n_u =  2.47506, n_u,nl =  2.06524
    NO participation ratio (PR_NO):  3.116389
  
  
  Mulliken Population Analysis
  Atom      Charge (e)              h+              e-           Del q
  --------------------------------------------------------------------
   1 C       -0.599599        0.434227       -0.639369       -0.205142
   2 C       -0.599599        0.434227       -0.639369       -0.205142
   3 H        0.178737        0.146621       -0.047850        0.098770
   4 H        0.178764        0.146621       -0.047852        0.098769
   5 H        0.178754        0.146621       -0.047852        0.098769
   6 H        0.178728        0.146621       -0.047851        0.098770
   7 H       -0.515785        0.025967       -0.010763        0.015204
  --------------------------------------------------------------------
  Sum:       -1.000000        1.480906       -1.480906        0.000000
  
  Multipole moment analysis of the density matrix
    Molecular charge:                      -1.000000
    Number of electrons:                   18.000000
      Center of electronic charge [Ang]: [ -0.000000,   0.000000,   0.122338]
    Total nuclear charge:                  17.000000
      Center of nuclear charge [Ang]:    [  0.000000,   0.000000,  -0.000000]
    Dipole moment [D]:                     10.577078
      Cartesian components [D]:          [  0.000000,  -0.000001, -10.577078]
    RMS size of the density [Ang]:         1.672366
      Cartesian components [Ang]:        [  0.947341,   0.883381,   1.057823]
  
  Exciton analysis of the difference density matrix
    <r_h> [Ang]:                  [  0.000000,   0.000000,  -0.178172]
    <r_e> [Ang]:                  [  0.000000,  -0.000000,  -0.164896]
    |<r_e - r_h>| [Ang]:            0.013275
    Hole size [Ang]:                1.716985
      Cartesian components [Ang]: [  1.188601,   0.874420,   0.877870]
    Electron size [Ang]:            3.026301
      Cartesian components [Ang]: [  1.498492,   2.252884,   1.355557]

  Transition density matrix analysis:
  -----------------------------------
  
  CT numbers (Mulliken)
    omega =     0.9074
    <Phe> =    -0.0035
  
  Exciton analysis of the transition density matrix
    Trans. dipole moment [D]:             0.710316
      Cartesian components [D]:         [ -0.000003,  -0.710316,  -0.000000]
    <r_h> [Ang]:                        [  0.000000,   0.000000,  -0.174546]
    <r_e> [Ang]:                        [ -0.000000,  -0.000000,  -0.175298]
    |<r_e - r_h>| [Ang]:                  0.000752
    Hole size [Ang]:                      1.333894
      Cartesian components [Ang]:       [  1.106507,   0.617703,   0.416362]
    Electron size [Ang]:                  3.523137
      Cartesian components [Ang]:       [  1.706241,   2.682668,   1.518067]
    RMS electron-hole separation [Ang]:   3.728202
      Cartesian components [Ang]:       [  1.975754,   2.741894,   1.574134]
    Covariance(r_h, r_e) [Ang^2]:         0.146141
    Correlation coefficient:              0.031097
    Center-of-mass size [Ang]:            1.902896
      Cartesian components [Ang]:       [  1.044943,   1.381896,   0.787063]

  Decomposition into state-averaged NTOs
    H- 3 -> L+ 0:  0.6701 ( 89.8%)
                   omega =  90.7%
  ----------------------------------------------------------------------------


  Excited state 8 (singlet, B2)                                    [converged]
  ----------------------------------------------------------------------------
  Term symbol:  8 (1) B2                                    R^2 =  8.34624e-07

  Total energy:                                            -78.3772059253 a.u.
  Excitation energy:                                              11.471986 eV

  Osc. strength:                                                      0.000026
  Trans. dip. moment [a.u.]:           [  -0.000000,   -0.009537,   -0.000000]
  <i|r^2|0> [a.u.]:                    [  -0.000000,   -0.000000,   -0.000000]

  Dip. moment [a.u.]:                  [  -0.000000,   -0.000001,    7.624214]
  Total dipole [Debye]:                                              19.378822
  <r^2> [a.u.]:                        [ 120.087811,   60.704595,   35.464141]
  Total <r^2> [a.u.]:                                               216.256547

  V1^2 = 0.0037, V2^2 = 0.9963

  Important amplitudes:
      occ i      occ j       vir a       vir b          v   
    ---------------------------------------------------------
     5 (A1) A   5 (A1) B    2 (A2) A    3 (B1) B      0.3528
     4 (A1) A               3 (B2) A                  0.0377
    ---------------------------------------------------------

  Density matrix analysis:
  ------------------------
  NOs
    Occupation of frontier NOs:
       0.9967   0.9968
    Number of electrons: 18.000000
    Number of unpaired electrons: n_u =  2.42153, n_u,nl =  2.06273
    NO participation ratio (PR_NO):  2.927143
  
  
  Mulliken Population Analysis
  Atom      Charge (e)              h+              e-           Del q
  --------------------------------------------------------------------
   1 C       -0.950388        0.269482       -0.825413       -0.555931
   2 C       -0.950388        0.269482       -0.825413       -0.555931
   3 H       -0.024937       -0.018387       -0.086517       -0.104904
   4 H       -0.024909       -0.018387       -0.086517       -0.104904
   5 H       -0.024918       -0.018387       -0.086517       -0.104904
   6 H       -0.024947       -0.018387       -0.086517       -0.104904
   7 H        1.000488        1.531466        0.000012        1.531478
  --------------------------------------------------------------------
  Sum:       -1.000000        1.996883       -1.996883       -0.000000
  
  Multipole moment analysis of the density matrix
    Molecular charge:                      -1.000000
    Number of electrons:                   18.000000
      Center of electronic charge [Ang]: [  0.000000,   0.000000,  -0.224142]
    Total nuclear charge:                  17.000000
      Center of nuclear charge [Ang]:    [  0.000000,   0.000000,  -0.000000]
    Dipole moment [D]:                     19.378816
      Cartesian components [D]:          [ -0.000000,  -0.000002,  19.378816]
    RMS size of the density [Ang]:         1.820465
      Cartesian components [Ang]:        [  1.366829,   0.971797,   0.708153]
  
  Exciton analysis of the difference density matrix
    <r_h> [Ang]:                  [  0.000000,   0.000000,   2.514290]
    <r_e> [Ang]:                  [  0.000000,   0.000000,  -0.599057]
    |<r_e - r_h>| [Ang]:            3.113347
    Hole size [Ang]:                1.540327
      Cartesian components [Ang]: [  0.805238,   0.798564,   1.042350]
    Electron size [Ang]:            4.233032
      Cartesian components [Ang]: [  3.164886,   2.305047,   1.608978]

  Transition density matrix analysis:
  -----------------------------------
  
  CT numbers (Mulliken)
    omega =     0.0036
    <Phe> =    -0.0077
  
  Exciton analysis of the transition density matrix
    Trans. dipole moment [D]:             0.012120
      Cartesian components [D]:         [ -0.000000,  -0.012120,  -0.000000]
    <r_h> [Ang]:                        [  0.000000,   0.000000,  -0.084662]
    <r_e> [Ang]:                        [ -0.000000,   0.000001,  -0.156056]
    |<r_e - r_h>| [Ang]:                  0.071394
    Hole size [Ang]:                      1.434000
      Cartesian components [Ang]:       [  0.792243,   0.568058,   1.051673]
    Electron size [Ang]:                  2.802583
      Cartesian components [Ang]:       [  1.575796,   1.959417,   1.237751]
    RMS electron-hole separation [Ang]:   3.139899
      Cartesian components [Ang]:       [  1.749318,   2.038573,   1.625754]
    Covariance(r_h, r_e) [Ang^2]:         0.028479
    Correlation coefficient:              0.007086
    Center-of-mass size [Ang]:            1.578590
      Cartesian components [Ang]:       [  0.889023,   1.020812,   0.812113]

  Decomposition into state-averaged NTOs
                   omega =   0.4%
  ----------------------------------------------------------------------------


  Excited state 9 (singlet, B2)                                    [converged]
  ----------------------------------------------------------------------------
  Term symbol:  9 (1) B2                                    R^2 =  2.53720e-08

  Total energy:                                            -78.3758676635 a.u.
  Excitation energy:                                              11.508402 eV

  Osc. strength:                                                      0.000443
  Trans. dip. moment [a.u.]:           [   0.000004,    0.039626,    0.000000]
  <i|r^2|0> [a.u.]:                    [   0.000001,    0.000000,   -0.000000]

  Dip. moment [a.u.]:                  [   0.000000,   -0.000002,   -0.270937]
  Total dipole [Debye]:                                               0.688652
  <r^2> [a.u.]:                        [  69.806308,   46.261470,   59.419806]
  Total <r^2> [a.u.]:                                               175.487583

  V1^2 = 0.6510, V2^2 = 0.3490

  Important amplitudes:
      occ i      occ j       vir a       vir b          v   
    ---------------------------------------------------------
     4 (A1) A               3 (B2) A                 -0.5107
     5 (A1) A   5 (A1) B    6 (A1) A    2 (B2) B      0.1985
    ---------------------------------------------------------

  Density matrix analysis:
  ------------------------
  NOs
    Occupation of frontier NOs:
       0.6617   1.3159
    Number of electrons: 18.000000
    Number of unpaired electrons: n_u =  3.06321, n_u,nl =  2.97718
    NO participation ratio (PR_NO):  6.044875
  
  
  Mulliken Population Analysis
  Atom      Charge (e)              h+              e-           Del q
  --------------------------------------------------------------------
   1 C       -0.438066        0.426145       -0.469754       -0.043609
   2 C       -0.438066        0.426145       -0.469754       -0.043609
   3 H       -0.023133        0.024767       -0.127867       -0.103100
   4 H       -0.023109        0.024767       -0.127870       -0.103104
   5 H       -0.023118        0.024767       -0.127870       -0.103103
   6 H       -0.023142        0.024768       -0.127867       -0.103099
   7 H       -0.031366        0.500000       -0.000377        0.499623
  --------------------------------------------------------------------
  Sum:       -1.000000        1.451359       -1.451359       -0.000000
  
  Multipole moment analysis of the density matrix
    Molecular charge:                      -1.000000
    Number of electrons:                   18.000000
      Center of electronic charge [Ang]: [ -0.000000,   0.000000,   0.007965]
    Total nuclear charge:                  17.000000
      Center of nuclear charge [Ang]:    [  0.000000,   0.000000,  -0.000000]
    Dipole moment [D]:                     0.688652
      Cartesian components [D]:          [  0.000000,  -0.000005,  -0.688652]
    RMS size of the density [Ang]:         1.652278
      Cartesian components [Ang]:        [  1.042107,   0.848349,   0.961425]
  
  Exciton analysis of the difference density matrix
    <r_h> [Ang]:                  [  0.000000,   0.000000,   1.022514]
    <r_e> [Ang]:                  [ -0.000000,   0.000000,  -0.382414]
    |<r_e - r_h>| [Ang]:            1.404928
    Hole size [Ang]:                2.052011
      Cartesian components [Ang]: [  0.902873,   0.767803,   1.675127]
    Electron size [Ang]:            3.229425
      Cartesian components [Ang]: [  2.000759,   2.058098,   1.479992]

  Transition density matrix analysis:
  -----------------------------------
  
  CT numbers (Mulliken)
    omega =     0.6287
    <Phe> =    -0.0082
  
  Exciton analysis of the transition density matrix
    Trans. dipole moment [D]:             0.050360
      Cartesian components [D]:         [  0.000005,   0.050360,   0.000000]
    <r_h> [Ang]:                        [  0.000000,   0.000000,  -0.144543]
    <r_e> [Ang]:                        [ -0.000000,   0.000001,  -0.158797]
    |<r_e - r_h>| [Ang]:                  0.014254
    Hole size [Ang]:                      1.362073
      Cartesian components [Ang]:       [  0.788674,   0.559964,   0.958998]
    Electron size [Ang]:                  2.822083
      Cartesian components [Ang]:       [  1.586878,   1.964554,   1.259562]
    RMS electron-hole separation [Ang]:   3.120652
      Cartesian components [Ang]:       [  1.751265,   2.041430,   1.582437]
    Covariance(r_h, r_e) [Ang^2]:         0.040564
    Correlation coefficient:              0.010553
    Center-of-mass size [Ang]:            1.573255
      Cartesian components [Ang]:       [  0.896305,   1.022084,   0.791904]

  Decomposition into state-averaged NTOs
    H- 2 -> L+ 1: -0.5455 ( 59.5%)
    H- 1 -> L+ 5: -0.1184 (  2.8%)
                   omega =  62.9%
  ----------------------------------------------------------------------------


  Excited state 10 (singlet, B2)                                    [converged]
  ----------------------------------------------------------------------------
  Term symbol:  10 (1) B2                                   R^2 =  3.81413e-08

  Total energy:                                            -78.3757079796 a.u.
  Excitation energy:                                              11.512747 eV

  Osc. strength:                                                      0.000025
  Trans. dip. moment [a.u.]:           [  -0.000003,   -0.009362,   -0.000000]
  <i|r^2|0> [a.u.]:                    [  -0.000000,   -0.000000,    0.000000]

  Dip. moment [a.u.]:                  [   0.000000,   -0.000002,    4.062785]
  Total dipole [Debye]:                                              10.326572
  <r^2> [a.u.]:                        [  83.542643,   54.513756,   47.834038]
  Total <r^2> [a.u.]:                                               185.890437

  V1^2 = 0.2990, V2^2 = 0.7010

  Important amplitudes:
      occ i      occ j       vir a       vir b          v   
    ---------------------------------------------------------
     4 (A1) A               3 (B2) A                  0.3460
     5 (A1) A   5 (A1) B    6 (A1) A    2 (B2) B      0.2925
    ---------------------------------------------------------

  Density matrix analysis:
  ------------------------
  NOs
    Occupation of frontier NOs:
       0.6900   0.7049
    Number of electrons: 18.000000
    Number of unpaired electrons: n_u =  3.01914, n_u,nl =  2.95236
    NO participation ratio (PR_NO):  5.928894
  
  
  Mulliken Population Analysis
  Atom      Charge (e)              h+              e-           Del q
  --------------------------------------------------------------------
   1 C       -0.811211        0.340125       -0.756879       -0.416753
   2 C       -0.811211        0.340125       -0.756879       -0.416753
   3 H        0.023156        0.001458       -0.058269       -0.056811
   4 H        0.023182        0.001458       -0.058271       -0.056813
   5 H        0.023172        0.001458       -0.058270       -0.056813
   6 H        0.023146        0.001458       -0.058269       -0.056811
   7 H        0.529765        1.059928        0.000827        1.060755
  --------------------------------------------------------------------
  Sum:       -1.000000        1.746009       -1.746009       -0.000000
  
  Multipole moment analysis of the density matrix
    Molecular charge:                      -1.000000
    Number of electrons:                   18.000000
      Center of electronic charge [Ang]: [ -0.000000,   0.000000,  -0.119441]
    Total nuclear charge:                  17.000000
      Center of nuclear charge [Ang]:    [  0.000000,   0.000000,  -0.000000]
    Dipole moment [D]:                     10.326568
      Cartesian components [D]:          [  0.000000,  -0.000004,  10.326568]
    RMS size of the density [Ang]:         1.696366
      Cartesian components [Ang]:        [  1.140037,   0.920912,   0.854339]
  
  Exciton analysis of the difference density matrix
    <r_h> [Ang]:                  [  0.000000,   0.000000,   1.953727]
    <r_e> [Ang]:                  [ -0.000000,   0.000000,  -0.527568]
    |<r_e - r_h>| [Ang]:            2.481294
    Hole size [Ang]:                1.892929
      Cartesian components [Ang]: [  0.841440,   0.787243,   1.501802]
    Electron size [Ang]:            3.634809
      Cartesian components [Ang]: [  2.358171,   2.230289,   1.636054]

  Transition density matrix analysis:
  -----------------------------------
  
  CT numbers (Mulliken)
    omega =     0.2889
    <Phe> =    -0.0082
  
  Exciton analysis of the transition density matrix
    Trans. dipole moment [D]:             0.011898
      Cartesian components [D]:         [ -0.000004,  -0.011898,  -0.000000]
    <r_h> [Ang]:                        [  0.000000,   0.000000,  -0.117809]
    <r_e> [Ang]:                        [ -0.000000,   0.000001,  -0.158737]
    |<r_e - r_h>| [Ang]:                  0.040927
    Hole size [Ang]:                      1.385897
      Cartesian components [Ang]:       [  0.790502,   0.564387,   0.988576]
    Electron size [Ang]:                  2.819508
      Cartesian components [Ang]:       [  1.588106,   1.961061,   1.257690]
    RMS electron-hole separation [Ang]:   3.129237
      Cartesian components [Ang]:       [  1.753244,   2.039439,   1.599672]
    Covariance(r_h, r_e) [Ang^2]:         0.039941
    Correlation coefficient:              0.010222
    Center-of-mass size [Ang]:            1.577198
      Cartesian components [Ang]:       [  0.897229,   1.020940,   0.800135]

  Decomposition into state-averaged NTOs
    H- 2 -> L+ 1:  0.3695 ( 27.3%)
    H- 1 -> L+ 5:  0.0806 (  1.3%)
                   omega =  28.9%
  ----------------------------------------------------------------------------


--------------------------------------------------------------------------------
  Time of ADC calculation:  CPU 353.25 s  wall 81.75 s
================================================================================
 
 --------------------------------------------------------------
             Orbital Energies (a.u.) and Symmetries
 --------------------------------------------------------------
 
 Alpha MOs, Restricted
 -- Occupied --                  
-11.071 -11.069  -0.873  -0.618  -0.495  -0.403  -0.353  -0.207
  1 A1    1 B1    2 A1    2 B1    1 B2    3 A1    1 A2    4 A1                 
 -0.009
  5 A1                                                                         
 -- Virtual --                   
  0.178   0.199   0.206   0.226   0.230   0.234   0.330   0.335
  3 B1    6 A1    2 B2    2 A2    7 A1    4 B1    8 A1    5 B1                 
  0.351   0.446   0.458   0.460   0.483   0.501   0.504   0.520
  6 B1    9 A1    3 B2    7 B1   10 A1    3 A2    4 B2    8 B1                 
  0.532   0.594   0.704   0.776   1.007   1.011   1.085   1.092
 11 A1    9 B1    4 A2   10 B1    5 B2   12 A1   13 A1   11 B1                 
  1.116   1.182   1.201   1.230   1.283   1.295   1.313   1.321
 14 A1    5 A2    6 B2   15 A1    7 B2   12 B1   16 A1   13 B1                 
  1.450   1.452   1.467   1.607   1.788   1.835   1.892   1.919
  6 A2   14 B1   17 A1    7 A2   18 A1    8 A2    8 B2    9 B2                 
  1.951   1.979   2.044   2.123   2.131   2.182   2.244   2.262
 15 B1   19 A1   16 B1   17 B1   20 A1   10 B2   21 A1   11 B2                 
  2.350   2.497   2.579   2.640   2.733   2.743   2.997   3.011
 18 B1   19 B1    9 A2   22 A1   10 A2   20 B1   12 B2   23 A1                 
  3.427   3.505
 21 B1   11 A2                                                                 
 
 Beta MOs, Restricted
 -- Occupied --                  
-11.071 -11.069  -0.873  -0.618  -0.495  -0.403  -0.353  -0.207
  1 A1    1 B1    2 A1    2 B1    1 B2    3 A1    1 A2    4 A1                 
 -0.009
  5 A1                                                                         
 -- Virtual --                   
  0.178   0.199   0.206   0.226   0.230   0.234   0.330   0.335
  3 B1    6 A1    2 B2    2 A2    7 A1    4 B1    8 A1    5 B1                 
  0.351   0.446   0.458   0.460   0.483   0.501   0.504   0.520
  6 B1    9 A1    3 B2    7 B1   10 A1    3 A2    4 B2    8 B1                 
  0.532   0.594   0.704   0.776   1.007   1.011   1.085   1.092
 11 A1    9 B1    4 A2   10 B1    5 B2   12 A1   13 A1   11 B1                 
  1.116   1.182   1.201   1.230   1.283   1.295   1.313   1.321
 14 A1    5 A2    6 B2   15 A1    7 B2   12 B1   16 A1   13 B1                 
  1.450   1.452   1.467   1.607   1.788   1.835   1.892   1.919
  6 A2   14 B1   17 A1    7 A2   18 A1    8 A2    8 B2    9 B2                 
  1.951   1.979   2.044   2.123   2.131   2.182   2.244   2.262
 15 B1   19 A1   16 B1   17 B1   20 A1   10 B2   21 A1   11 B2                 
  2.350   2.497   2.579   2.640   2.733   2.743   2.997   3.011
 18 B1   19 B1    9 A2   22 A1   10 A2   20 B1   12 B2   23 A1                 
  3.427   3.505
 21 B1   11 A2                                                                 
 --------------------------------------------------------------
 
          Ground-State Mulliken Net Atomic Charges

     Atom                 Charge (a.u.)
  ----------------------------------------
      1 C                    -0.357002
      2 C                    -0.357002
      3 H                     0.070793
      4 H                     0.070821
      5 H                     0.070811
      6 H                     0.070783
      7 H                    -0.569204
  ----------------------------------------
  Sum of atomic charges =    -1.000000

 -----------------------------------------------------------------
                    Cartesian Multipole Moments
 -----------------------------------------------------------------
    Charge (ESU x 10^10)
                -4.8032
    Dipole Moment (Debye)
         X      -0.0000      Y      -0.0000      Z     -10.6596
       Tot      10.6596
    Quadrupole Moments (Debye-Ang)
        XX     -19.8759     XY       0.0000     YY     -18.6806
        XZ      -0.0000     YZ       0.0000     ZZ     -53.6248
    Octopole Moments (Debye-Ang^2)
       XXX       0.0000    XXY      -0.0000    XYY       0.0000
       YYY      -0.0000    XXZ     -10.6582    XYZ      -0.0000
       YYZ     -11.1359    XZZ       0.0000    YZZ      -0.0000
       ZZZ    -103.0181
    Hexadecapole Moments (Debye-Ang^3)
      XXXX     -95.7128   XXXY       0.0000   XXYY     -22.0272
      XYYY       0.0000   YYYY     -51.5471   XXXZ      -0.0000
      XXYZ       0.0000   XYYZ      -0.0000   YYYZ       0.0000
      XXZZ     -60.1096   XYZZ       0.0000   YYZZ     -52.5457
      XZZZ      -0.0000   YZZZ       0.0000   ZZZZ    -444.7937
 -----------------------------------------------------------------
 Total job time:  164.36s(wall), 398.19s(cpu) 
 Sat Mar 26 01:40:56 2022

        *************************************************************
        *                                                           *
        *  Thank you very much for using Q-Chem.  Have a nice day.  *
        *                                                           *
        *************************************************************


