/src/tsommerfeld/qchem/exe/qcprog.exe .input1.145455.28186.qcin.1 /src/jdavis/qchem.scratch/qchem28186/

                  Welcome to Q-Chem
     A Quantum Leap Into The Future Of Chemistry


 Q-Chem 5.4 (devel), Q-Chem, Inc., Pleasanton, CA (2021)

 E. Epifanovsky,  A. T. B. Gilbert,  Xintian Feng,  Joonho Lee,  Yuezhi Mao,  
 N. Mardirossian,  P. Pokhilko,  A. White,  M. Wormit,  M. P. Coons,  
 A. L. Dempwolff,  Zhengting Gan,  D. Hait,  P. R. Horn,  L. D. Jacobson,  
 I. Kaliman,  J. Kussmann,  A. W. Lange,  Ka Un Lao,  D. S. Levine,  Jie Liu,  
 S. C. McKenzie,  A. F. Morrison,  K. Nanda,  F. Plasser,  D. R. Rehn,  
 M. L. Vidal,  Zhi-Qiang You,  Ying Zhu,  B. Alam,  B. Albrecht,  
 A. Aldossary,  E. Alguire,  J. H. Andersen,  D. Barton,  K. Begam,  A. Behn,  
 Y. A. Bernard,  E. J. Berquist,  H. Burton,  A. Carreras,  K. Carter-Fenk,  
 R. Chakraborty,  A. D. Chien,  K. D. Closser,  V. Cofer-Shabica,  
 S. Dasgupta,  Jia Deng,  M. de Wergifosse,  M. Diedenhofen,  Hainam Do,  
 S. Ehlert,  Po-Tung Fang,  S. Fatehi,  Qingguo Feng,  T. Friedhoff,  
 J. Gayvert,  Qinghui Ge,  G. Gidofalvi,  M. Goldey,  J. Gomes,  
 C. Gonzalez-Espinoza,  S. Gulania,  A. Gunina,  M. W. D. Hanson-Heine,  
 P. H. P. Harbach,  A. W. Hauser,  M. F. Herbst,  M. Hernandez Vera,  
 M. Hodecker,  Z. C. Holden,  S. Houck,  Xunkun Huang,  Kerwin Hui,  
 B. C. Huynh,  M. Ivanov,  Hyunjun Ji,  Hanjie Jiang,  B. Kaduk,  S. Kaehler,  
 K. Khistyaev,  Jaehoon Kim,  P. Klunzinger,  Z. Koczor-Benda,  
 Joong Hoon Koh,  D. Kosenkov,  L. Koulias,  T. Kowalczyk,  C. M. Krauter,  
 K. Kue,  A. Kunitsa,  T. Kus,  A. Landau,  K. V. Lawler,  D. Lefrancois,  
 S. Lehtola,  Rain Li,  Yi-Pei Li,  Jiashu Liang,  M. Liebenthal,  
 Hung-Hsuan Lin,  You-Sheng Lin,  Fenglai Liu,  Kuan-Yu Liu,  
 M. Loipersberger,  A. Luenser,  A. Manjanath,  P. Manohar,  E. Mansoor,  
 S. F. Manzer,  Shan-Ping Mao,  A. V. Marenich,  T. Markovich,  S. Mason,  
 S. A. Maurer,  P. F. McLaughlin,  M. F. S. J. Menger,  J.-M. Mewes,  
 S. A. Mewes,  P. Morgante,  J. W. Mullinax,  K. J. Oosterbaan,  G. Paran,  
 Alexander C. Paul,  Suranjan K. Paul,  F. Pavosevic,  Zheng Pei,  S. Prager,  
 E. I. Proynov,  E. Ramos,  B. Rana,  A. E. Rask,  A. Rettig,  R. M. Richard,  
 F. Rob,  E. Rossomme,  T. Scheele,  M. Scheurer,  M. Schneider,  
 N. Sergueev,  S. M. Sharada,  W. Skomorowski,  D. W. Small,  C. J. Stein,  
 Yu-Chuan Su,  E. J. Sundstrom,  Zhen Tao,  J. Thirman,  T. Tsuchimochi,  
 N. M. Tubman,  S. P. Veccham,  O. Vydrov,  J. Wenzel,  J. Witte,  A. Yamada,  
 Kun Yao,  S. Yeganeh,  S. R. Yost,  A. Zech,  Igor Ying Zhang,  Xing Zhang,  
 Yu Zhang,  D. Zuev,  A. Aspuru-Guzik,  A. T. Bell,  N. A. Besley,  
 K. B. Bravaya,  B. R. Brooks,  D. Casanova,  Jeng-Da Chai,  S. Coriani,  
 C. J. Cramer,  A. E. DePrince, III,  R. A. DiStasio Jr.,  A. Dreuw,  
 B. D. Dunietz,  T. R. Furlani,  W. A. Goddard III,  S. Grimme,  
 S. Hammes-Schiffer,  T. Head-Gordon,  W. J. Hehre,  Chao-Ping Hsu,  
 T.-C. Jagau,  Yousung Jung,  A. Klamt,  Jing Kong,  D. S. Lambrecht,  
 WanZhen Liang,  N. J. Mayhall,  C. W. McCurdy,  J. B. Neaton,  
 C. Ochsenfeld,  J. A. Parkhill,  R. Peverati,  V. A. Rassolov,  Yihan Shao,  
 L. V. Slipchenko,  T. Stauch,  R. P. Steele,  J. E. Subotnik,  
 A. J. W. Thom,  A. Tkatchenko,  D. G. Truhlar,  T. Van Voorhis,  
 T. A. Wesolowski,  K. B. Whaley,  H. L. Woodcock III,  P. M. Zimmerman,  
 S. Faraji,  P. M. W. Gill,  M. Head-Gordon,  J. M. Herbert,  A. I. Krylov

 Additional authors for Version 5.4.1: 
 S. Kotaru,  Shaozhi Li,  Xiangyuan Li,  F. Matz,  A. Molle,  Haisheng Ren,  
 Yingli Su,  Hung-Yi Tsai,  C. Utku,  Fang Wang

 Contributors to earlier versions of Q-Chem not listed above: 
 R. D. Adamson,  B. Austin,  R. Baer,  J. Baker,  G. J. O. Beran,  
 K. Brandhorst,  S. T. Brown,  E. F. C. Byrd,  A. K. Chakraborty,  
 G. K. L. Chan,  Chun-Min Chang,  Yunqing Chen,  C.-L. Cheng,  
 Siu Hung Chien,  D. M. Chipman,  D. L. Crittenden,  H. Dachsel,  
 R. J. Doerksen,  A. D. Dutoi,  R. G. Edgar,  J. Fosso-Tande,  
 L. Fusti-Molnar,  D. Ghosh,  A. Ghysels,  A. Golubeva-Zadorozhnaya,  
 J. Gonthier,  M. S. Gordon,  S. R. Gwaltney,  G. Hawkins,  J. E. Herr,  
 A. Heyden,  S. Hirata,  E. G. Hohenstein,  G. Kedziora,  F. J. Keil,  
 C. Kelley,  Jihan Kim,  R. A. King,  R. Z. Khaliullin,  P. P. Korambath,  
 W. Kurlancheek,  A. Laurent,  A. M. Lee,  M. S. Lee,  S. V. Levchenko,  
 Ching Yeh Lin,  D. Liotard,  E. Livshits,  R. C. Lochan,  I. Lotan,  
 L. A. Martinez-Martinez,  P. E. Maslen,  N. Nair,  D. P. O'Neill,  
 D. Neuhauser,  E. Neuscamman,  C. M. Oana,  R. Olivares-Amaya,  R. Olson,  
 T. M. Perrine,  B. Peters,  P. A. Pieniazek,  A. Prociuk,  Y. M. Rhee,  
 J. Ritchie,  M. A. Rohrdanz,  E. Rosta,  N. J. Russ,  H. F. Schaefer III,  
 M. W. Schmidt,  N. E. Schultz,  S. Sharma,  N. Shenvi,  C. D. Sherrill,  
 A. C. Simmonett,  A. Sodt,  T. Stein,  D. Stuck,  K. S. Thanthiriwatte,  
 V. Vanovschi,  L. Vogt,  Tao Wang,  A. Warshel,  M. A. Watson,  
 C. F. Williams,  Q. Wu,  X. Xu,  Jun Yang,  W. Zhang,  Yan Zhao

 Please cite Q-Chem as follows:
 Y. Shao et al., Mol. Phys. 113, 184-215 (2015)
 DOI: 10.1080/00268976.2014.952696

 Q-Chem 5.4.1 for Intel X86 EM64T Linux

 Parts of Q-Chem use Armadillo 9.900.5 (Nocturnal Misbehaviour).
 http://arma.sourceforge.net/

 Q-Chem begins on Wed Mar  2 21:30:51 2022  

 Host: node01
0

     Scratch files written to /src/jdavis/qchem.scratch/qchem28186//
 Processing $rem in /src/tsommerfeld/qchem/config/preferences:
 Processing $rem in /home/jdavis/.qchemrc:

 Checking the input file for inconsistencies... 	...done.

--------------------------------------------------------------
User input:
--------------------------------------------------------------
$molecule
-1 1
C        -0.6645000000    0.0000000000    1.1619088658
C         0.6645000000    0.0000000000    1.1619088658
H        -1.1590800000    0.0000000000    0.1995598658
H         1.1590800000    0.0000000000    0.1995598658
H        -1.1590800000    0.0000000000    2.1242568658
H         1.1590800000    0.0000000000    2.1242568658
O         0.0000000000    0.0000000000   -1.5841414040
H         0.0000000000    0.0000000000   -2.5471307683
$end
$rem
   METHOD adc(2)
   BASIS gen
   PURECART 11
   EE_STATES [0,10,0,0]
   scf_convergence 8
   ADC_DAVIDSON_MAXITER 120
   ADC_DAVIDSON_MAXSUBSPACE 200
   adc_nguess_singles 100
   THRESH 14
   S2THRESH 14
   adc_davidson_conv 5
   adc_davidson_thresh 14
   THREADS 10
   MEM_TOTAL 95000
   STATE_ANALYSIS TRUE
$end
$basis
C 1
S   9   1.00
      6.665000D+03           6.920000D-04
      1.000000D+03           5.329000D-03
      2.280000D+02           2.707700D-02
      6.471000D+01           1.017180D-01
      2.106000D+01           2.747400D-01
      7.495000D+00           4.485640D-01
      2.797000D+00           2.850740D-01
      5.215000D-01           1.520400D-02
      1.596000D-01          -3.191000D-03
S   9   1.00
      6.665000D+03          -1.460000D-04
      1.000000D+03          -1.154000D-03
      2.280000D+02          -5.725000D-03
      6.471000D+01          -2.331200D-02
      2.106000D+01          -6.395500D-02
      7.495000D+00          -1.499810D-01
      2.797000D+00          -1.272620D-01
      5.215000D-01           5.445290D-01
      1.596000D-01           5.804960D-01
S   1   1.00
      1.596000D-01           1.000000D+00
S   1   1.00
      0.0469000              1.0000000
P   4   1.00
      9.439000D+00           3.810900D-02
      2.002000D+00           2.094800D-01
      5.456000D-01           5.085570D-01
      1.517000D-01           4.688420D-01
P   1   1.00
      1.517000D-01           1.000000D+00
P   1   1.00
      0.0496473      1.0000000
P   1   1.00
      0.0248236      1.0000000
D   1   1.00
      5.500000D-01           1.0000000
****
C 2
S   9   1.00
      6.665000D+03           6.920000D-04
      1.000000D+03           5.329000D-03
      2.280000D+02           2.707700D-02
      6.471000D+01           1.017180D-01
      2.106000D+01           2.747400D-01
      7.495000D+00           4.485640D-01
      2.797000D+00           2.850740D-01
      5.215000D-01           1.520400D-02
      1.596000D-01          -3.191000D-03
S   9   1.00
      6.665000D+03          -1.460000D-04
      1.000000D+03          -1.154000D-03
      2.280000D+02          -5.725000D-03
      6.471000D+01          -2.331200D-02
      2.106000D+01          -6.395500D-02
      7.495000D+00          -1.499810D-01
      2.797000D+00          -1.272620D-01
      5.215000D-01           5.445290D-01
      1.596000D-01           5.804960D-01
S   1   1.00
      1.596000D-01           1.000000D+00
S   1   1.00
      0.0469000              1.0000000
P   4   1.00
      9.439000D+00           3.810900D-02
      2.002000D+00           2.094800D-01
      5.456000D-01           5.085570D-01
      1.517000D-01           4.688420D-01
P   1   1.00
      1.517000D-01           1.000000D+00
P   1   1.00
      0.0496473      1.0000000
P   1   1.00
      0.0248236      1.0000000
D   1   1.00
      5.500000D-01           1.0000000
****
H 3
cc-pVDZ
****
H 4
cc-pVDZ
****
H 5
cc-pVDZ
****
H 6
cc-pVDZ
****
O 7
aug-cc-pVDZ
****
H 8
cc-pVDZ
****
$end
--------------------------------------------------------------
 ----------------------------------------------------------------
             Standard Nuclear Orientation (Angstroms)
    I     Atom           X                Y                Z
 ----------------------------------------------------------------
    1      C      -0.6645000000    -0.0000000000     1.0270977517
    2      C       0.6645000000     0.0000000000     1.0270977517
    3      H      -1.1590800000    -0.0000000000     0.0647487517
    4      H       1.1590800000     0.0000000000     0.0647487517
    5      H      -1.1590800000    -0.0000000000     1.9894457517
    6      H       1.1590800000     0.0000000000     1.9894457517
    7      O       0.0000000000    -0.0000000000    -1.7189525181
    8      H       0.0000000000    -0.0000000000    -2.6819418824
 ----------------------------------------------------------------
 Molecular Point Group                 C2v   NOp =  4
 Largest Abelian Subgroup              C2v   NOp =  4
 Nuclear Repulsion Energy =          64.38561153 hartrees
 There are       13 alpha and       13 beta electrons
 Requested basis set is non-standard
 There are 42 shells and 90 basis functions
 Total memory of 95000 MB is distributed as follows: 
   MEM_STATIC is set to 192 MB
   QALLOC/CCMAN JOB total memory use is  94808 MB
 Warning: actual memory use might exceed 95000 MB

 Total QAlloc Memory Limit  95000 MB
 Mega-Array Size       188 MB
 MEM_STATIC part       192 MB

                       Distance Matrix (Angstroms)
             C (  1)   C (  2)   H (  3)   H (  4)   H (  5)   H (  6)
   C (  2)  1.329000
   H (  3)  1.082000  2.061931
   H (  4)  2.061931  1.082000  2.318160
   H (  5)  1.082000  2.061931  1.924697  3.013026
   H (  6)  2.061931  1.082000  3.013026  1.924697  2.318160
   O (  7)  2.825306  2.825306  2.127218  2.127218  3.885316  3.885316
   H (  8)  3.768094  3.768094  2.981237  2.981237  4.813037  4.813037
             O (  7)
   H (  8)  0.962989
 
 A cutoff of  1.0D-14 yielded    903 shell pairs
 There are      4183 function pairs (      4573 Cartesian)
 Smallest overlap matrix eigenvalue = 1.47E-04

 Scale SEOQF with 1.000000e-01/1.000000e-01/1.000000e-01

 Standard Electronic Orientation quadrupole field applied
 Nucleus-field energy     =    -0.0000000051 hartrees
 ================ Generating on-the-fly SAD Guess ================
Attempting to make child job directory: /src/jdavis/qchem.scratch/qchem28186//Frg1/
Attempting to make child job directory: /src/jdavis/qchem.scratch/qchem28186//Frg2/
Attempting to make child job directory: /src/jdavis/qchem.scratch/qchem28186//Frg3/
Creating input file /src/jdavis/qchem.scratch/qchem28186/Frg1.input
using default PutDataFrgm: nothing
calling putenv with: QCSCRATCH=/src/jdavis/qchem.scratch/qchem28186/ 
Spawning Job For Fragment 0
Done Job For Fragment 0
calling putenv with: QCSCRATCH=/src/jdavis/qchem.scratch 
calling putenv with: QCTHREADS=1 
Creating input file /src/jdavis/qchem.scratch/qchem28186/Frg2.input
using default PutDataFrgm: nothing
calling putenv with: QCSCRATCH=/src/jdavis/qchem.scratch/qchem28186/ 
Spawning Job For Fragment 1
Done Job For Fragment 1
calling putenv with: QCSCRATCH=/src/jdavis/qchem.scratch 
calling putenv with: QCTHREADS=1 
Creating input file /src/jdavis/qchem.scratch/qchem28186/Frg3.input
using default PutDataFrgm: nothing
calling putenv with: QCSCRATCH=/src/jdavis/qchem.scratch/qchem28186/ 
Spawning Job For Fragment 2
Done Job For Fragment 2
calling putenv with: QCSCRATCH=/src/jdavis/qchem.scratch 
calling putenv with: QCTHREADS=1 
 Time for running child jobs:  CPU 1.77 s  wall 80.38 s
 ============= Method Specific SAD Guess Constructed =============
 Guess from on-the-fly superposition of atomic densities
 Warning: Energy on first SCF cycle will be non-variational
 A restricted Hartree-Fock SCF calculation will be
 performed using Pulay DIIS extrapolation
 SCF converges when DIIS error is below 1.0E-08
 using 10 threads for integral computing
 -------------------------------------------------------
 OpenMP Integral computing Module                
 Release: version 1.0, May 2013, Q-Chem Inc. Pittsburgh 
 -------------------------------------------------------
 ---------------------------------------
  Cycle       Energy         DIIS Error
 ---------------------------------------
    1    -153.5738527506      5.98E-02
    2    -153.2897470484      1.22E-02
    3    -153.3550669515      1.03E-02
    4    -153.4401757711      7.64E-04
    5    -153.4411117772      2.12E-04
    6    -153.4411857733      4.63E-05
    7    -153.4411911541      1.22E-05
    8    -153.4411917252      3.66E-06
    9    -153.4411917739      7.35E-07
   10    -153.4411917756      1.29E-07
   11    -153.4411917757      3.97E-08
   12    -153.4411917757      1.27E-08
   13    -153.4411917757      2.70E-09 Convergence criterion met
 ---------------------------------------
 SCF time:  CPU 15.17 s  wall 1.52 s
 SCF   energy in the final basis set = -153.44119178
 Total energy in the final basis set = -153.44119178
================================================================================
|                                                                              |
|                                 A D C  M A N                                 |
|                                                                              |
 ------------------------------------------------------------------------------ 
|                                                                              |
| Components:                                                                  |
|                                                                              |
| - libvmm - 1.3-trunk                                                         |
|   Authors:                                                                   |
|   Evgeny Epifanovsky, Ilya Kaliman                                           |
|                                                                              |
| - libtensor - 2.5-trunk                                                      |
|   Authors:                                                                   |
|   Evgeny Epifanovsky, Michael Wormit, Dmitry Zuev, Sam Manzer,               |
|   Ilya Kaliman                                                               |
|                                                                              |
| - libwfa - 1.1-trunk                                                         |
|   Authors:                                                                   |
|   Felix Plasser, Stefanie Mewes (Baeppler), Benjamin Thomitzni,              |
|   Michael Wormit, Feng Chen, Anna I. Krylov, Pavel Pokhilko                  |
|                                                                              |
| - libadc - 1.1-trunk                                                         |
|   Authors:                                                                   |
|   Michael Wormit, Adrian L. Dempwolff, Philipp H. P. Harbach,                |
|   Caroline Krauter, Dirk Rehn, Matthias Schneider, Jan Wenzel                |
|                                                                              |
| - adcman - 2.6-trunk                                                         |
|   Authors:                                                                   |
|   Michael Wormit, Adrian L. Dempwolff, Philipp H. P. Harbach,                |
|   Caroline Krauter, Daniel Lefrancois, Jan-Michael Mewes, Dirk Rehn,         |
|   Matthias Schneider, Jan Wenzel, Andreas Dreuw                              |
|                                                                              |
| Authors of earlier versions of ADCMAN:                                       |
| Andreas Dreuw, Jan Hendrik Starcke, Dirk Rehn, Michael Wormit                |
|                                                                              |
================================================================================

 
 Alpha MOs, Restricted
 -- Occupied --                  
-20.213 -11.049 -11.047  -0.930  -0.854  -0.598  -0.473  -0.384
  1 A1    2 A1    1 B1    3 A1    4 A1    2 B1    5 A1    6 A1                 
 -0.328  -0.271  -0.194  -0.130  -0.129
  3 B1    7 A1    1 B2    4 B1    2 B2                                         
 -- Virtual --                   
  0.148   0.155   0.168   0.171   0.175   0.186   0.258   0.300
  5 B1    8 A1    3 B2    9 A1    1 A2    6 B1   10 A1    2 A2                 
  0.323   0.327   0.337   0.344   0.375   0.386   0.391   0.452
  7 B1   11 A1    8 B1   12 A1    4 B2    9 B1   13 A1    5 B2                 
  0.463   0.480   0.515   0.523   0.550   0.577   0.682   0.684
  3 A2   10 B1   14 A1   15 A1   11 B1   16 A1   17 A1   12 B1                 
  0.718   0.907   1.001   1.058   1.081   1.098   1.113   1.153
 13 B1   18 A1   19 A1   20 A1   21 A1    6 B2   14 B1    4 A2                 
  1.183   1.205   1.218   1.240   1.291   1.324   1.334   1.339
 15 B1    7 B2   22 A1   16 B1    5 A2   23 A1   17 B1   24 A1                 
  1.370   1.468   1.483   1.503   1.564   1.645   1.703   1.719
  8 B2    9 B2    6 A2   18 B1   19 B1   25 A1   20 B1   10 B2                 
  1.860   1.927   1.991   2.045   2.127   2.132   2.132   2.210
 26 A1   21 B1   27 A1    7 A2   11 B2   28 A1   22 B1   29 A1                 
  2.212   2.306   2.360   2.393   2.437   2.510   2.561   2.604
 12 B2   30 A1    8 A2   13 B2   23 B1   24 B1   31 A1    9 A2                 
  2.759   2.764   2.846   3.010   3.036   3.097   3.453   3.562
 32 A1   25 B1   26 B1   33 A1   34 A1   35 A1   27 B1   28 B1                 
  3.922   3.945   3.970   4.089   4.541
 14 B2   10 A2   36 A1   29 B1   37 A1                                         
 
 Beta MOs, Restricted
 -- Occupied --                  
-20.213 -11.049 -11.047  -0.930  -0.854  -0.598  -0.473  -0.384
  1 A1    2 A1    1 B1    3 A1    4 A1    2 B1    5 A1    6 A1                 
 -0.328  -0.271  -0.194  -0.130  -0.129
  3 B1    7 A1    1 B2    4 B1    2 B2                                         
 -- Virtual --                   
  0.148   0.155   0.168   0.171   0.175   0.186   0.258   0.300
  5 B1    8 A1    3 B2    9 A1    1 A2    6 B1   10 A1    2 A2                 
  0.323   0.327   0.337   0.344   0.375   0.386   0.391   0.452
  7 B1   11 A1    8 B1   12 A1    4 B2    9 B1   13 A1    5 B2                 
  0.463   0.480   0.515   0.523   0.550   0.577   0.682   0.684
  3 A2   10 B1   14 A1   15 A1   11 B1   16 A1   17 A1   12 B1                 
  0.718   0.907   1.001   1.058   1.081   1.098   1.113   1.153
 13 B1   18 A1   19 A1   20 A1   21 A1    6 B2   14 B1    4 A2                 
  1.183   1.205   1.218   1.240   1.291   1.324   1.334   1.339
 15 B1    7 B2   22 A1   16 B1    5 A2   23 A1   17 B1   24 A1                 
  1.370   1.468   1.483   1.503   1.564   1.645   1.703   1.719
  8 B2    9 B2    6 A2   18 B1   19 B1   25 A1   20 B1   10 B2                 
  1.860   1.927   1.991   2.045   2.127   2.132   2.132   2.210
 26 A1   21 B1   27 A1    7 A2   11 B2   28 A1   22 B1   29 A1                 
  2.212   2.306   2.360   2.393   2.437   2.510   2.561   2.604
 12 B2   30 A1    8 A2   13 B2   23 B1   24 B1   31 A1    9 A2                 
  2.759   2.764   2.846   3.010   3.036   3.097   3.453   3.562
 32 A1   25 B1   26 B1   33 A1   34 A1   35 A1   27 B1   28 B1                 
  3.922   3.945   3.970   4.089   4.541
 14 B2   10 A2   36 A1   29 B1   37 A1                                         

--------------------------------------------------------------------------------
                                   HF Summary                                   
--------------------------------------------------------------------------------
  Energy:                                                 -153.4411917757 a.u.
  Dip. moment [a.u.]:                  [   0.000000,    0.000000,    2.080039]
  Total dipole [Debye]:                                               5.286934
  <r^2> [a.u.]:                        [  55.707242,   19.695803,  208.049882]
  Total <r^2> [a.u.]:                                               283.452927
--------------------------------------------------------------------------------

--------------------------------------------------------------------------------
                                 MP(2) Summary                                  
--------------------------------------------------------------------------------
  MP energy contribution:                                   -0.5281948233 a.u.
  Total energy:                                           -153.9693865990 a.u.
  Dip. moment [a.u.]:                  [   0.000000,    0.000000,    2.148898]
  Total dipole [Debye]:                                               5.461954
  <r^2> [a.u.]:                        [  56.693336,   20.384929,  209.318892]
  Total <r^2> [a.u.]:                                               286.397157

  Density matrix analysis:
  ------------------------
  NOs
    Occupation of frontier NOs:
       0.0446   1.9357
    Number of electrons: 26.000000
    Number of unpaired electrons: n_u =  0.71504, n_u,nl =  0.08535
    NO participation ratio (PR_NO): 23.003882
  
  
  Mulliken Population Analysis
  Atom      Charge (e)              h+              e-           Del q
  --------------------------------------------------------------------
   1 C       -0.189480        0.094747       -0.097371       -0.002623
   2 C       -0.189480        0.094747       -0.097371       -0.002623
   3 H        0.181014        0.017176       -0.012624        0.004552
   4 H        0.181014        0.017176       -0.012624        0.004552
   5 H        0.015610        0.018164       -0.012195        0.005969
   6 H        0.015610        0.018164       -0.012195        0.005969
   7 O       -1.068476        0.278383       -0.277143        0.001240
   8 H        0.054188        0.015256       -0.032290       -0.017034
  --------------------------------------------------------------------
  Sum:       -1.000000        0.553813       -0.553813        0.000000
  
  Multipole moment analysis of the density matrix
    Molecular charge:                      -1.000000
    Number of electrons:                   26.000000
      Center of electronic charge [Ang]: [ -0.000000,  -0.000000,  -0.043736]
    Total nuclear charge:                  25.000000
      Center of nuclear charge [Ang]:    [  0.000000,   0.000000,  -0.000000]
    Dipole moment [D]:                     5.461952
      Cartesian components [D]:          [  0.000000,   0.000000,   5.461952]
    RMS size of the density [Ang]:         1.755756
      Cartesian components [Ang]:        [  0.781413,   0.468564,   1.500840]
  
  Exciton analysis of the difference density matrix
    <r_h> [Ang]:                  [  0.000000,  -0.000000,  -0.480645]
    <r_e> [Ang]:                  [ -0.000000,  -0.000000,  -0.546440]
    |<r_e - r_h>| [Ang]:            0.065795
    Hole size [Ang]:                1.957263
      Cartesian components [Ang]: [  0.880556,   0.745947,   1.580843]
    Electron size [Ang]:            2.291727
      Cartesian components [Ang]: [  1.128709,   0.951255,   1.753039]
--------------------------------------------------------------------------------
  Starting Davidson for singlet states of irrep A2 ... 
--------------------------------------------------------------------------------
   It NVec Conv  Avg. Norm  Max. Norm  Conv. states           Remark
--------------------------------------------------------------------------------
       100    0  1.489e-01  5.265e-01  0.2485 n n n n n n n n Guess.
    1  110    0  2.132e-02  1.239e-01  0.0772 n n n n n n n n 
    2  120    0  1.128e-02  7.711e-02  0.0760 n n n n n n n n 
    3  130    0  2.545e-03  2.086e-02  0.0760 n n n n n n n n 
    4  140    0  2.978e-04  2.025e-03  0.0760 n n n n n n n n 
    5  150    4  4.141e-05  2.447e-04  0.0760 y y y y n n n n 
    6  160    6  5.275e-06  3.159e-05  0.0760 y y y y y n n n 
    7  170   10  6.254e-07  4.263e-06  0.0760 y y y y y y y y Converged.
--------------------------------------------------------------------------------
  Davidson Summary: 
 ------------------------------------------------------------
  State  0: excitation energy =   0.0760 a.u.   (converged)
  State  1: excitation energy =   0.0867 a.u.   (converged)
  State  2: excitation energy =   0.0973 a.u.   (converged)
  State  3: excitation energy =   0.2158 a.u.   (converged)
  State  4: excitation energy =   0.2212 a.u.   (converged)
  State  5: excitation energy =   0.2433 a.u.   (converged)
  State  6: excitation energy =   0.2457 a.u.   (converged)
  State  7: excitation energy =   0.2553 a.u.   (converged)
  State  8: excitation energy =   0.2635 a.u.   (converged)
  State  9: excitation energy =   0.2651 a.u.   (converged)
 ------------------------------------------------------------


--------------------------------------------------------------------------------
                   State-averaged natural transition orbitals
--------------------------------------------------------------------------------
--------------------------------------------------------------------------------

--------------------------------------------------------------------------------
                             Excited State Summary
--------------------------------------------------------------------------------
--------------------------------------------------------------------------------

  Excited state 1 (singlet, A2)                                    [converged]
  ----------------------------------------------------------------------------
  Term symbol:  1 (1) A2                                    R^2 =  1.43216e-08

  Total energy:                                           -153.8933578690 a.u.
  Excitation energy:                                               2.068847 eV

  Osc. strength:                                                      0.000000
  Trans. dip. moment [a.u.]:           [  -0.000000,   -0.000000,    0.000000]
  <i|r^2|0> [a.u.]:                    [  -0.000000,   -0.000000,   -0.000000]

  Dip. moment [a.u.]:                  [  -0.000000,   -0.000000,   -3.761486]
  Total dipole [Debye]:                                               9.560746
  <r^2> [a.u.]:                        [ 104.360204,   32.830486,  216.441504]
  Total <r^2> [a.u.]:                                               353.632195

  V1^2 = 0.8683, V2^2 = 0.1317

  Important amplitudes:
      occ i      occ j       vir a       vir b          v   
    ---------------------------------------------------------
     2 (B2) A               5 (B1) A                  0.5927
     2 (B2) A               6 (B1) A                 -0.2718
    ---------------------------------------------------------

  Density matrix analysis:
  ------------------------
  NOs
    Occupation of frontier NOs:
       0.9619   0.9984
    Number of electrons: 26.000000
    Number of unpaired electrons: n_u =  2.74910, n_u,nl =  2.11417
    NO participation ratio (PR_NO):  3.869825
  
  
  Mulliken Population Analysis
  Atom      Charge (e)              h+              e-           Del q
  --------------------------------------------------------------------
   1 C       -0.675017        0.034080       -0.519617       -0.485536
   2 C       -0.675017        0.034080       -0.519617       -0.485536
   3 H        0.135235        0.002845       -0.048624       -0.045779
   4 H        0.135235        0.002845       -0.048624       -0.045779
   5 H        0.032317        0.038212       -0.021505        0.016706
   6 H        0.032317        0.038212       -0.021505        0.016706
   7 O       -0.150301        1.404989       -0.486814        0.918175
   8 H        0.165232        0.135137       -0.024093        0.111043
  --------------------------------------------------------------------
  Sum:       -1.000000        1.690400       -1.690400        0.000000
  
  Multipole moment analysis of the density matrix
    Molecular charge:                      -1.000000
    Number of electrons:                   26.000000
      Center of electronic charge [Ang]: [  0.000000,   0.000000,   0.076557]
    Total nuclear charge:                  25.000000
      Center of nuclear charge [Ang]:    [  0.000000,   0.000000,  -0.000000]
    Dipole moment [D]:                     9.560743
      Cartesian components [D]:          [ -0.000000,  -0.000000,  -9.560743]
    RMS size of the density [Ang]:         1.950096
      Cartesian components [Ang]:        [  1.060186,   0.594639,   1.524888]
  
  Exciton analysis of the difference density matrix
    <r_h> [Ang]:                  [ -0.000000,  -0.000000,  -1.462935]
    <r_e> [Ang]:                  [  0.000000,   0.000000,   0.387301]
    |<r_e - r_h>| [Ang]:            1.850237
    Hole size [Ang]:                1.789988
      Cartesian components [Ang]: [  0.849032,   0.878484,   1.308231]
    Electron size [Ang]:            4.041320
      Cartesian components [Ang]: [  2.935517,   1.683283,   2.209427]

  Transition density matrix analysis:
  -----------------------------------
  
  CT numbers (Mulliken)
    omega =     0.8533
    <Phe> =     0.0002
  
  Exciton analysis of the transition density matrix
    Trans. dipole moment [D]:             0.000000
      Cartesian components [D]:         [ -0.000000,  -0.000000,   0.000000]
    <r_h> [Ang]:                        [  0.000000,  -0.000000,  -1.741716]
    <r_e> [Ang]:                        [  0.000000,   0.000000,   1.470450]
    |<r_e - r_h>| [Ang]:                  3.212166
    Hole size [Ang]:                      1.099013
      Cartesian components [Ang]:       [  0.477942,   0.823854,   0.548330]
    Electron size [Ang]:                  4.751200
      Cartesian components [Ang]:       [  3.744208,   2.105799,   2.029880]
    RMS electron-hole separation [Ang]:   5.837364
      Cartesian components [Ang]:       [  3.774201,   2.258759,   3.837738]
    Covariance(r_h, r_e) [Ang^2]:         0.012461
    Correlation coefficient:              0.002386
    Center-of-mass size [Ang]:            2.439603
      Cartesian components [Ang]:       [  1.887489,   1.131841,   1.052608]

  Decomposition into state-averaged NTOs
    H- 0 -> L+ 1: -0.4740 ( 44.9%)
    H- 0 -> L+ 0:  0.4409 ( 38.9%)
    H- 0 -> L+ 7: -0.0787 (  1.2%)
                   omega =  85.3%
  ----------------------------------------------------------------------------


  Excited state 2 (singlet, A2)                                    [converged]
  ----------------------------------------------------------------------------
  Term symbol:  2 (1) A2                                    R^2 =  9.37199e-09

  Total energy:                                           -153.8826460494 a.u.
  Excitation energy:                                               2.360330 eV

  Osc. strength:                                                      0.000000
  Trans. dip. moment [a.u.]:           [   0.000000,    0.000000,   -0.000000]
  <i|r^2|0> [a.u.]:                    [  -0.000000,   -0.000000,    0.000000]

  Dip. moment [a.u.]:                  [  -0.000000,    0.000000,   -3.121772]
  Total dipole [Debye]:                                               7.934755
  <r^2> [a.u.]:                        [  69.024020,   63.523378,  212.731346]
  Total <r^2> [a.u.]:                                               345.278744

  V1^2 = 0.8707, V2^2 = 0.1293

  Important amplitudes:
      occ i      occ j       vir a       vir b          v   
    ---------------------------------------------------------
     4 (B1) A               3 (B2) A                 -0.6564
     4 (B1) A   4 (B1) B   10 (B1) A    3 (B2) B     -0.0526
    ---------------------------------------------------------

  Density matrix analysis:
  ------------------------
  NOs
    Occupation of frontier NOs:
       0.9630   0.9991
    Number of electrons: 26.000000
    Number of unpaired electrons: n_u =  2.74535, n_u,nl =  2.11259
    NO participation ratio (PR_NO):  3.853146
  
  
  Mulliken Population Analysis
  Atom      Charge (e)              h+              e-           Del q
  --------------------------------------------------------------------
   1 C       -0.680318        0.044573       -0.535411       -0.490838
   2 C       -0.680318        0.044573       -0.535411       -0.490838
   3 H        0.131134       -0.002389       -0.047491       -0.049880
   4 H        0.131134       -0.002389       -0.047491       -0.049880
   5 H        0.044010        0.030354       -0.001954        0.028400
   6 H        0.044010        0.030354       -0.001954        0.028400
   7 O       -0.153152        1.402691       -0.487367        0.915324
   8 H        0.163500        0.132974       -0.023662        0.109311
  --------------------------------------------------------------------
  Sum:       -1.000000        1.680741       -1.680741        0.000000
  
  Multipole moment analysis of the density matrix
    Molecular charge:                      -1.000000
    Number of electrons:                   26.000000
      Center of electronic charge [Ang]: [  0.000000,  -0.000000,   0.063537]
    Total nuclear charge:                  25.000000
      Center of nuclear charge [Ang]:    [  0.000000,   0.000000,  -0.000000]
    Dipole moment [D]:                     7.934753
      Cartesian components [D]:          [ -0.000000,   0.000000,  -7.934753]
    RMS size of the density [Ang]:         1.927363
      Cartesian components [Ang]:        [  0.862213,   0.827144,   1.512332]
  
  Exciton analysis of the difference density matrix
    <r_h> [Ang]:                  [ -0.000000,  -0.000000,  -1.463923]
    <r_e> [Ang]:                  [  0.000000,  -0.000000,   0.195535]
    |<r_e - r_h>| [Ang]:            1.659458
    Hole size [Ang]:                1.780113
      Cartesian components [Ang]: [  0.925925,   0.779676,   1.305209]
    Electron size [Ang]:            3.883801
      Cartesian components [Ang]: [  1.706386,   2.791989,   2.092118]

  Transition density matrix analysis:
  -----------------------------------
  
  CT numbers (Mulliken)
    omega =     0.8553
    <Phe> =     0.0001
  
  Exciton analysis of the transition density matrix
    Trans. dipole moment [D]:             0.000000
      Cartesian components [D]:         [  0.000000,   0.000000,  -0.000000]
    <r_h> [Ang]:                        [ -0.000000,  -0.000000,  -1.723356]
    <r_e> [Ang]:                        [  0.000000,  -0.000000,   1.158270]
    |<r_e - r_h>| [Ang]:                  2.881626
    Hole size [Ang]:                      1.141154
      Cartesian components [Ang]:       [  0.824041,   0.471018,   0.633507]
    Electron size [Ang]:                  4.588028
      Cartesian components [Ang]:       [  2.103412,   3.562203,   1.984028]
    RMS electron-hole separation [Ang]:   5.535201
      Cartesian components [Ang]:       [  2.256227,   3.593100,   3.554929]
    Covariance(r_h, r_e) [Ang^2]:         0.008775
    Correlation coefficient:              0.001676
    Center-of-mass size [Ang]:            2.364835
      Cartesian components [Ang]:       [  1.130952,   1.796659,   1.041831]

  Decomposition into state-averaged NTOs
    H- 2 -> L+ 5:  0.5807 ( 67.4%)
    H- 2 -> L+ 2: -0.2997 ( 18.0%)
                   omega =  85.5%
  ----------------------------------------------------------------------------


  Excited state 3 (singlet, A2)                                    [converged]
  ----------------------------------------------------------------------------
  Term symbol:  3 (1) A2                                    R^2 =  1.65379e-08

  Total energy:                                           -153.8720408923 a.u.
  Excitation energy:                                               2.648911 eV

  Osc. strength:                                                      0.000000
  Trans. dip. moment [a.u.]:           [  -0.000000,   -0.000000,    0.000000]
  <i|r^2|0> [a.u.]:                    [   0.000000,    0.000000,    0.000000]

  Dip. moment [a.u.]:                  [  -0.000000,   -0.000000,   -2.264286]
  Total dipole [Debye]:                                               5.755243
  <r^2> [a.u.]:                        [  98.444002,   31.247378,  235.832314]
  Total <r^2> [a.u.]:                                               365.523694

  V1^2 = 0.8718, V2^2 = 0.1282

  Important amplitudes:
      occ i      occ j       vir a       vir b          v   
    ---------------------------------------------------------
     2 (B2) A               6 (B1) A                  0.5949
     2 (B2) A               5 (B1) A                  0.2692
    ---------------------------------------------------------

  Density matrix analysis:
  ------------------------
  NOs
    Occupation of frontier NOs:
       0.9623   1.0015
    Number of electrons: 26.000000
    Number of unpaired electrons: n_u =  2.73958, n_u,nl =  2.11116
    NO participation ratio (PR_NO):  3.842785
  
  
  Mulliken Population Analysis
  Atom      Charge (e)              h+              e-           Del q
  --------------------------------------------------------------------
   1 C       -0.674606        0.029299       -0.514425       -0.485126
   2 C       -0.674606        0.029299       -0.514425       -0.485126
   3 H        0.128108       -0.001630       -0.051277       -0.052906
   4 H        0.128108       -0.001630       -0.051277       -0.052906
   5 H        0.030174        0.036153       -0.021590        0.014563
   6 H        0.030174        0.036153       -0.021590        0.014563
   7 O       -0.136444        1.406072       -0.474040        0.932032
   8 H        0.169095        0.139704       -0.024798        0.114906
  --------------------------------------------------------------------
  Sum:       -1.000000        1.673421       -1.673421        0.000000
  
  Multipole moment analysis of the density matrix
    Molecular charge:                      -1.000000
    Number of electrons:                   26.000000
      Center of electronic charge [Ang]: [  0.000000,   0.000000,   0.046085]
    Total nuclear charge:                  25.000000
      Center of nuclear charge [Ang]:    [  0.000000,   0.000000,  -0.000000]
    Dipole moment [D]:                     5.755241
      Cartesian components [D]:          [ -0.000000,  -0.000000,  -5.755241]
    RMS size of the density [Ang]:         1.983604
      Cartesian components [Ang]:        [  1.029696,   0.580125,   1.593069]
  
  Exciton analysis of the difference density matrix
    <r_h> [Ang]:                  [ -0.000000,  -0.000000,  -1.472923]
    <r_e> [Ang]:                  [ -0.000000,   0.000000,  -0.077365]
    |<r_e - r_h>| [Ang]:            1.395558
    Hole size [Ang]:                1.794638
      Cartesian components [Ang]: [  0.840238,   0.881638,   1.318121]
    Electron size [Ang]:            4.315692
      Cartesian components [Ang]: [  2.773538,   1.610899,   2.887505]

  Transition density matrix analysis:
  -----------------------------------
  
  CT numbers (Mulliken)
    omega =     0.8566
    <Phe> =    -0.0002
  
  Exciton analysis of the transition density matrix
    Trans. dipole moment [D]:             0.000000
      Cartesian components [D]:         [ -0.000000,  -0.000000,   0.000000]
    <r_h> [Ang]:                        [  0.000000,  -0.000000,  -1.745072]
    <r_e> [Ang]:                        [  0.000000,   0.000000,   0.644106]
    |<r_e - r_h>| [Ang]:                  2.389177
    Hole size [Ang]:                      1.093710
      Cartesian components [Ang]:       [  0.477501,   0.823785,   0.538119]
    Electron size [Ang]:                  5.254627
      Cartesian components [Ang]:       [  3.512220,   1.996773,   3.359808]
    RMS electron-hole separation [Ang]:   5.873296
      Cartesian components [Ang]:       [  3.544332,   2.159812,   4.155542]
    Covariance(r_h, r_e) [Ang^2]:         0.009932
    Correlation coefficient:              0.001728
    Center-of-mass size [Ang]:            2.684547
      Cartesian components [Ang]:       [  1.772364,   1.080123,   1.702601]

  Decomposition into state-averaged NTOs
    H- 0 -> L+ 0: -0.4772 ( 45.5%)
    H- 0 -> L+ 1: -0.4385 ( 38.5%)
    H- 0 -> L+ 4:  0.0812 (  1.3%)
                   omega =  85.7%
  ----------------------------------------------------------------------------


  Excited state 4 (singlet, A2)                                    [converged]
  ----------------------------------------------------------------------------
  Term symbol:  4 (1) A2                                    R^2 =  1.01528e-07

  Total energy:                                           -153.7535924341 a.u.
  Excitation energy:                                               5.872058 eV

  Osc. strength:                                                      0.000000
  Trans. dip. moment [a.u.]:           [   0.000000,    0.000000,   -0.000000]
  <i|r^2|0> [a.u.]:                    [   0.000000,   -0.000000,    0.000000]

  Dip. moment [a.u.]:                  [   0.000000,   -0.000000,   -0.876820]
  Total dipole [Debye]:                                               2.228654
  <r^2> [a.u.]:                        [  95.550894,   30.212608,  233.687569]
  Total <r^2> [a.u.]:                                               359.451071

  V1^2 = 0.9394, V2^2 = 0.0606

  Important amplitudes:
      occ i      occ j       vir a       vir b          v   
    ---------------------------------------------------------
     1 (B2) A               5 (B1) A                  0.6515
     2 (B2) A               7 (B1) A                 -0.1381
    ---------------------------------------------------------

  Density matrix analysis:
  ------------------------
  NOs
    Occupation of frontier NOs:
       0.9591   1.0181
    Number of electrons: 26.000000
    Number of unpaired electrons: n_u =  2.65551, n_u,nl =  2.08823
    NO participation ratio (PR_NO):  3.695399
  
  
  Mulliken Population Analysis
  Atom      Charge (e)              h+              e-           Del q
  --------------------------------------------------------------------
   1 C       -0.356007        0.517053       -0.683580       -0.166527
   2 C       -0.356007        0.517053       -0.683580       -0.166527
   3 H        0.243583        0.070441       -0.007872        0.062569
   4 H        0.243583        0.070441       -0.007872        0.062569
   5 H        0.102499        0.122620       -0.035731        0.086889
   6 H        0.102499        0.122620       -0.035731        0.086889
   7 O       -1.057585        0.078806       -0.067915        0.010891
   8 H        0.077434        0.029284       -0.006038        0.023246
  --------------------------------------------------------------------
  Sum:       -1.000000        1.528318       -1.528318       -0.000000
  
  Multipole moment analysis of the density matrix
    Molecular charge:                      -1.000000
    Number of electrons:                   26.000000
      Center of electronic charge [Ang]: [ -0.000000,   0.000000,   0.017846]
    Total nuclear charge:                  25.000000
      Center of nuclear charge [Ang]:    [  0.000000,   0.000000,  -0.000000]
    Dipole moment [D]:                     2.228653
      Cartesian components [D]:          [  0.000000,  -0.000000,  -2.228653]
    RMS size of the density [Ang]:         1.967508
      Cartesian components [Ang]:        [  1.014453,   0.570438,   1.586371]
  
  Exciton analysis of the difference density matrix
    <r_h> [Ang]:                  [  0.000000,  -0.000000,   0.826145]
    <r_e> [Ang]:                  [  0.000000,   0.000000,   1.873794]
    |<r_e - r_h>| [Ang]:            1.047649
    Hole size [Ang]:                1.871102
      Cartesian components [Ang]: [  1.070199,   0.904353,   1.240097]
    Electron size [Ang]:            3.749380
      Cartesian components [Ang]: [  2.874902,   1.618192,   1.781641]

  Transition density matrix analysis:
  -----------------------------------
  
  CT numbers (Mulliken)
    omega =     0.9096
    <Phe> =    -0.0014
  
  Exciton analysis of the transition density matrix
    Trans. dipole moment [D]:             0.000000
      Cartesian components [D]:         [  0.000000,   0.000000,  -0.000000]
    <r_h> [Ang]:                        [  0.000000,   0.000000,   0.938742]
    <r_e> [Ang]:                        [  0.000000,   0.000000,   2.528466]
    |<r_e - r_h>| [Ang]:                  1.589724
    Hole size [Ang]:                      1.383818
      Cartesian components [Ang]:       [  0.759874,   0.890229,   0.738266]
    Electron size [Ang]:                  4.322947
      Cartesian components [Ang]:       [  3.479374,   1.946615,   1.671082]
    RMS electron-hole separation [Ang]:   4.792400
      Cartesian components [Ang]:       [  3.557203,   2.135302,   2.398728]
    Covariance(r_h, r_e) [Ang^2]:         0.081470
    Correlation coefficient:              0.013619
    Center-of-mass size [Ang]:            2.278473
      Cartesian components [Ang]:       [  1.782779,   1.072861,   0.928498]

  Decomposition into state-averaged NTOs
    H- 1 -> L+ 1:  0.6038 ( 72.9%)
    H- 1 -> L+ 0: -0.2712 ( 14.7%)
    H- 0 -> L+ 7: -0.1058 (  2.2%)
                   omega =  91.0%
  ----------------------------------------------------------------------------


  Excited state 5 (singlet, A2)                                    [converged]
  ----------------------------------------------------------------------------
  Term symbol:  5 (1) A2                                    R^2 =  5.21775e-07

  Total energy:                                           -153.7482278569 a.u.
  Excitation energy:                                               6.018035 eV

  Osc. strength:                                                      0.000000
  Trans. dip. moment [a.u.]:           [  -0.000000,   -0.000000,    0.000000]
  <i|r^2|0> [a.u.]:                    [   0.000000,    0.000000,    0.000000]

  Dip. moment [a.u.]:                  [   0.000000,    0.000000,   -3.154239]
  Total dipole [Debye]:                                               8.017277
  <r^2> [a.u.]:                        [  88.566282,   28.057383,  209.722119]
  Total <r^2> [a.u.]:                                               326.345784

  V1^2 = 0.8711, V2^2 = 0.1289

  Important amplitudes:
      occ i      occ j       vir a       vir b          v   
    ---------------------------------------------------------
     2 (B2) A               7 (B1) A                  0.6153
     1 (B2) A               5 (B1) A                  0.1234
    ---------------------------------------------------------

  Density matrix analysis:
  ------------------------
  NOs
    Occupation of frontier NOs:
       0.9559   0.9970
    Number of electrons: 26.000000
    Number of unpaired electrons: n_u =  2.82453, n_u,nl =  2.14200
    NO participation ratio (PR_NO):  4.097951
  
  
  Mulliken Population Analysis
  Atom      Charge (e)              h+              e-           Del q
  --------------------------------------------------------------------
   1 C       -0.771377        0.048947       -0.630844       -0.581897
   2 C       -0.771377        0.048947       -0.630844       -0.581897
   3 H        0.191940        0.007387        0.003539        0.010926
   4 H        0.191940        0.007387        0.003539        0.010926
   5 H        0.114382        0.033946        0.064826        0.098772
   6 H        0.114382        0.033946        0.064826        0.098772
   7 O       -0.226696        1.337653       -0.495873        0.841780
   8 H        0.156805        0.124851       -0.022234        0.102617
  --------------------------------------------------------------------
  Sum:       -1.000000        1.643065       -1.643065        0.000000
  
  Multipole moment analysis of the density matrix
    Molecular charge:                      -1.000000
    Number of electrons:                   26.000000
      Center of electronic charge [Ang]: [ -0.000000,  -0.000000,   0.064198]
    Total nuclear charge:                  25.000000
      Center of nuclear charge [Ang]:    [  0.000000,   0.000000,  -0.000000]
    Dipole moment [D]:                     8.017274
      Cartesian components [D]:          [  0.000000,   0.000000,  -8.017274]
    RMS size of the density [Ang]:         1.873694
      Cartesian components [Ang]:        [  0.976672,   0.549716,   1.501551]
  
  Exciton analysis of the difference density matrix
    <r_h> [Ang]:                  [ -0.000000,  -0.000000,  -1.428789]
    <r_e> [Ang]:                  [ -0.000000,  -0.000000,   0.279177]
    |<r_e - r_h>| [Ang]:            1.707966
    Hole size [Ang]:                1.777205
      Cartesian components [Ang]: [  0.849741,   0.865371,   1.299050]
    Electron size [Ang]:            3.454044
      Cartesian components [Ang]: [  2.480763,   1.434046,   1.928666]

  Transition density matrix analysis:
  -----------------------------------
  
  CT numbers (Mulliken)
    omega =     0.8546
    <Phe> =     0.0000
  
  Exciton analysis of the transition density matrix
    Trans. dipole moment [D]:             0.000000
      Cartesian components [D]:         [ -0.000000,  -0.000000,   0.000000]
    <r_h> [Ang]:                        [  0.000000,  -0.000000,  -1.636300]
    <r_e> [Ang]:                        [ -0.000000,  -0.000000,   1.261653]
    |<r_e - r_h>| [Ang]:                  2.897952
    Hole size [Ang]:                      1.225900
      Cartesian components [Ang]:       [  0.491459,   0.826153,   0.760770]
    Electron size [Ang]:                  3.919138
      Cartesian components [Ang]:       [  3.104725,   1.751650,   1.628511]
    RMS electron-hole separation [Ang]:   4.983664
      Cartesian components [Ang]:       [  3.142810,   1.934469,   3.349251]
    Covariance(r_h, r_e) [Ang^2]:         0.211851
    Correlation coefficient:              0.044095
    Center-of-mass size [Ang]:            2.078833
      Cartesian components [Ang]:       [  1.571977,   0.969464,   0.954239]

  Decomposition into state-averaged NTOs
    H- 0 -> L+ 7:  0.4461 ( 39.8%)
    H- 0 -> L+ 4:  0.4407 ( 38.8%)
    H- 1 -> L+ 1:  0.1216 (  3.0%)
    H- 0 -> L+ 3: -0.1008 (  2.0%)
    H- 0 -> L+ 0:  0.0798 (  1.3%)
                   omega =  85.5%
  ----------------------------------------------------------------------------


  Excited state 6 (singlet, A2)                                    [converged]
  ----------------------------------------------------------------------------
  Term symbol:  6 (1) A2                                    R^2 =  1.63748e-06

  Total energy:                                           -153.7260428554 a.u.
  Excitation energy:                                               6.621720 eV

  Osc. strength:                                                      0.000000
  Trans. dip. moment [a.u.]:           [   0.000000,   -0.000000,    0.000000]
  <i|r^2|0> [a.u.]:                    [  -0.000000,   -0.000000,   -0.000000]

  Dip. moment [a.u.]:                  [   0.000000,   -0.000000,   -4.264238]
  Total dipole [Debye]:                                              10.838615
  <r^2> [a.u.]:                        [  77.992416,   26.954172,  221.499210]
  Total <r^2> [a.u.]:                                               326.445799

  V1^2 = 0.8693, V2^2 = 0.1307

  Important amplitudes:
      occ i      occ j       vir a       vir b          v   
    ---------------------------------------------------------
     2 (B2) A               8 (B1) A                  0.6395
     2 (B2) A               7 (B1) A                  0.1027
    ---------------------------------------------------------

  Density matrix analysis:
  ------------------------
  NOs
    Occupation of frontier NOs:
       0.9700   0.9886
    Number of electrons: 26.000000
    Number of unpaired electrons: n_u =  2.76324, n_u,nl =  2.11872
    NO participation ratio (PR_NO):  3.915493
  
  
  Mulliken Population Analysis
  Atom      Charge (e)              h+              e-           Del q
  --------------------------------------------------------------------
   1 C       -0.850612        0.044007       -0.705139       -0.661131
   2 C       -0.850612        0.044007       -0.705139       -0.661131
   3 H        0.144853        0.001722       -0.037884       -0.036161
   4 H        0.144853        0.001722       -0.037884       -0.036161
   5 H        0.229393        0.047989        0.165794        0.213783
   6 H        0.229393        0.047989        0.165794        0.213783
   7 O       -0.211009        1.376670       -0.519204        0.857467
   8 H        0.163740        0.132657       -0.023105        0.109552
  --------------------------------------------------------------------
  Sum:       -1.000000        1.696765       -1.696765       -0.000000
  
  Multipole moment analysis of the density matrix
    Molecular charge:                      -1.000000
    Number of electrons:                   26.000000
      Center of electronic charge [Ang]: [ -0.000000,   0.000000,   0.086790]
    Total nuclear charge:                  25.000000
      Center of nuclear charge [Ang]:    [  0.000000,   0.000000,  -0.000000]
    Dipole moment [D]:                     10.838612
      Cartesian components [D]:          [  0.000000,  -0.000000, -10.838612]
    RMS size of the density [Ang]:         1.873071
      Cartesian components [Ang]:        [  0.916517,   0.538800,   1.542105]
  
  Exciton analysis of the difference density matrix
    <r_h> [Ang]:                  [ -0.000000,  -0.000000,  -1.408093]
    <r_e> [Ang]:                  [  0.000000,   0.000000,   0.591999]
    |<r_e - r_h>| [Ang]:            2.000092
    Hole size [Ang]:                1.801221
      Cartesian components [Ang]: [  0.845681,   0.860372,   1.337529]
    Electron size [Ang]:            3.389124
      Cartesian components [Ang]: [  2.056771,   1.350706,   2.330546]

  Transition density matrix analysis:
  -----------------------------------
  
  CT numbers (Mulliken)
    omega =     0.8532
    <Phe> =    -0.0001
  
  Exciton analysis of the transition density matrix
    Trans. dipole moment [D]:             0.000000
      Cartesian components [D]:         [  0.000000,  -0.000000,   0.000000]
    <r_h> [Ang]:                        [  0.000000,  -0.000000,  -1.725364]
    <r_e> [Ang]:                        [  0.000000,   0.000000,   1.800802]
    |<r_e - r_h>| [Ang]:                  3.526166
    Hole size [Ang]:                      1.120069
      Cartesian components [Ang]:       [  0.478904,   0.821382,   0.592061]
    Electron size [Ang]:                  3.727828
      Cartesian components [Ang]:       [  2.573858,   1.663608,   2.122349]
    RMS electron-hole separation [Ang]:   5.252759
      Cartesian components [Ang]:       [  2.617785,   1.851393,   4.160651]
    Covariance(r_h, r_e) [Ang^2]:        -0.003186
    Correlation coefficient:             -0.000763
    Center-of-mass size [Ang]:            1.945822
      Cartesian components [Ang]:       [  1.309140,   0.929632,   1.099162]

  Decomposition into state-averaged NTOs
    H- 0 -> L+ 4: -0.4670 ( 43.6%)
    H- 0 -> L+ 7:  0.4131 ( 34.1%)
    H- 0 -> L+ 3: -0.1684 (  5.7%)
                   omega =  85.3%
  ----------------------------------------------------------------------------


  Excited state 7 (singlet, A2)                                    [converged]
  ----------------------------------------------------------------------------
  Term symbol:  7 (1) A2                                    R^2 =  2.52046e-06

  Total energy:                                           -153.7236614545 a.u.
  Excitation energy:                                               6.686521 eV

  Osc. strength:                                                      0.000000
  Trans. dip. moment [a.u.]:           [   0.000000,    0.000000,    0.000000]
  <i|r^2|0> [a.u.]:                    [   0.000000,    0.000000,    0.000000]

  Dip. moment [a.u.]:                  [   0.000000,    0.000000,   -2.722299]
  Total dipole [Debye]:                                               6.919395
  <r^2> [a.u.]:                        [  89.055140,   52.241444,  208.252209]
  Total <r^2> [a.u.]:                                               349.548792

  V1^2 = 0.8726, V2^2 = 0.1274

  Important amplitudes:
      occ i      occ j       vir a       vir b          v   
    ---------------------------------------------------------
     7 (A1) A               1 (A2) A                 -0.6376
     7 (A1) A               2 (A2) A                  0.1533
    ---------------------------------------------------------

  Density matrix analysis:
  ------------------------
  NOs
    Occupation of frontier NOs:
       0.9878   0.9900
    Number of electrons: 26.000000
    Number of unpaired electrons: n_u =  2.81154, n_u,nl =  2.13420
    NO participation ratio (PR_NO):  3.968960
  
  
  Mulliken Population Analysis
  Atom      Charge (e)              h+              e-           Del q
  --------------------------------------------------------------------
   1 C       -0.673057        0.056621       -0.540197       -0.483576
   2 C       -0.673057        0.056621       -0.540197       -0.483576
   3 H        0.146500        0.006241       -0.040755       -0.034514
   4 H        0.146500        0.006241       -0.040755       -0.034514
   5 H        0.048168        0.033744       -0.001186        0.032558
   6 H        0.048168        0.033744       -0.001186        0.032558
   7 O       -0.372466        1.196309       -0.500299        0.696010
   8 H        0.329243        0.291293       -0.016238        0.275055
  --------------------------------------------------------------------
  Sum:       -1.000000        1.680814       -1.680814       -0.000000
  
  Multipole moment analysis of the density matrix
    Molecular charge:                      -1.000000
    Number of electrons:                   26.000000
      Center of electronic charge [Ang]: [ -0.000000,  -0.000000,   0.055407]
    Total nuclear charge:                  25.000000
      Center of nuclear charge [Ang]:    [  0.000000,   0.000000,  -0.000000]
    Dipole moment [D]:                     6.919393
      Cartesian components [D]:          [  0.000000,   0.000000,  -6.919393]
    RMS size of the density [Ang]:         1.939506
      Cartesian components [Ang]:        [  0.979364,   0.750105,   1.496621]
  
  Exciton analysis of the difference density matrix
    <r_h> [Ang]:                  [ -0.000000,  -0.000000,  -1.408787]
    <r_e> [Ang]:                  [ -0.000000,  -0.000000,   0.124831]
    |<r_e - r_h>| [Ang]:            1.533618
    Hole size [Ang]:                1.799251
      Cartesian components [Ang]: [  0.843582,   0.761532,   1.394899]
    Electron size [Ang]:            3.965810
      Cartesian components [Ang]: [  2.470466,   2.426380,   1.933165]

  Transition density matrix analysis:
  -----------------------------------
  
  CT numbers (Mulliken)
    omega =     0.8543
    <Phe> =    -0.0001
  
  Exciton analysis of the transition density matrix
    Trans. dipole moment [D]:             0.000000
      Cartesian components [D]:         [  0.000000,   0.000000,   0.000000]
    <r_h> [Ang]:                        [ -0.000000,  -0.000000,  -1.688809]
    <r_e> [Ang]:                        [ -0.000000,  -0.000000,   1.028711]
    |<r_e - r_h>| [Ang]:                  2.717520
    Hole size [Ang]:                      1.170743
      Cartesian components [Ang]:       [  0.462669,   0.410050,   0.994200]
    Electron size [Ang]:                  4.736418
      Cartesian components [Ang]:       [  3.119877,   3.080573,   1.791672]
    RMS electron-hole separation [Ang]:   5.584307
      Cartesian components [Ang]:       [  3.153360,   3.107702,   3.403380]
    Covariance(r_h, r_e) [Ang^2]:         0.002363
    Correlation coefficient:              0.000426
    Center-of-mass size [Ang]:            2.439724
      Cartesian components [Ang]:       [  1.577317,   1.553893,   1.024569]

  Decomposition into state-averaged NTOs
    H- 3 -> L+ 6:  0.6509 ( 84.7%)
                   omega =  85.4%
  ----------------------------------------------------------------------------


  Excited state 8 (singlet, A2)                                    [converged]
  ----------------------------------------------------------------------------
  Term symbol:  8 (1) A2                                    R^2 =  4.26315e-06

  Total energy:                                           -153.7140430922 a.u.
  Excitation energy:                                               6.948250 eV

  Osc. strength:                                                      0.000000
  Trans. dip. moment [a.u.]:           [  -0.000000,    0.000000,    0.000000]
  <i|r^2|0> [a.u.]:                    [   0.000000,    0.000000,    0.000000]

  Dip. moment [a.u.]:                  [  -0.000000,   -0.000000,   -1.878816]
  Total dipole [Debye]:                                               4.775475
  <r^2> [a.u.]:                        [  60.700777,   39.092866,  210.252648]
  Total <r^2> [a.u.]:                                               310.046290

  V1^2 = 0.8795, V2^2 = 0.1205

  Important amplitudes:
      occ i      occ j       vir a       vir b          v   
    ---------------------------------------------------------
     4 (B1) A               4 (B2) A                 -0.6383
     4 (B1) A               5 (B2) A                  0.1729
    ---------------------------------------------------------

  Density matrix analysis:
  ------------------------
  NOs
    Occupation of frontier NOs:
       0.9662   0.9950
    Number of electrons: 26.000000
    Number of unpaired electrons: n_u =  2.73694, n_u,nl =  2.10839
    NO participation ratio (PR_NO):  3.835775
  
  
  Mulliken Population Analysis
  Atom      Charge (e)              h+              e-           Del q
  --------------------------------------------------------------------
   1 C       -0.565149        0.063347       -0.439015       -0.375669
   2 C       -0.565149        0.063347       -0.439015       -0.375669
   3 H        0.121455       -0.002632       -0.056927       -0.059559
   4 H        0.121455       -0.002632       -0.056927       -0.059559
   5 H        0.029214        0.016001       -0.002397        0.013604
   6 H        0.029214        0.016001       -0.002397        0.013604
   7 O       -0.331260        1.344965       -0.607749        0.737216
   8 H        0.160220        0.128283       -0.022251        0.106031
  --------------------------------------------------------------------
  Sum:       -1.000000        1.626678       -1.626678        0.000000
  
  Multipole moment analysis of the density matrix
    Molecular charge:                      -1.000000
    Number of electrons:                   26.000000
      Center of electronic charge [Ang]: [  0.000000,   0.000000,   0.038239]
    Total nuclear charge:                  25.000000
      Center of nuclear charge [Ang]:    [  0.000000,   0.000000,  -0.000000]
    Dipole moment [D]:                     4.775474
      Cartesian components [D]:          [ -0.000000,  -0.000000,  -4.775474]
    RMS size of the density [Ang]:         1.826975
      Cartesian components [Ang]:        [  0.808559,   0.648878,   1.504336]
  
  Exciton analysis of the difference density matrix
    <r_h> [Ang]:                  [ -0.000000,  -0.000000,  -1.470827]
    <r_e> [Ang]:                  [ -0.000000,   0.000000,  -0.160565]
    |<r_e - r_h>| [Ang]:            1.310262
    Hole size [Ang]:                1.699637
      Cartesian components [Ang]: [  0.896970,   0.745099,   1.236543]
    Electron size [Ang]:            3.016199
      Cartesian components [Ang]: [  1.222467,   1.943115,   1.956357]

  Transition density matrix analysis:
  -----------------------------------
  
  CT numbers (Mulliken)
    omega =     0.8614
    <Phe> =    -0.0008
  
  Exciton analysis of the transition density matrix
    Trans. dipole moment [D]:             0.000000
      Cartesian components [D]:         [ -0.000000,   0.000000,   0.000000]
    <r_h> [Ang]:                        [ -0.000000,  -0.000000,  -1.712401]
    <r_e> [Ang]:                        [ -0.000000,   0.000000,   0.496732]
    |<r_e - r_h>| [Ang]:                  2.209133
    Hole size [Ang]:                      1.151522
      Cartesian components [Ang]:       [  0.821954,   0.468591,   0.656366]
    Electron size [Ang]:                  3.467687
      Cartesian components [Ang]:       [  1.412434,   2.408173,   2.056839]
    RMS electron-hole separation [Ang]:   4.263617
      Cartesian components [Ang]:       [  1.631096,   2.452993,   3.082334]
    Covariance(r_h, r_e) [Ang^2]:         0.026346
    Correlation coefficient:              0.006598
    Center-of-mass size [Ang]:            1.830543
      Cartesian components [Ang]:       [  0.818639,   1.226843,   1.084238]

  Decomposition into state-averaged NTOs
    H- 2 -> L+ 2:  0.5836 ( 68.1%)
    H- 2 -> L+ 5:  0.2986 ( 17.8%)
                   omega =  86.1%
  ----------------------------------------------------------------------------


  Excited state 9 (singlet, A2)                                    [converged]
  ----------------------------------------------------------------------------
  Term symbol:  9 (1) A2                                    R^2 =  3.36760e-06

  Total energy:                                           -153.7058715514 a.u.
  Excitation energy:                                               7.170609 eV

  Osc. strength:                                                      0.000000
  Trans. dip. moment [a.u.]:           [  -0.000000,   -0.000000,   -0.000000]
  <i|r^2|0> [a.u.]:                    [   0.000000,    0.000000,   -0.000000]

  Dip. moment [a.u.]:                  [  -0.000000,    0.000000,   -1.405855]
  Total dipole [Debye]:                                               3.573327
  <r^2> [a.u.]:                        [  77.134746,   30.522418,  207.283224]
  Total <r^2> [a.u.]:                                               314.940388

  V1^2 = 0.8822, V2^2 = 0.1178

  Important amplitudes:
      occ i      occ j       vir a       vir b          v   
    ---------------------------------------------------------
     2 (B2) A               9 (B1) A                 -0.6290
     2 (B2) A               7 (B1) A                  0.1217
    ---------------------------------------------------------

  Density matrix analysis:
  ------------------------
  NOs
    Occupation of frontier NOs:
       0.9645   0.9938
    Number of electrons: 26.000000
    Number of unpaired electrons: n_u =  2.79812, n_u,nl =  2.13000
    NO participation ratio (PR_NO):  4.008701
  
  
  Mulliken Population Analysis
  Atom      Charge (e)              h+              e-           Del q
  --------------------------------------------------------------------
   1 C       -0.960873        0.018775       -0.790167       -0.771393
   2 C       -0.960873        0.018775       -0.790167       -0.771393
   3 H        0.358785        0.011628        0.166143        0.177771
   4 H        0.358785        0.011628        0.166143        0.177771
   5 H        0.050051        0.020525        0.013916        0.034441
   6 H        0.050051        0.020525        0.013916        0.034441
   7 O       -0.051525        1.356824       -0.339872        1.016951
   8 H        0.155598        0.122842       -0.021432        0.101410
  --------------------------------------------------------------------
  Sum:       -1.000000        1.581520       -1.581520       -0.000000
  
  Multipole moment analysis of the density matrix
    Molecular charge:                      -1.000000
    Number of electrons:                   26.000000
      Center of electronic charge [Ang]: [  0.000000,  -0.000000,   0.028613]
    Total nuclear charge:                  25.000000
      Center of nuclear charge [Ang]:    [  0.000000,   0.000000,  -0.000000]
    Dipole moment [D]:                     3.573326
      Cartesian components [D]:          [ -0.000000,   0.000000,  -3.573326]
    RMS size of the density [Ang]:         1.841519
      Cartesian components [Ang]:        [  0.911464,   0.573355,   1.493884]
  
  Exciton analysis of the difference density matrix
    <r_h> [Ang]:                  [ -0.000000,  -0.000000,  -1.526396]
    <r_e> [Ang]:                  [  0.000000,  -0.000000,  -0.336975]
    |<r_e - r_h>| [Ang]:            1.189421
    Hole size [Ang]:                1.711559
      Cartesian components [Ang]: [  0.829457,   0.872689,   1.216490]
    Electron size [Ang]:            3.193699
      Cartesian components [Ang]: [  2.075431,   1.598924,   1.826401]

  Transition density matrix analysis:
  -----------------------------------
  
  CT numbers (Mulliken)
    omega =     0.8654
    <Phe> =     0.0011
  
  Exciton analysis of the transition density matrix
    Trans. dipole moment [D]:             0.000000
      Cartesian components [D]:         [ -0.000000,  -0.000000,  -0.000000]
    <r_h> [Ang]:                        [  0.000000,  -0.000000,  -1.669458]
    <r_e> [Ang]:                        [  0.000000,  -0.000000,   0.251296]
    |<r_e - r_h>| [Ang]:                  1.920755
    Hole size [Ang]:                      1.186136
      Cartesian components [Ang]:       [  0.488179,   0.820790,   0.703493]
    Electron size [Ang]:                  3.681967
      Cartesian components [Ang]:       [  2.522872,   1.939991,   1.851602]
    RMS electron-hole separation [Ang]:   4.325990
      Cartesian components [Ang]:       [  2.568992,   2.105561,   2.771476]
    Covariance(r_h, r_e) [Ang^2]:        -0.030546
    Correlation coefficient:             -0.006994
    Center-of-mass size [Ang]:            1.930201
      Cartesian components [Ang]:       [  1.285173,   1.053700,   0.981693]

  Decomposition into state-averaged NTOs
    H- 0 -> L+ 3:  0.6179 ( 76.4%)
    H- 0 -> L+ 7:  0.1833 (  6.7%)
    H- 1 -> L+ 0: -0.0971 (  1.9%)
                   omega =  86.5%
  ----------------------------------------------------------------------------


  Excited state 10 (singlet, A2)                                    [converged]
  ----------------------------------------------------------------------------
  Term symbol:  10 (1) A2                                   R^2 =  5.27259e-07

  Total energy:                                           -153.7042830136 a.u.
  Excitation energy:                                               7.213835 eV

  Osc. strength:                                                      0.000000
  Trans. dip. moment [a.u.]:           [   0.000000,   -0.000000,   -0.000000]
  <i|r^2|0> [a.u.]:                    [   0.000000,    0.000000,    0.000000]

  Dip. moment [a.u.]:                  [   0.000000,   -0.000000,    3.963788]
  Total dipole [Debye]:                                              10.074947
  <r^2> [a.u.]:                        [  97.117240,   30.565699,  229.291096]
  Total <r^2> [a.u.]:                                               356.974034

  V1^2 = 0.9399, V2^2 = 0.0601

  Important amplitudes:
      occ i      occ j       vir a       vir b          v   
    ---------------------------------------------------------
     1 (B2) A               6 (B1) A                 -0.6587
     2 (B2) A               9 (B1) A                  0.0926
    ---------------------------------------------------------

  Density matrix analysis:
  ------------------------
  NOs
    Occupation of frontier NOs:
       0.9724   1.0079
    Number of electrons: 26.000000
    Number of unpaired electrons: n_u =  2.64783, n_u,nl =  2.07948
    NO participation ratio (PR_NO):  3.593538
  
  
  Mulliken Population Analysis
  Atom      Charge (e)              h+              e-           Del q
  --------------------------------------------------------------------
   1 C       -0.397099        0.522509       -0.730127       -0.207619
   2 C       -0.397099        0.522509       -0.730127       -0.207619
   3 H        0.232622        0.093973       -0.042365        0.051608
   4 H        0.232622        0.093973       -0.042365        0.051608
   5 H        0.112827        0.106148       -0.008931        0.097216
   6 H        0.112827        0.106148       -0.008931        0.097216
   7 O       -0.975888        0.085280        0.007308        0.092588
   8 H        0.079188        0.031890       -0.006891        0.025000
  --------------------------------------------------------------------
  Sum:       -1.000000        1.562429       -1.562429       -0.000000
  
  Multipole moment analysis of the density matrix
    Molecular charge:                      -1.000000
    Number of electrons:                   26.000000
      Center of electronic charge [Ang]: [ -0.000000,   0.000000,  -0.080675]
    Total nuclear charge:                  25.000000
      Center of nuclear charge [Ang]:    [  0.000000,   0.000000,  -0.000000]
    Dipole moment [D]:                     10.074944
      Cartesian components [D]:          [  0.000000,  -0.000000,  10.074944]
    RMS size of the density [Ang]:         1.959137
      Cartesian components [Ang]:        [  1.022734,   0.573762,   1.569405]
  
  Exciton analysis of the difference density matrix
    <r_h> [Ang]:                  [  0.000000,  -0.000000,   0.783384]
    <r_e> [Ang]:                  [ -0.000000,   0.000000,   0.168701]
    |<r_e - r_h>| [Ang]:            0.614683
    Hole size [Ang]:                1.872026
      Cartesian components [Ang]: [  1.072270,   0.900104,   1.242792]
    Electron size [Ang]:            4.091326
      Cartesian components [Ang]: [  2.897377,   1.623222,   2.389416]

  Transition density matrix analysis:
  -----------------------------------
  
  CT numbers (Mulliken)
    omega =     0.9099
    <Phe> =    -0.0003
  
  Exciton analysis of the transition density matrix
    Trans. dipole moment [D]:             0.000000
      Cartesian components [D]:         [  0.000000,  -0.000000,  -0.000000]
    <r_h> [Ang]:                        [  0.000000,   0.000000,   0.961947]
    <r_e> [Ang]:                        [ -0.000000,   0.000000,  -0.089178]
    |<r_e - r_h>| [Ang]:                  1.051125
    Hole size [Ang]:                      1.362455
      Cartesian components [Ang]:       [  0.762195,   0.891779,   0.692874]
    Electron size [Ang]:                  4.934511
      Cartesian components [Ang]:       [  3.546726,   1.974560,   2.805575]
    RMS electron-hole separation [Ang]:   5.228360
      Cartesian components [Ang]:       [  3.625203,   2.165335,   3.083015]
    Covariance(r_h, r_e) [Ang^2]:        -0.012602
    Correlation coefficient:             -0.001874
    Center-of-mass size [Ang]:            2.558343
      Cartesian components [Ang]:       [  1.815097,   1.083933,   1.440706]

  Decomposition into state-averaged NTOs
    H- 1 -> L+ 0: -0.6072 ( 73.7%)
    H- 1 -> L+ 1: -0.2728 ( 14.9%)
    H- 0 -> L+ 3: -0.0932 (  1.7%)
                   omega =  91.0%
  ----------------------------------------------------------------------------


--------------------------------------------------------------------------------
  Time of ADC calculation:  CPU 174.16 s  wall 47.65 s
================================================================================
 
 --------------------------------------------------------------
             Orbital Energies (a.u.) and Symmetries
 --------------------------------------------------------------
 
 Alpha MOs, Restricted
 -- Occupied --                  
-20.213 -11.049 -11.047  -0.930  -0.854  -0.598  -0.473  -0.384
  1 A1    2 A1    1 B1    3 A1    4 A1    2 B1    5 A1    6 A1                 
 -0.328  -0.271  -0.194  -0.130  -0.129
  3 B1    7 A1    1 B2    4 B1    2 B2                                         
 -- Virtual --                   
  0.148   0.155   0.168   0.171   0.175   0.186   0.258   0.300
  5 B1    8 A1    3 B2    9 A1    1 A2    6 B1   10 A1    2 A2                 
  0.323   0.327   0.337   0.344   0.375   0.386   0.391   0.452
  7 B1   11 A1    8 B1   12 A1    4 B2    9 B1   13 A1    5 B2                 
  0.463   0.480   0.515   0.523   0.550   0.577   0.682   0.684
  3 A2   10 B1   14 A1   15 A1   11 B1   16 A1   17 A1   12 B1                 
  0.718   0.907   1.001   1.058   1.081   1.098   1.113   1.153
 13 B1   18 A1   19 A1   20 A1   21 A1    6 B2   14 B1    4 A2                 
  1.183   1.205   1.218   1.240   1.291   1.324   1.334   1.339
 15 B1    7 B2   22 A1   16 B1    5 A2   23 A1   17 B1   24 A1                 
  1.370   1.468   1.483   1.503   1.564   1.645   1.703   1.719
  8 B2    9 B2    6 A2   18 B1   19 B1   25 A1   20 B1   10 B2                 
  1.860   1.927   1.991   2.045   2.127   2.132   2.132   2.210
 26 A1   21 B1   27 A1    7 A2   11 B2   28 A1   22 B1   29 A1                 
  2.212   2.306   2.360   2.393   2.437   2.510   2.561   2.604
 12 B2   30 A1    8 A2   13 B2   23 B1   24 B1   31 A1    9 A2                 
  2.759   2.764   2.846   3.010   3.036   3.097   3.453   3.562
 32 A1   25 B1   26 B1   33 A1   34 A1   35 A1   27 B1   28 B1                 
  3.922   3.945   3.970   4.089   4.541
 14 B2   10 A2   36 A1   29 B1   37 A1                                         
 
 Beta MOs, Restricted
 -- Occupied --                  
-20.213 -11.049 -11.047  -0.930  -0.854  -0.598  -0.473  -0.384
  1 A1    2 A1    1 B1    3 A1    4 A1    2 B1    5 A1    6 A1                 
 -0.328  -0.271  -0.194  -0.130  -0.129
  3 B1    7 A1    1 B2    4 B1    2 B2                                         
 -- Virtual --                   
  0.148   0.155   0.168   0.171   0.175   0.186   0.258   0.300
  5 B1    8 A1    3 B2    9 A1    1 A2    6 B1   10 A1    2 A2                 
  0.323   0.327   0.337   0.344   0.375   0.386   0.391   0.452
  7 B1   11 A1    8 B1   12 A1    4 B2    9 B1   13 A1    5 B2                 
  0.463   0.480   0.515   0.523   0.550   0.577   0.682   0.684
  3 A2   10 B1   14 A1   15 A1   11 B1   16 A1   17 A1   12 B1                 
  0.718   0.907   1.001   1.058   1.081   1.098   1.113   1.153
 13 B1   18 A1   19 A1   20 A1   21 A1    6 B2   14 B1    4 A2                 
  1.183   1.205   1.218   1.240   1.291   1.324   1.334   1.339
 15 B1    7 B2   22 A1   16 B1    5 A2   23 A1   17 B1   24 A1                 
  1.370   1.468   1.483   1.503   1.564   1.645   1.703   1.719
  8 B2    9 B2    6 A2   18 B1   19 B1   25 A1   20 B1   10 B2                 
  1.860   1.927   1.991   2.045   2.127   2.132   2.132   2.210
 26 A1   21 B1   27 A1    7 A2   11 B2   28 A1   22 B1   29 A1                 
  2.212   2.306   2.360   2.393   2.437   2.510   2.561   2.604
 12 B2   30 A1    8 A2   13 B2   23 B1   24 B1   31 A1    9 A2                 
  2.759   2.764   2.846   3.010   3.036   3.097   3.453   3.562
 32 A1   25 B1   26 B1   33 A1   34 A1   35 A1   27 B1   28 B1                 
  3.922   3.945   3.970   4.089   4.541
 14 B2   10 A2   36 A1   29 B1   37 A1                                         
 --------------------------------------------------------------
 
          Ground-State Mulliken Net Atomic Charges

     Atom                 Charge (a.u.)
  ----------------------------------------
      1 C                    -0.186857
      2 C                    -0.186857
      3 H                     0.176462
      4 H                     0.176462
      5 H                     0.009641
      6 H                     0.009641
      7 O                    -1.069716
      8 H                     0.071222
  ----------------------------------------
  Sum of atomic charges =    -1.000000

 -----------------------------------------------------------------
                    Cartesian Multipole Moments
 -----------------------------------------------------------------
    Charge (ESU x 10^10)
                -4.8032
    Dipole Moment (Debye)
         X       0.0000      Y       0.0000      Z       5.2869
       Tot       5.2869
    Quadrupole Moments (Debye-Ang)
        XX     -23.6655     XY       0.0000     YY     -26.4915
        XZ       0.0000     YZ      -0.0000     ZZ     -32.8797
    Octopole Moments (Debye-Ang^2)
       XXX      -0.0000    XXY       0.0000    XYY       0.0000
       YYY       0.0000    XXZ       1.0673    XYZ       0.0000
       YYZ      -0.0602    XZZ       0.0000    YZZ      -0.0000
       ZZZ       6.3809
    Hexadecapole Moments (Debye-Ang^3)
      XXXX     -87.8742   XXXY       0.0000   XXYY     -21.7151
      XYYY       0.0000   YYYY     -39.6795   XXXZ      -0.0000
      XXYZ      -0.0000   XYYZ       0.0000   YYYZ      -0.0000
      XXZZ     -70.5492   XYZZ       0.0000   YYZZ     -65.2891
      XZZZ       0.0000   YZZZ       0.0000   ZZZZ    -292.5999
 -----------------------------------------------------------------
 Total job time:  156.28s(wall), 222.94s(cpu) 
 Wed Mar  2 21:33:27 2022

        *************************************************************
        *                                                           *
        *  Thank you very much for using Q-Chem.  Have a nice day.  *
        *                                                           *
        *************************************************************


