/src/tsommerfeld/qchem/exe/qcprog.exe .input0.636364.27233.qcin.1 /src/jdavis/qchem.scratch/qchem27233/

                  Welcome to Q-Chem
     A Quantum Leap Into The Future Of Chemistry


 Q-Chem 5.4 (devel), Q-Chem, Inc., Pleasanton, CA (2021)

 E. Epifanovsky,  A. T. B. Gilbert,  Xintian Feng,  Joonho Lee,  Yuezhi Mao,  
 N. Mardirossian,  P. Pokhilko,  A. White,  M. Wormit,  M. P. Coons,  
 A. L. Dempwolff,  Zhengting Gan,  D. Hait,  P. R. Horn,  L. D. Jacobson,  
 I. Kaliman,  J. Kussmann,  A. W. Lange,  Ka Un Lao,  D. S. Levine,  Jie Liu,  
 S. C. McKenzie,  A. F. Morrison,  K. Nanda,  F. Plasser,  D. R. Rehn,  
 M. L. Vidal,  Zhi-Qiang You,  Ying Zhu,  B. Alam,  B. Albrecht,  
 A. Aldossary,  E. Alguire,  J. H. Andersen,  D. Barton,  K. Begam,  A. Behn,  
 Y. A. Bernard,  E. J. Berquist,  H. Burton,  A. Carreras,  K. Carter-Fenk,  
 R. Chakraborty,  A. D. Chien,  K. D. Closser,  V. Cofer-Shabica,  
 S. Dasgupta,  Jia Deng,  M. de Wergifosse,  M. Diedenhofen,  Hainam Do,  
 S. Ehlert,  Po-Tung Fang,  S. Fatehi,  Qingguo Feng,  T. Friedhoff,  
 J. Gayvert,  Qinghui Ge,  G. Gidofalvi,  M. Goldey,  J. Gomes,  
 C. Gonzalez-Espinoza,  S. Gulania,  A. Gunina,  M. W. D. Hanson-Heine,  
 P. H. P. Harbach,  A. W. Hauser,  M. F. Herbst,  M. Hernandez Vera,  
 M. Hodecker,  Z. C. Holden,  S. Houck,  Xunkun Huang,  Kerwin Hui,  
 B. C. Huynh,  M. Ivanov,  Hyunjun Ji,  Hanjie Jiang,  B. Kaduk,  S. Kaehler,  
 K. Khistyaev,  Jaehoon Kim,  P. Klunzinger,  Z. Koczor-Benda,  
 Joong Hoon Koh,  D. Kosenkov,  L. Koulias,  T. Kowalczyk,  C. M. Krauter,  
 K. Kue,  A. Kunitsa,  T. Kus,  A. Landau,  K. V. Lawler,  D. Lefrancois,  
 S. Lehtola,  Rain Li,  Yi-Pei Li,  Jiashu Liang,  M. Liebenthal,  
 Hung-Hsuan Lin,  You-Sheng Lin,  Fenglai Liu,  Kuan-Yu Liu,  
 M. Loipersberger,  A. Luenser,  A. Manjanath,  P. Manohar,  E. Mansoor,  
 S. F. Manzer,  Shan-Ping Mao,  A. V. Marenich,  T. Markovich,  S. Mason,  
 S. A. Maurer,  P. F. McLaughlin,  M. F. S. J. Menger,  J.-M. Mewes,  
 S. A. Mewes,  P. Morgante,  J. W. Mullinax,  K. J. Oosterbaan,  G. Paran,  
 Alexander C. Paul,  Suranjan K. Paul,  F. Pavosevic,  Zheng Pei,  S. Prager,  
 E. I. Proynov,  E. Ramos,  B. Rana,  A. E. Rask,  A. Rettig,  R. M. Richard,  
 F. Rob,  E. Rossomme,  T. Scheele,  M. Scheurer,  M. Schneider,  
 N. Sergueev,  S. M. Sharada,  W. Skomorowski,  D. W. Small,  C. J. Stein,  
 Yu-Chuan Su,  E. J. Sundstrom,  Zhen Tao,  J. Thirman,  T. Tsuchimochi,  
 N. M. Tubman,  S. P. Veccham,  O. Vydrov,  J. Wenzel,  J. Witte,  A. Yamada,  
 Kun Yao,  S. Yeganeh,  S. R. Yost,  A. Zech,  Igor Ying Zhang,  Xing Zhang,  
 Yu Zhang,  D. Zuev,  A. Aspuru-Guzik,  A. T. Bell,  N. A. Besley,  
 K. B. Bravaya,  B. R. Brooks,  D. Casanova,  Jeng-Da Chai,  S. Coriani,  
 C. J. Cramer,  A. E. DePrince, III,  R. A. DiStasio Jr.,  A. Dreuw,  
 B. D. Dunietz,  T. R. Furlani,  W. A. Goddard III,  S. Grimme,  
 S. Hammes-Schiffer,  T. Head-Gordon,  W. J. Hehre,  Chao-Ping Hsu,  
 T.-C. Jagau,  Yousung Jung,  A. Klamt,  Jing Kong,  D. S. Lambrecht,  
 WanZhen Liang,  N. J. Mayhall,  C. W. McCurdy,  J. B. Neaton,  
 C. Ochsenfeld,  J. A. Parkhill,  R. Peverati,  V. A. Rassolov,  Yihan Shao,  
 L. V. Slipchenko,  T. Stauch,  R. P. Steele,  J. E. Subotnik,  
 A. J. W. Thom,  A. Tkatchenko,  D. G. Truhlar,  T. Van Voorhis,  
 T. A. Wesolowski,  K. B. Whaley,  H. L. Woodcock III,  P. M. Zimmerman,  
 S. Faraji,  P. M. W. Gill,  M. Head-Gordon,  J. M. Herbert,  A. I. Krylov

 Additional authors for Version 5.4.1: 
 S. Kotaru,  Shaozhi Li,  Xiangyuan Li,  F. Matz,  A. Molle,  Haisheng Ren,  
 Yingli Su,  Hung-Yi Tsai,  C. Utku,  Fang Wang

 Contributors to earlier versions of Q-Chem not listed above: 
 R. D. Adamson,  B. Austin,  R. Baer,  J. Baker,  G. J. O. Beran,  
 K. Brandhorst,  S. T. Brown,  E. F. C. Byrd,  A. K. Chakraborty,  
 G. K. L. Chan,  Chun-Min Chang,  Yunqing Chen,  C.-L. Cheng,  
 Siu Hung Chien,  D. M. Chipman,  D. L. Crittenden,  H. Dachsel,  
 R. J. Doerksen,  A. D. Dutoi,  R. G. Edgar,  J. Fosso-Tande,  
 L. Fusti-Molnar,  D. Ghosh,  A. Ghysels,  A. Golubeva-Zadorozhnaya,  
 J. Gonthier,  M. S. Gordon,  S. R. Gwaltney,  G. Hawkins,  J. E. Herr,  
 A. Heyden,  S. Hirata,  E. G. Hohenstein,  G. Kedziora,  F. J. Keil,  
 C. Kelley,  Jihan Kim,  R. A. King,  R. Z. Khaliullin,  P. P. Korambath,  
 W. Kurlancheek,  A. Laurent,  A. M. Lee,  M. S. Lee,  S. V. Levchenko,  
 Ching Yeh Lin,  D. Liotard,  E. Livshits,  R. C. Lochan,  I. Lotan,  
 L. A. Martinez-Martinez,  P. E. Maslen,  N. Nair,  D. P. O'Neill,  
 D. Neuhauser,  E. Neuscamman,  C. M. Oana,  R. Olivares-Amaya,  R. Olson,  
 T. M. Perrine,  B. Peters,  P. A. Pieniazek,  A. Prociuk,  Y. M. Rhee,  
 J. Ritchie,  M. A. Rohrdanz,  E. Rosta,  N. J. Russ,  H. F. Schaefer III,  
 M. W. Schmidt,  N. E. Schultz,  S. Sharma,  N. Shenvi,  C. D. Sherrill,  
 A. C. Simmonett,  A. Sodt,  T. Stein,  D. Stuck,  K. S. Thanthiriwatte,  
 V. Vanovschi,  L. Vogt,  Tao Wang,  A. Warshel,  M. A. Watson,  
 C. F. Williams,  Q. Wu,  X. Xu,  Jun Yang,  W. Zhang,  Yan Zhao

 Please cite Q-Chem as follows:
 Y. Shao et al., Mol. Phys. 113, 184-215 (2015)
 DOI: 10.1080/00268976.2014.952696

 Q-Chem 5.4.1 for Intel X86 EM64T Linux

 Parts of Q-Chem use Armadillo 9.900.5 (Nocturnal Misbehaviour).
 http://arma.sourceforge.net/

 Q-Chem begins on Wed Mar  2 20:58:37 2022  

 Host: node01
0

     Scratch files written to /src/jdavis/qchem.scratch/qchem27233//
 Processing $rem in /src/tsommerfeld/qchem/config/preferences:
 Processing $rem in /home/jdavis/.qchemrc:

 Checking the input file for inconsistencies... 	...done.

--------------------------------------------------------------
User input:
--------------------------------------------------------------
$molecule
-1 1
C        -0.6645000000    0.0000000000    1.1619088658
C         0.6645000000    0.0000000000    1.1619088658
H        -1.1590800000    0.0000000000    0.1995598658
H         1.1590800000    0.0000000000    0.1995598658
H        -1.1590800000    0.0000000000    2.1242568658
H         1.1590800000    0.0000000000    2.1242568658
O         0.0000000000    0.0000000000   -1.5841414040
H         0.0000000000    0.0000000000   -2.5471307683
$end
$rem
   METHOD adc(2)
   BASIS gen
   PURECART 11
   EE_STATES [0,10,0,0]
   scf_convergence 8
   ADC_DAVIDSON_MAXITER 120
   ADC_DAVIDSON_MAXSUBSPACE 200
   adc_nguess_singles 100
   THRESH 14
   S2THRESH 14
   adc_davidson_conv 5
   adc_davidson_thresh 14
   THREADS 10
   MEM_TOTAL 95000
   STATE_ANALYSIS TRUE
$end
$basis
C 1
S   9   1.00
      6.665000D+03           6.920000D-04
      1.000000D+03           5.329000D-03
      2.280000D+02           2.707700D-02
      6.471000D+01           1.017180D-01
      2.106000D+01           2.747400D-01
      7.495000D+00           4.485640D-01
      2.797000D+00           2.850740D-01
      5.215000D-01           1.520400D-02
      1.596000D-01          -3.191000D-03
S   9   1.00
      6.665000D+03          -1.460000D-04
      1.000000D+03          -1.154000D-03
      2.280000D+02          -5.725000D-03
      6.471000D+01          -2.331200D-02
      2.106000D+01          -6.395500D-02
      7.495000D+00          -1.499810D-01
      2.797000D+00          -1.272620D-01
      5.215000D-01           5.445290D-01
      1.596000D-01           5.804960D-01
S   1   1.00
      1.596000D-01           1.000000D+00
S   1   1.00
      0.0469000              1.0000000
P   4   1.00
      9.439000D+00           3.810900D-02
      2.002000D+00           2.094800D-01
      5.456000D-01           5.085570D-01
      1.517000D-01           4.688420D-01
P   1   1.00
      1.517000D-01           1.000000D+00
P   1   1.00
      0.0275818      1.0000000
P   1   1.00
      0.0137909      1.0000000
D   1   1.00
      5.500000D-01           1.0000000
****
C 2
S   9   1.00
      6.665000D+03           6.920000D-04
      1.000000D+03           5.329000D-03
      2.280000D+02           2.707700D-02
      6.471000D+01           1.017180D-01
      2.106000D+01           2.747400D-01
      7.495000D+00           4.485640D-01
      2.797000D+00           2.850740D-01
      5.215000D-01           1.520400D-02
      1.596000D-01          -3.191000D-03
S   9   1.00
      6.665000D+03          -1.460000D-04
      1.000000D+03          -1.154000D-03
      2.280000D+02          -5.725000D-03
      6.471000D+01          -2.331200D-02
      2.106000D+01          -6.395500D-02
      7.495000D+00          -1.499810D-01
      2.797000D+00          -1.272620D-01
      5.215000D-01           5.445290D-01
      1.596000D-01           5.804960D-01
S   1   1.00
      1.596000D-01           1.000000D+00
S   1   1.00
      0.0469000              1.0000000
P   4   1.00
      9.439000D+00           3.810900D-02
      2.002000D+00           2.094800D-01
      5.456000D-01           5.085570D-01
      1.517000D-01           4.688420D-01
P   1   1.00
      1.517000D-01           1.000000D+00
P   1   1.00
      0.0275818      1.0000000
P   1   1.00
      0.0137909      1.0000000
D   1   1.00
      5.500000D-01           1.0000000
****
H 3
cc-pVDZ
****
H 4
cc-pVDZ
****
H 5
cc-pVDZ
****
H 6
cc-pVDZ
****
O 7
aug-cc-pVDZ
****
H 8
cc-pVDZ
****
$end
--------------------------------------------------------------
 ----------------------------------------------------------------
             Standard Nuclear Orientation (Angstroms)
    I     Atom           X                Y                Z
 ----------------------------------------------------------------
    1      C      -0.6645000000    -0.0000000000     1.0270977517
    2      C       0.6645000000     0.0000000000     1.0270977517
    3      H      -1.1590800000    -0.0000000000     0.0647487517
    4      H       1.1590800000     0.0000000000     0.0647487517
    5      H      -1.1590800000    -0.0000000000     1.9894457517
    6      H       1.1590800000     0.0000000000     1.9894457517
    7      O       0.0000000000    -0.0000000000    -1.7189525181
    8      H       0.0000000000    -0.0000000000    -2.6819418824
 ----------------------------------------------------------------
 Molecular Point Group                 C2v   NOp =  4
 Largest Abelian Subgroup              C2v   NOp =  4
 Nuclear Repulsion Energy =          64.38561153 hartrees
 There are       13 alpha and       13 beta electrons
 Requested basis set is non-standard
 There are 42 shells and 90 basis functions
 Total memory of 95000 MB is distributed as follows: 
   MEM_STATIC is set to 192 MB
   QALLOC/CCMAN JOB total memory use is  94808 MB
 Warning: actual memory use might exceed 95000 MB

 Total QAlloc Memory Limit  95000 MB
 Mega-Array Size       188 MB
 MEM_STATIC part       192 MB

                       Distance Matrix (Angstroms)
             C (  1)   C (  2)   H (  3)   H (  4)   H (  5)   H (  6)
   C (  2)  1.329000
   H (  3)  1.082000  2.061931
   H (  4)  2.061931  1.082000  2.318160
   H (  5)  1.082000  2.061931  1.924697  3.013026
   H (  6)  2.061931  1.082000  3.013026  1.924697  2.318160
   O (  7)  2.825306  2.825306  2.127218  2.127218  3.885316  3.885316
   H (  8)  3.768094  3.768094  2.981237  2.981237  4.813037  4.813037
             O (  7)
   H (  8)  0.962989
 
 A cutoff of  1.0D-14 yielded    903 shell pairs
 There are      4183 function pairs (      4573 Cartesian)
 Smallest overlap matrix eigenvalue = 1.45E-03

 Scale SEOQF with 1.000000e-01/1.000000e-01/1.000000e-01

 Standard Electronic Orientation quadrupole field applied
 Nucleus-field energy     =    -0.0000000051 hartrees
 ================ Generating on-the-fly SAD Guess ================
Attempting to make child job directory: /src/jdavis/qchem.scratch/qchem27233//Frg1/
Attempting to make child job directory: /src/jdavis/qchem.scratch/qchem27233//Frg2/
Attempting to make child job directory: /src/jdavis/qchem.scratch/qchem27233//Frg3/
Creating input file /src/jdavis/qchem.scratch/qchem27233/Frg1.input
using default PutDataFrgm: nothing
calling putenv with: QCSCRATCH=/src/jdavis/qchem.scratch/qchem27233/ 
Spawning Job For Fragment 0
Done Job For Fragment 0
calling putenv with: QCSCRATCH=/src/jdavis/qchem.scratch 
calling putenv with: QCTHREADS=1 
Creating input file /src/jdavis/qchem.scratch/qchem27233/Frg2.input
using default PutDataFrgm: nothing
calling putenv with: QCSCRATCH=/src/jdavis/qchem.scratch/qchem27233/ 
Spawning Job For Fragment 1
Done Job For Fragment 1
calling putenv with: QCSCRATCH=/src/jdavis/qchem.scratch 
calling putenv with: QCTHREADS=1 
Creating input file /src/jdavis/qchem.scratch/qchem27233/Frg3.input
using default PutDataFrgm: nothing
calling putenv with: QCSCRATCH=/src/jdavis/qchem.scratch/qchem27233/ 
Spawning Job For Fragment 2
Done Job For Fragment 2
calling putenv with: QCSCRATCH=/src/jdavis/qchem.scratch 
calling putenv with: QCTHREADS=1 
 Time for running child jobs:  CPU 1.81 s  wall 85.40 s
 ============= Method Specific SAD Guess Constructed =============
 Guess from on-the-fly superposition of atomic densities
 Warning: Energy on first SCF cycle will be non-variational
 A restricted Hartree-Fock SCF calculation will be
 performed using Pulay DIIS extrapolation
 SCF converges when DIIS error is below 1.0E-08
 using 10 threads for integral computing
 -------------------------------------------------------
 OpenMP Integral computing Module                
 Release: version 1.0, May 2013, Q-Chem Inc. Pittsburgh 
 -------------------------------------------------------
 ---------------------------------------
  Cycle       Energy         DIIS Error
 ---------------------------------------
    1    -153.5741503397      5.98E-02
    2    -153.2895616645      1.22E-02
    3    -153.3530583858      1.04E-02
    4    -153.4398792223      7.83E-04
    5    -153.4408523203      2.14E-04
    6    -153.4409277235      4.53E-05
    7    -153.4409329597      1.20E-05
    8    -153.4409334968      3.58E-06
    9    -153.4409335427      6.88E-07
   10    -153.4409335443      1.34E-07
   11    -153.4409335443      4.52E-08
   12    -153.4409335443      1.43E-08
   13    -153.4409335443      2.56E-09 Convergence criterion met
 ---------------------------------------
 SCF time:  CPU 15.21 s  wall 1.53 s
 SCF   energy in the final basis set = -153.44093354
 Total energy in the final basis set = -153.44093354
================================================================================
|                                                                              |
|                                 A D C  M A N                                 |
|                                                                              |
 ------------------------------------------------------------------------------ 
|                                                                              |
| Components:                                                                  |
|                                                                              |
| - libvmm - 1.3-trunk                                                         |
|   Authors:                                                                   |
|   Evgeny Epifanovsky, Ilya Kaliman                                           |
|                                                                              |
| - libtensor - 2.5-trunk                                                      |
|   Authors:                                                                   |
|   Evgeny Epifanovsky, Michael Wormit, Dmitry Zuev, Sam Manzer,               |
|   Ilya Kaliman                                                               |
|                                                                              |
| - libwfa - 1.1-trunk                                                         |
|   Authors:                                                                   |
|   Felix Plasser, Stefanie Mewes (Baeppler), Benjamin Thomitzni,              |
|   Michael Wormit, Feng Chen, Anna I. Krylov, Pavel Pokhilko                  |
|                                                                              |
| - libadc - 1.1-trunk                                                         |
|   Authors:                                                                   |
|   Michael Wormit, Adrian L. Dempwolff, Philipp H. P. Harbach,                |
|   Caroline Krauter, Dirk Rehn, Matthias Schneider, Jan Wenzel                |
|                                                                              |
| - adcman - 2.6-trunk                                                         |
|   Authors:                                                                   |
|   Michael Wormit, Adrian L. Dempwolff, Philipp H. P. Harbach,                |
|   Caroline Krauter, Daniel Lefrancois, Jan-Michael Mewes, Dirk Rehn,         |
|   Matthias Schneider, Jan Wenzel, Andreas Dreuw                              |
|                                                                              |
| Authors of earlier versions of ADCMAN:                                       |
| Andreas Dreuw, Jan Hendrik Starcke, Dirk Rehn, Michael Wormit                |
|                                                                              |
================================================================================

 
 Alpha MOs, Restricted
 -- Occupied --                  
-20.213 -11.049 -11.047  -0.930  -0.853  -0.598  -0.473  -0.384
  1 A1    2 A1    1 B1    3 A1    4 A1    2 B1    5 A1    6 A1                 
 -0.327  -0.271  -0.194  -0.129  -0.128
  3 B1    7 A1    1 B2    4 B1    2 B2                                         
 -- Virtual --                   
  0.103   0.117   0.121   0.122   0.130   0.135   0.195   0.200
  5 B1    8 A1    3 B2    1 A2    6 B1    9 A1   10 A1    7 B1                 
  0.239   0.241   0.254   0.259   0.317   0.355   0.379   0.398
  2 A2   11 A1    8 B1    4 B2   12 A1   13 A1    3 A2    9 B1                 
  0.450   0.456   0.471   0.527   0.530   0.578   0.607   0.640
  5 B2   14 A1   10 B1   15 A1   11 B1   16 A1   12 B1   17 A1                 
  0.690   0.808   0.955   0.964   1.040   1.050   1.082   1.128
 13 B1   18 A1   19 A1    6 B2    4 A2   20 A1   21 A1   14 B1                 
  1.173   1.193   1.203   1.216   1.277   1.291   1.330   1.330
 15 B1   16 B1    7 B2   22 A1   23 A1    5 A2   17 B1   24 A1                 
  1.370   1.452   1.467   1.483   1.561   1.642   1.691   1.719
  8 B2   18 B1    9 B2    6 A2   19 B1   25 A1   20 B1   10 B2                 
  1.847   1.926   1.959   2.027   2.118   2.122   2.138   2.181
 26 A1   21 B1   27 A1    7 A2   28 A1   11 B2   22 B1   29 A1                 
  2.212   2.279   2.355   2.393   2.433   2.473   2.551   2.604
 12 B2   30 A1    8 A2   13 B2   23 B1   24 B1   31 A1    9 A2                 
  2.713   2.746   2.847   3.008   3.032   3.085   3.447   3.562
 25 B1   32 A1   26 B1   33 A1   34 A1   35 A1   27 B1   28 B1                 
  3.921   3.945   3.970   4.087   4.535
 14 B2   10 A2   36 A1   29 B1   37 A1                                         
 
 Beta MOs, Restricted
 -- Occupied --                  
-20.213 -11.049 -11.047  -0.930  -0.853  -0.598  -0.473  -0.384
  1 A1    2 A1    1 B1    3 A1    4 A1    2 B1    5 A1    6 A1                 
 -0.327  -0.271  -0.194  -0.129  -0.128
  3 B1    7 A1    1 B2    4 B1    2 B2                                         
 -- Virtual --                   
  0.103   0.117   0.121   0.122   0.130   0.135   0.195   0.200
  5 B1    8 A1    3 B2    1 A2    6 B1    9 A1   10 A1    7 B1                 
  0.239   0.241   0.254   0.259   0.317   0.355   0.379   0.398
  2 A2   11 A1    8 B1    4 B2   12 A1   13 A1    3 A2    9 B1                 
  0.450   0.456   0.471   0.527   0.530   0.578   0.607   0.640
  5 B2   14 A1   10 B1   15 A1   11 B1   16 A1   12 B1   17 A1                 
  0.690   0.808   0.955   0.964   1.040   1.050   1.082   1.128
 13 B1   18 A1   19 A1    6 B2    4 A2   20 A1   21 A1   14 B1                 
  1.173   1.193   1.203   1.216   1.277   1.291   1.330   1.330
 15 B1   16 B1    7 B2   22 A1   23 A1    5 A2   17 B1   24 A1                 
  1.370   1.452   1.467   1.483   1.561   1.642   1.691   1.719
  8 B2   18 B1    9 B2    6 A2   19 B1   25 A1   20 B1   10 B2                 
  1.847   1.926   1.959   2.027   2.118   2.122   2.138   2.181
 26 A1   21 B1   27 A1    7 A2   28 A1   11 B2   22 B1   29 A1                 
  2.212   2.279   2.355   2.393   2.433   2.473   2.551   2.604
 12 B2   30 A1    8 A2   13 B2   23 B1   24 B1   31 A1    9 A2                 
  2.713   2.746   2.847   3.008   3.032   3.085   3.447   3.562
 25 B1   32 A1   26 B1   33 A1   34 A1   35 A1   27 B1   28 B1                 
  3.921   3.945   3.970   4.087   4.535
 14 B2   10 A2   36 A1   29 B1   37 A1                                         

--------------------------------------------------------------------------------
                                   HF Summary                                   
--------------------------------------------------------------------------------
  Energy:                                                 -153.4409335443 a.u.
  Dip. moment [a.u.]:                  [  -0.000000,    0.000000,    2.073375]
  Total dipole [Debye]:                                               5.269994
  <r^2> [a.u.]:                        [  55.723615,   19.719457,  208.018224]
  Total <r^2> [a.u.]:                                               283.461296
--------------------------------------------------------------------------------

--------------------------------------------------------------------------------
                                 MP(2) Summary                                  
--------------------------------------------------------------------------------
  MP energy contribution:                                   -0.5273283572 a.u.
  Total energy:                                           -153.9682619015 a.u.
  Dip. moment [a.u.]:                  [  -0.000000,    0.000000,    2.138962]
  Total dipole [Debye]:                                               5.436700
  <r^2> [a.u.]:                        [  56.720898,   20.438160,  209.272181]
  Total <r^2> [a.u.]:                                               286.431239

  Density matrix analysis:
  ------------------------
  NOs
    Occupation of frontier NOs:
       0.0446   1.9360
    Number of electrons: 26.000000
    Number of unpaired electrons: n_u =  0.71320, n_u,nl =  0.08497
    NO participation ratio (PR_NO): 22.990564
  
  
  Mulliken Population Analysis
  Atom      Charge (e)              h+              e-           Del q
  --------------------------------------------------------------------
   1 C       -0.179855        0.094943       -0.101495       -0.006551
   2 C       -0.179855        0.094943       -0.101495       -0.006551
   3 H        0.178189        0.017116       -0.009663        0.007453
   4 H        0.178189        0.017116       -0.009663        0.007453
   5 H        0.001969        0.018289       -0.013211        0.005078
   6 H        0.001969        0.018289       -0.013211        0.005078
   7 O       -1.048467        0.276469       -0.271165        0.005304
   8 H        0.047858        0.015798       -0.033063       -0.017264
  --------------------------------------------------------------------
  Sum:       -1.000000        0.552963       -0.552963       -0.000000
  
  Multipole moment analysis of the density matrix
    Molecular charge:                      -1.000000
    Number of electrons:                   26.000000
      Center of electronic charge [Ang]: [  0.000000,  -0.000000,  -0.043534]
    Total nuclear charge:                  25.000000
      Center of nuclear charge [Ang]:    [  0.000000,   0.000000,  -0.000000]
    Dipole moment [D]:                     5.436698
      Cartesian components [D]:          [ -0.000000,   0.000000,   5.436698]
    RMS size of the density [Ang]:         1.755865
      Cartesian components [Ang]:        [  0.781603,   0.469176,   1.500678]
  
  Exciton analysis of the difference density matrix
    <r_h> [Ang]:                  [  0.000000,  -0.000000,  -0.479723]
    <r_e> [Ang]:                  [  0.000000,  -0.000000,  -0.542489]
    |<r_e - r_h>| [Ang]:            0.062766
    Hole size [Ang]:                1.991563
      Cartesian components [Ang]: [  0.910117,   0.782346,   1.589322]
    Electron size [Ang]:            2.325120
      Cartesian components [Ang]: [  1.154708,   0.987941,   1.759774]
--------------------------------------------------------------------------------
  Starting Davidson for singlet states of irrep A2 ... 
--------------------------------------------------------------------------------
   It NVec Conv  Avg. Norm  Max. Norm  Conv. states           Remark
--------------------------------------------------------------------------------
       100    0  1.497e-01  5.342e-01  0.2235 n n n n n n n n Guess.
    1  110    0  1.390e-02  5.804e-02  0.0503 n n n n n n n n 
    2  120    0  2.098e-03  1.304e-02  0.0490 n n n n n n n n 
    3  130    0  3.059e-04  1.822e-03  0.0490 n n n n n n n n 
    4  140    1  8.297e-05  7.952e-04  0.0490 n y n n n n n n 
    5  150    5  3.090e-05  3.069e-04  0.0490 y y y n n y y n 
    6  160    9  4.323e-06  4.301e-05  0.0490 y y y y y y y y 
    7  170   10  5.476e-07  5.459e-06  0.0490 y y y y y y y y Converged.
--------------------------------------------------------------------------------
  Davidson Summary: 
 ------------------------------------------------------------
  State  0: excitation energy =   0.0490 a.u.   (converged)
  State  1: excitation energy =   0.0560 a.u.   (converged)
  State  2: excitation energy =   0.0622 a.u.   (converged)
  State  3: excitation energy =   0.1199 a.u.   (converged)
  State  4: excitation energy =   0.1596 a.u.   (converged)
  State  5: excitation energy =   0.1601 a.u.   (converged)
  State  6: excitation energy =   0.2012 a.u.   (converged)
  State  7: excitation energy =   0.2143 a.u.   (converged)
  State  8: excitation energy =   0.2353 a.u.   (converged)
  State  9: excitation energy =   0.2580 a.u.   (converged)
 ------------------------------------------------------------


--------------------------------------------------------------------------------
                   State-averaged natural transition orbitals
--------------------------------------------------------------------------------
--------------------------------------------------------------------------------

--------------------------------------------------------------------------------
                             Excited State Summary
--------------------------------------------------------------------------------
--------------------------------------------------------------------------------

  Excited state 1 (singlet, A2)                                    [converged]
  ----------------------------------------------------------------------------
  Term symbol:  1 (1) A2                                    R^2 =  7.78070e-09

  Total energy:                                           -153.9192886842 a.u.
  Excitation energy:                                               1.332629 eV

  Osc. strength:                                                      0.000000
  Trans. dip. moment [a.u.]:           [  -0.000000,    0.000000,   -0.000000]
  <i|r^2|0> [a.u.]:                    [  -0.000000,   -0.000000,   -0.000000]

  Dip. moment [a.u.]:                  [  -0.000000,    0.000000,   -3.241878]
  Total dipole [Debye]:                                               8.240032
  <r^2> [a.u.]:                        [ 143.107603,   46.629505,  228.105216]
  Total <r^2> [a.u.]:                                               417.842323

  V1^2 = 0.8647, V2^2 = 0.1353

  Important amplitudes:
      occ i      occ j       vir a       vir b          v   
    ---------------------------------------------------------
     2 (B2) A               5 (B1) A                 -0.5710
     2 (B2) A               6 (B1) A                  0.3004
    ---------------------------------------------------------

  Density matrix analysis:
  ------------------------
  NOs
    Occupation of frontier NOs:
       0.9609   0.9995
    Number of electrons: 26.000000
    Number of unpaired electrons: n_u =  2.74995, n_u,nl =  2.11582
    NO participation ratio (PR_NO):  3.870840
  
  
  Mulliken Population Analysis
  Atom      Charge (e)              h+              e-           Del q
  --------------------------------------------------------------------
   1 C       -0.684106        0.044162       -0.548413       -0.504251
   2 C       -0.684106        0.044162       -0.548413       -0.504251
   3 H        0.143832       -0.002359       -0.031998       -0.034357
   4 H        0.143832       -0.002359       -0.031998       -0.034357
   5 H        0.039900        0.037309        0.000622        0.037931
   6 H        0.039900        0.037309        0.000622        0.037931
   7 O       -0.164558        1.400698       -0.516789        0.883908
   8 H        0.165306        0.143299       -0.025851        0.117447
  --------------------------------------------------------------------
  Sum:       -1.000000        1.702219       -1.702219       -0.000000
  
  Multipole moment analysis of the density matrix
    Molecular charge:                      -1.000000
    Number of electrons:                   26.000000
      Center of electronic charge [Ang]: [  0.000000,  -0.000000,   0.065982]
    Total nuclear charge:                  25.000000
      Center of nuclear charge [Ang]:    [  0.000000,   0.000000,  -0.000000]
    Dipole moment [D]:                     8.240030
      Cartesian components [D]:          [ -0.000000,   0.000000,  -8.240030]
    RMS size of the density [Ang]:         2.120364
      Cartesian components [Ang]:        [  1.241497,   0.708671,   1.566019]
  
  Exciton analysis of the difference density matrix
    <r_h> [Ang]:                  [  0.000000,   0.000000,  -1.472140]
    <r_e> [Ang]:                  [  0.000000,  -0.000000,   0.200629]
    |<r_e - r_h>| [Ang]:            1.672768
    Hole size [Ang]:                1.812132
      Cartesian components [Ang]: [  0.866618,   0.898333,   1.313695]
    Electron size [Ang]:            5.198936
      Cartesian components [Ang]: [  3.868117,   2.261788,   2.636460]

  Transition density matrix analysis:
  -----------------------------------
  
  CT numbers (Mulliken)
    omega =     0.8502
    <Phe> =     0.0002
  
  Exciton analysis of the transition density matrix
    Trans. dipole moment [D]:             0.000000
      Cartesian components [D]:         [ -0.000000,   0.000000,  -0.000000]
    <r_h> [Ang]:                        [  0.000000,  -0.000000,  -1.743602]
    <r_e> [Ang]:                        [  0.000000,  -0.000000,   1.178104]
    |<r_e - r_h>| [Ang]:                  2.921706
    Hole size [Ang]:                      1.101815
      Cartesian components [Ang]:       [  0.480360,   0.828316,   0.545108]
    Electron size [Ang]:                  6.428749
      Cartesian components [Ang]:       [  4.984005,   2.879713,   2.862824]
    RMS electron-hole separation [Ang]:   7.145337
      Cartesian components [Ang]:       [  5.006911,   2.994742,   4.125314]
    Covariance(r_h, r_e) [Ang^2]:         0.011666
    Correlation coefficient:              0.001647
    Center-of-mass size [Ang]:            3.262137
      Cartesian components [Ang]:       [  2.503645,   1.499103,   1.458077]

  Decomposition into state-averaged NTOs
    H- 0 -> L+ 0:  0.4866 ( 47.4%)
    H- 0 -> L+ 1:  0.3257 ( 21.2%)
    H- 0 -> L+ 2: -0.2854 ( 16.3%)
                   omega =  85.0%
  ----------------------------------------------------------------------------


  Excited state 2 (singlet, A2)                                    [converged]
  ----------------------------------------------------------------------------
  Term symbol:  2 (1) A2                                    R^2 =  7.10254e-09

  Total energy:                                           -153.9123047146 a.u.
  Excitation energy:                                               1.522672 eV

  Osc. strength:                                                      0.000000
  Trans. dip. moment [a.u.]:           [   0.000000,   -0.000000,   -0.000000]
  <i|r^2|0> [a.u.]:                    [  -0.000000,   -0.000000,   -0.000000]

  Dip. moment [a.u.]:                  [  -0.000000,    0.000000,   -2.948151]
  Total dipole [Debye]:                                               7.493453
  <r^2> [a.u.]:                        [  79.534559,   95.116451,  223.133198]
  Total <r^2> [a.u.]:                                               397.784208

  V1^2 = 0.8667, V2^2 = 0.1333

  Important amplitudes:
      occ i      occ j       vir a       vir b          v   
    ---------------------------------------------------------
     4 (B1) A               3 (B2) A                  0.6542
     4 (B1) A               4 (B2) A                  0.0598
    ---------------------------------------------------------

  Density matrix analysis:
  ------------------------
  NOs
    Occupation of frontier NOs:
       0.9619   0.9996
    Number of electrons: 26.000000
    Number of unpaired electrons: n_u =  2.74801, n_u,nl =  2.11446
    NO participation ratio (PR_NO):  3.861582
  
  
  Mulliken Population Analysis
  Atom      Charge (e)              h+              e-           Del q
  --------------------------------------------------------------------
   1 C       -0.665240        0.052820       -0.538205       -0.485385
   2 C       -0.665240        0.052820       -0.538205       -0.485385
   3 H        0.129065       -0.008122       -0.041003       -0.049124
   4 H        0.129065       -0.008122       -0.041003       -0.049124
   5 H        0.035441        0.035782       -0.002310        0.033472
   6 H        0.035441        0.035782       -0.002310        0.033472
   7 O       -0.161400        1.397852       -0.510785        0.887067
   8 H        0.162867        0.140372       -0.025363        0.115009
  --------------------------------------------------------------------
  Sum:       -1.000000        1.699184       -1.699184        0.000000
  
  Multipole moment analysis of the density matrix
    Molecular charge:                      -1.000000
    Number of electrons:                   26.000000
      Center of electronic charge [Ang]: [  0.000000,  -0.000000,   0.060004]
    Total nuclear charge:                  25.000000
      Center of nuclear charge [Ang]:    [  0.000000,   0.000000,  -0.000000]
    Dipole moment [D]:                     7.493451
      Cartesian components [D]:          [ -0.000000,   0.000000,  -7.493451]
    RMS size of the density [Ang]:         2.068977
      Cartesian components [Ang]:        [  0.925534,   1.012144,   1.549070]
  
  Exciton analysis of the difference density matrix
    <r_h> [Ang]:                  [  0.000000,   0.000000,  -1.460310]
    <r_e> [Ang]:                  [  0.000000,  -0.000000,   0.123970]
    |<r_e - r_h>| [Ang]:            1.584281
    Hole size [Ang]:                1.813323
      Cartesian components [Ang]: [  0.942046,   0.809843,   1.320925]
    Electron size [Ang]:            4.874058
      Cartesian components [Ang]: [  2.155733,   3.600411,   2.479173]

  Transition density matrix analysis:
  -----------------------------------
  
  CT numbers (Mulliken)
    omega =     0.8519
    <Phe> =     0.0001
  
  Exciton analysis of the transition density matrix
    Trans. dipole moment [D]:             0.000000
      Cartesian components [D]:         [  0.000000,  -0.000000,  -0.000000]
    <r_h> [Ang]:                        [  0.000000,  -0.000000,  -1.725032]
    <r_e> [Ang]:                        [  0.000000,  -0.000000,   1.055571]
    |<r_e - r_h>| [Ang]:                  2.780603
    Hole size [Ang]:                      1.142769
      Cartesian components [Ang]:       [  0.826635,   0.475614,   0.629593]
    Electron size [Ang]:                  6.001600
      Cartesian components [Ang]:       [  2.716015,   4.639108,   2.668547]
    RMS electron-hole separation [Ang]:   6.711455
      Cartesian components [Ang]:       [  2.837108,   4.663393,   3.904768]
    Covariance(r_h, r_e) [Ang^2]:         0.006623
    Correlation coefficient:              0.000966
    Center-of-mass size [Ang]:            3.055256
      Cartesian components [Ang]:       [  1.420470,   2.331728,   1.371094]

  Decomposition into state-averaged NTOs
    H- 2 -> L+ 5: -0.5585 ( 62.4%)
    H- 2 -> L+ 4:  0.3367 ( 22.7%)
                   omega =  85.2%
  ----------------------------------------------------------------------------


  Excited state 3 (singlet, A2)                                    [converged]
  ----------------------------------------------------------------------------
  Term symbol:  3 (1) A2                                    R^2 =  6.44837e-09

  Total energy:                                           -153.9061087584 a.u.
  Excitation energy:                                               1.691273 eV

  Osc. strength:                                                      0.000000
  Trans. dip. moment [a.u.]:           [   0.000000,    0.000000,    0.000000]
  <i|r^2|0> [a.u.]:                    [   0.000000,    0.000000,    0.000000]

  Dip. moment [a.u.]:                  [   0.000000,    0.000000,   -2.496946]
  Total dipole [Debye]:                                               6.346605
  <r^2> [a.u.]:                        [ 126.129676,   40.708345,  266.844951]
  Total <r^2> [a.u.]:                                               433.682972

  V1^2 = 0.8653, V2^2 = 0.1347

  Important amplitudes:
      occ i      occ j       vir a       vir b          v   
    ---------------------------------------------------------
     2 (B2) A               6 (B1) A                 -0.5765
     2 (B2) A               5 (B1) A                 -0.3012
    ---------------------------------------------------------

  Density matrix analysis:
  ------------------------
  NOs
    Occupation of frontier NOs:
       0.9608   1.0006
    Number of electrons: 26.000000
    Number of unpaired electrons: n_u =  2.74721, n_u,nl =  2.11517
    NO participation ratio (PR_NO):  3.864074
  
  
  Mulliken Population Analysis
  Atom      Charge (e)              h+              e-           Del q
  --------------------------------------------------------------------
   1 C       -0.673611        0.042739       -0.536495       -0.493756
   2 C       -0.673611        0.042739       -0.536495       -0.493756
   3 H        0.140976       -0.004347       -0.032866       -0.037214
   4 H        0.140976       -0.004347       -0.032866       -0.037214
   5 H        0.033409        0.037569       -0.006130        0.031439
   6 H        0.033409        0.037569       -0.006130        0.031439
   7 O       -0.169990        1.400341       -0.521864        0.878476
   8 H        0.168443        0.147037       -0.026452        0.120585
  --------------------------------------------------------------------
  Sum:       -1.000000        1.699300       -1.699300       -0.000000
  
  Multipole moment analysis of the density matrix
    Molecular charge:                      -1.000000
    Number of electrons:                   26.000000
      Center of electronic charge [Ang]: [ -0.000000,  -0.000000,   0.050820]
    Total nuclear charge:                  25.000000
      Center of nuclear charge [Ang]:    [  0.000000,   0.000000,  -0.000000]
    Dipole moment [D]:                     6.346603
      Cartesian components [D]:          [  0.000000,   0.000000,  -6.346603]
    RMS size of the density [Ang]:         2.160631
      Cartesian components [Ang]:        [  1.165529,   0.662150,   1.694528]
  
  Exciton analysis of the difference density matrix
    <r_h> [Ang]:                  [  0.000000,   0.000000,  -1.478112]
    <r_e> [Ang]:                  [ -0.000000,  -0.000000,  -0.034448]
    |<r_e - r_h>| [Ang]:            1.443663
    Hole size [Ang]:                1.806350
      Cartesian components [Ang]: [  0.857556,   0.896878,   1.312671]
    Electron size [Ang]:            5.450892
      Cartesian components [Ang]: [  3.489028,   2.035860,   3.659806]

  Transition density matrix analysis:
  -----------------------------------
  
  CT numbers (Mulliken)
    omega =     0.8508
    <Phe> =     0.0000
  
  Exciton analysis of the transition density matrix
    Trans. dipole moment [D]:             0.000000
      Cartesian components [D]:         [  0.000000,   0.000000,   0.000000]
    <r_h> [Ang]:                        [  0.000000,  -0.000000,  -1.744970]
    <r_e> [Ang]:                        [ -0.000000,  -0.000000,   0.772113]
    |<r_e - r_h>| [Ang]:                  2.517084
    Hole size [Ang]:                      1.099925
      Cartesian components [Ang]:       [  0.480193,   0.828490,   0.541161]
    Electron size [Ang]:                  6.823962
      Cartesian components [Ang]:       [  4.482184,   2.576534,   4.453981]
    RMS electron-hole separation [Ang]:   7.355092
      Cartesian components [Ang]:       [  4.507730,   2.706432,   5.143246]
    Covariance(r_h, r_e) [Ang^2]:         0.007309
    Correlation coefficient:              0.000974
    Center-of-mass size [Ang]:            3.456548
      Cartesian components [Ang]:       [  2.253968,   1.353244,   2.244122]

  Decomposition into state-averaged NTOs
    H- 0 -> L+ 1:  0.4708 ( 44.3%)
    H- 0 -> L+ 0: -0.4174 ( 34.8%)
    H- 0 -> L+ 2: -0.1654 (  5.5%)
                   omega =  85.1%
  ----------------------------------------------------------------------------


  Excited state 4 (singlet, A2)                                    [converged]
  ----------------------------------------------------------------------------
  Term symbol:  4 (1) A2                                    R^2 =  8.38021e-08

  Total energy:                                           -153.8483135808 a.u.
  Excitation energy:                                               3.263960 eV

  Osc. strength:                                                      0.000000
  Trans. dip. moment [a.u.]:           [  -0.000000,    0.000000,   -0.000000]
  <i|r^2|0> [a.u.]:                    [   0.000000,    0.000000,    0.000000]

  Dip. moment [a.u.]:                  [  -0.000000,    0.000000,   -3.669255]
  Total dipole [Debye]:                                               9.326317
  <r^2> [a.u.]:                        [ 114.778533,   35.392649,  219.556485]
  Total <r^2> [a.u.]:                                               369.727667

  V1^2 = 0.8679, V2^2 = 0.1321

  Important amplitudes:
      occ i      occ j       vir a       vir b          v   
    ---------------------------------------------------------
     2 (B2) A               7 (B1) A                  0.6199
     2 (B2) A               8 (B1) A                 -0.1709
    ---------------------------------------------------------

  Density matrix analysis:
  ------------------------
  NOs
    Occupation of frontier NOs:
       0.9615   0.9970
    Number of electrons: 26.000000
    Number of unpaired electrons: n_u =  2.74799, n_u,nl =  2.11424
    NO participation ratio (PR_NO):  3.873427
  
  
  Mulliken Population Analysis
  Atom      Charge (e)              h+              e-           Del q
  --------------------------------------------------------------------
   1 C       -0.633287        0.045695       -0.499127       -0.453432
   2 C       -0.633287        0.045695       -0.499127       -0.453432
   3 H        0.110927       -0.001675       -0.065587       -0.067262
   4 H        0.110927       -0.001675       -0.065587       -0.067262
   5 H        0.014815        0.036534       -0.023689        0.012845
   6 H        0.014815        0.036534       -0.023689        0.012845
   7 O       -0.144080        1.388224       -0.483837        0.904387
   8 H        0.159169        0.135941       -0.024631        0.111311
  --------------------------------------------------------------------
  Sum:       -1.000000        1.685274       -1.685274        0.000000
  
  Multipole moment analysis of the density matrix
    Molecular charge:                      -1.000000
    Number of electrons:                   26.000000
      Center of electronic charge [Ang]: [  0.000000,  -0.000000,   0.074680]
    Total nuclear charge:                  25.000000
      Center of nuclear charge [Ang]:    [  0.000000,   0.000000,  -0.000000]
    Dipole moment [D]:                     9.326314
      Cartesian components [D]:          [ -0.000000,   0.000000,  -9.326314]
    RMS size of the density [Ang]:         1.994119
      Cartesian components [Ang]:        [  1.111846,   0.617406,   1.535942]
  
  Exciton analysis of the difference density matrix
    <r_h> [Ang]:                  [  0.000000,   0.000000,  -1.471588]
    <r_e> [Ang]:                  [  0.000000,  -0.000000,   0.352196]
    |<r_e - r_h>| [Ang]:            1.823784
    Hole size [Ang]:                1.793309
      Cartesian components [Ang]: [  0.872772,   0.889301,   1.289718]
    Electron size [Ang]:            4.370147
      Cartesian components [Ang]: [  3.226252,   1.809896,   2.326749]

  Transition density matrix analysis:
  -----------------------------------
  
  CT numbers (Mulliken)
    omega =     0.8526
    <Phe> =    -0.0000
  
  Exciton analysis of the transition density matrix
    Trans. dipole moment [D]:             0.000000
      Cartesian components [D]:         [ -0.000000,   0.000000,  -0.000000]
    <r_h> [Ang]:                        [  0.000000,  -0.000000,  -1.738934]
    <r_e> [Ang]:                        [  0.000000,  -0.000000,   1.422224]
    |<r_e - r_h>| [Ang]:                  3.161157
    Hole size [Ang]:                      1.106413
      Cartesian components [Ang]:       [  0.479606,   0.826829,   0.557210]
    Electron size [Ang]:                  5.206722
      Cartesian components [Ang]:       [  4.109931,   2.262506,   2.258204]
    RMS electron-hole separation [Ang]:   6.189099
      Cartesian components [Ang]:       [  4.137455,   2.406865,   3.923443]
    Covariance(r_h, r_e) [Ang^2]:         0.011041
    Correlation coefficient:              0.001916
    Center-of-mass size [Ang]:            2.662526
      Cartesian components [Ang]:       [  2.069093,   1.205420,   1.163986]

  Decomposition into state-averaged NTOs
    H- 0 -> L+ 2: -0.5400 ( 58.3%)
    H- 0 -> L+ 1: -0.2845 ( 16.2%)
    H- 0 -> L+ 3:  0.1909 (  7.3%)
    H- 0 -> L+ 0: -0.1253 (  3.1%)
                   omega =  85.3%
  ----------------------------------------------------------------------------


  Excited state 5 (singlet, A2)                                    [converged]
  ----------------------------------------------------------------------------
  Term symbol:  5 (1) A2                                    R^2 =  1.72220e-07

  Total energy:                                           -153.8086237251 a.u.
  Excitation energy:                                               4.343976 eV

  Osc. strength:                                                      0.000000
  Trans. dip. moment [a.u.]:           [  -0.000000,   -0.000000,   -0.000000]
  <i|r^2|0> [a.u.]:                    [  -0.000000,   -0.000000,   -0.000000]

  Dip. moment [a.u.]:                  [  -0.000000,    0.000000,   -3.124557]
  Total dipole [Debye]:                                               7.941832
  <r^2> [a.u.]:                        [  75.898420,   48.048203,  218.905355]
  Total <r^2> [a.u.]:                                               342.851977

  V1^2 = 0.8716, V2^2 = 0.1284

  Important amplitudes:
      occ i      occ j       vir a       vir b          v   
    ---------------------------------------------------------
     4 (B1) A               4 (B2) A                 -0.5331
     2 (B2) A               8 (B1) A                  0.3636
    ---------------------------------------------------------

  Density matrix analysis:
  ------------------------
  NOs
    Occupation of frontier NOs:
       0.6605   1.2878
    Number of electrons: 26.000000
    Number of unpaired electrons: n_u =  2.81776, n_u,nl =  2.44798
    NO participation ratio (PR_NO):  6.376730
  
  
  Mulliken Population Analysis
  Atom      Charge (e)              h+              e-           Del q
  --------------------------------------------------------------------
   1 C       -0.708011        0.046159       -0.574316       -0.528157
   2 C       -0.708011        0.046159       -0.574316       -0.528157
   3 H        0.136365       -0.004144       -0.037680       -0.041824
   4 H        0.136365       -0.004144       -0.037680       -0.041824
   5 H        0.043239        0.029479        0.011791        0.041269
   6 H        0.043239        0.029479        0.011791        0.041269
   7 O       -0.098679        1.309754       -0.359966        0.949788
   8 H        0.155492        0.130668       -0.023034        0.107634
  --------------------------------------------------------------------
  Sum:       -1.000000        1.583409       -1.583409        0.000000
  
  Multipole moment analysis of the density matrix
    Molecular charge:                      -1.000000
    Number of electrons:                   26.000000
      Center of electronic charge [Ang]: [  0.000000,  -0.000000,   0.063594]
    Total nuclear charge:                  25.000000
      Center of nuclear charge [Ang]:    [  0.000000,   0.000000,  -0.000000]
    Dipole moment [D]:                     7.941830
      Cartesian components [D]:          [ -0.000000,   0.000000,  -7.941830]
    RMS size of the density [Ang]:         1.920569
      Cartesian components [Ang]:        [  0.904130,   0.719371,   1.534157]
  
  Exciton analysis of the difference density matrix
    <r_h> [Ang]:                  [  0.000000,   0.000000,  -1.468921]
    <r_e> [Ang]:                  [  0.000000,  -0.000000,   0.290153]
    |<r_e - r_h>| [Ang]:            1.759074
    Hole size [Ang]:                1.815162
      Cartesian components [Ang]: [  0.922055,   0.852241,   1.310844]
    Electron size [Ang]:            3.917455
      Cartesian components [Ang]: [  2.059554,   2.368374,   2.344247]

  Transition density matrix analysis:
  -----------------------------------
  
  CT numbers (Mulliken)
    omega =     0.8553
    <Phe> =     0.0016
  
  Exciton analysis of the transition density matrix
    Trans. dipole moment [D]:             0.000000
      Cartesian components [D]:         [ -0.000000,  -0.000000,  -0.000000]
    <r_h> [Ang]:                        [  0.000000,  -0.000000,  -1.723082]
    <r_e> [Ang]:                        [  0.000000,  -0.000000,   1.162528]
    |<r_e - r_h>| [Ang]:                  2.885611
    Hole size [Ang]:                      1.137704
      Cartesian components [Ang]:       [  0.727017,   0.616217,   0.621364]
    Electron size [Ang]:                  4.498271
      Cartesian components [Ang]:       [  2.489776,   2.906942,   2.363292]
    RMS electron-hole separation [Ang]:   5.461555
      Cartesian components [Ang]:       [  2.591359,   2.971179,   3.779622]
    Covariance(r_h, r_e) [Ang^2]:         0.013488
    Correlation coefficient:              0.002636
    Center-of-mass size [Ang]:            2.321411
      Cartesian components [Ang]:       [  1.298070,   1.485948,   1.223079]

  Decomposition into state-averaged NTOs
    H- 2 -> L+ 4: -0.4557 ( 41.5%)
    H- 0 -> L+ 3: -0.3632 ( 26.4%)
    H- 2 -> L+ 5: -0.2737 ( 15.0%)
    H- 0 -> L+ 2: -0.0877 (  1.5%)
    H- 0 -> L+ 1: -0.0716 (  1.0%)
                   omega =  85.5%
  ----------------------------------------------------------------------------


  Excited state 6 (singlet, A2)                                    [converged]
  ----------------------------------------------------------------------------
  Term symbol:  6 (1) A2                                    R^2 =  1.22532e-07

  Total energy:                                           -153.8081285838 a.u.
  Excitation energy:                                               4.357449 eV

  Osc. strength:                                                      0.000000
  Trans. dip. moment [a.u.]:           [  -0.000000,    0.000000,   -0.000000]
  <i|r^2|0> [a.u.]:                    [  -0.000000,    0.000000,    0.000000]

  Dip. moment [a.u.]:                  [  -0.000000,    0.000000,   -3.015361]
  Total dipole [Debye]:                                               7.664284
  <r^2> [a.u.]:                        [  84.665283,   39.346366,  225.534775]
  Total <r^2> [a.u.]:                                               349.546424

  V1^2 = 0.8719, V2^2 = 0.1281

  Important amplitudes:
      occ i      occ j       vir a       vir b          v   
    ---------------------------------------------------------
     2 (B2) A               8 (B1) A                  0.5099
     4 (B1) A               4 (B2) A                  0.3818
    ---------------------------------------------------------

  Density matrix analysis:
  ------------------------
  NOs
    Occupation of frontier NOs:
       0.6618   1.2877
    Number of electrons: 26.000000
    Number of unpaired electrons: n_u =  2.81795, n_u,nl =  2.44931
    NO participation ratio (PR_NO):  6.368585
  
  
  Mulliken Population Analysis
  Atom      Charge (e)              h+              e-           Del q
  --------------------------------------------------------------------
   1 C       -0.758488        0.034531       -0.613164       -0.578633
   2 C       -0.758488        0.034531       -0.613164       -0.578633
   3 H        0.155509       -0.000383       -0.022298       -0.022680
   4 H        0.155509       -0.000383       -0.022298       -0.022680
   5 H        0.062456        0.035002        0.025485        0.060487
   6 H        0.062456        0.035002        0.025485        0.060487
   7 O       -0.076084        1.313836       -0.341454        0.972383
   8 H        0.157129        0.132751       -0.023481        0.109271
  --------------------------------------------------------------------
  Sum:       -1.000000        1.584888       -1.584888       -0.000000
  
  Multipole moment analysis of the density matrix
    Molecular charge:                      -1.000000
    Number of electrons:                   26.000000
      Center of electronic charge [Ang]: [  0.000000,  -0.000000,   0.061372]
    Total nuclear charge:                  25.000000
      Center of nuclear charge [Ang]:    [  0.000000,   0.000000,  -0.000000]
    Dipole moment [D]:                     7.664282
      Cartesian components [D]:          [ -0.000000,   0.000000,  -7.664282]
    RMS size of the density [Ang]:         1.939320
      Cartesian components [Ang]:        [  0.954920,   0.650979,   1.557343]
  
  Exciton analysis of the difference density matrix
    <r_h> [Ang]:                  [  0.000000,   0.000000,  -1.465680]
    <r_e> [Ang]:                  [  0.000000,  -0.000000,   0.255294]
    |<r_e - r_h>| [Ang]:            1.720974
    Hole size [Ang]:                1.837687
      Cartesian components [Ang]: [  0.908431,   0.878715,   1.334057]
    Electron size [Ang]:            4.075751
      Cartesian components [Ang]: [  2.400551,   2.028045,   2.595406]

  Transition density matrix analysis:
  -----------------------------------
  
  CT numbers (Mulliken)
    omega =     0.8558
    <Phe> =    -0.0017
  
  Exciton analysis of the transition density matrix
    Trans. dipole moment [D]:             0.000000
      Cartesian components [D]:         [ -0.000000,   0.000000,  -0.000000]
    <r_h> [Ang]:                        [  0.000000,  -0.000000,  -1.730813]
    <r_e> [Ang]:                        [  0.000000,  -0.000000,   1.086494]
    |<r_e - r_h>| [Ang]:                  2.817306
    Hole size [Ang]:                      1.122133
      Cartesian components [Ang]:       [  0.618570,   0.726443,   0.590622]
    Electron size [Ang]:                  4.722040
      Cartesian components [Ang]:       [  2.926896,   2.473946,   2.758720]
    RMS electron-hole separation [Ang]:   5.609713
      Cartesian components [Ang]:       [  2.991154,   2.578273,   3.984268]
    Covariance(r_h, r_e) [Ang^2]:         0.012589
    Correlation coefficient:              0.002376
    Center-of-mass size [Ang]:            2.428066
      Cartesian components [Ang]:       [  1.495969,   1.289260,   1.412583]

  Decomposition into state-averaged NTOs
    H- 0 -> L+ 3: -0.5092 ( 51.9%)
    H- 2 -> L+ 4:  0.3268 ( 21.4%)
    H- 2 -> L+ 5:  0.1947 (  7.6%)
    H- 0 -> L+ 2: -0.1181 (  2.8%)
    H- 0 -> L+ 1: -0.0971 (  1.9%)
                   omega =  85.6%
  ----------------------------------------------------------------------------


  Excited state 7 (singlet, A2)                                    [converged]
  ----------------------------------------------------------------------------
  Term symbol:  7 (1) A2                                    R^2 =  7.25535e-08

  Total energy:                                           -153.7670764731 a.u.
  Excitation energy:                                               5.474534 eV

  Osc. strength:                                                      0.000000
  Trans. dip. moment [a.u.]:           [   0.000000,   -0.000000,    0.000000]
  <i|r^2|0> [a.u.]:                    [  -0.000000,   -0.000000,    0.000000]

  Dip. moment [a.u.]:                  [  -0.000000,   -0.000000,   -1.812969]
  Total dipole [Debye]:                                               4.608109
  <r^2> [a.u.]:                        [ 125.254773,   40.709013,  251.405535]
  Total <r^2> [a.u.]:                                               417.369321

  V1^2 = 0.9404, V2^2 = 0.0596

  Important amplitudes:
      occ i      occ j       vir a       vir b          v   
    ---------------------------------------------------------
     1 (B2) A               5 (B1) A                  0.6440
     1 (B2) A               7 (B1) A                  0.2168
    ---------------------------------------------------------

  Density matrix analysis:
  ------------------------
  NOs
    Occupation of frontier NOs:
       0.9844   0.9979
    Number of electrons: 26.000000
    Number of unpaired electrons: n_u =  2.60921, n_u,nl =  2.06554
    NO participation ratio (PR_NO):  3.435084
  
  
  Mulliken Population Analysis
  Atom      Charge (e)              h+              e-           Del q
  --------------------------------------------------------------------
   1 C       -0.371489        0.543322       -0.734957       -0.191635
   2 C       -0.371489        0.543322       -0.734957       -0.191635
   3 H        0.254596        0.083046       -0.006639        0.076406
   4 H        0.254596        0.083046       -0.006639        0.076406
   5 H        0.116872        0.123512       -0.008610        0.114903
   6 H        0.116872        0.123512       -0.008610        0.114903
   7 O       -1.073374        0.054449       -0.079356       -0.024907
   8 H        0.073416        0.032302       -0.006744        0.025558
  --------------------------------------------------------------------
  Sum:       -1.000000        1.586511       -1.586511       -0.000000
  
  Multipole moment analysis of the density matrix
    Molecular charge:                      -1.000000
    Number of electrons:                   26.000000
      Center of electronic charge [Ang]: [  0.000000,   0.000000,   0.036899]
    Total nuclear charge:                  25.000000
      Center of nuclear charge [Ang]:    [  0.000000,   0.000000,  -0.000000]
    Dipole moment [D]:                     4.608107
      Cartesian components [D]:          [ -0.000000,  -0.000000,  -4.608107]
    RMS size of the density [Ang]:         2.119869
      Cartesian components [Ang]:        [  1.161480,   0.662155,   1.645101]
  
  Exciton analysis of the difference density matrix
    <r_h> [Ang]:                  [  0.000000,  -0.000000,   0.872328]
    <r_e> [Ang]:                  [  0.000000,   0.000000,   2.190486]
    |<r_e - r_h>| [Ang]:            1.318158
    Hole size [Ang]:                1.883034
      Cartesian components [Ang]: [  1.105793,   0.930121,   1.207441]
    Electron size [Ang]:            4.756037
      Cartesian components [Ang]: [  3.649577,   2.107855,   2.203957]

  Transition density matrix analysis:
  -----------------------------------
  
  CT numbers (Mulliken)
    omega =     0.9105
    <Phe> =    -0.0005
  
  Exciton analysis of the transition density matrix
    Trans. dipole moment [D]:             0.000000
      Cartesian components [D]:         [  0.000000,  -0.000000,   0.000000]
    <r_h> [Ang]:                        [  0.000000,  -0.000000,   1.028459]
    <r_e> [Ang]:                        [  0.000000,   0.000000,   3.085953]
    |<r_e - r_h>| [Ang]:                  2.057494
    Hole size [Ang]:                      1.301507
      Cartesian components [Ang]:       [  0.768690,   0.895307,   0.549056]
    Electron size [Ang]:                  5.637731
      Cartesian components [Ang]:       [  4.522014,   2.595631,   2.144318]
    RMS electron-hole separation [Ang]:   6.137600
      Cartesian components [Ang]:       [  4.584674,   2.742236,   3.021761]
    Covariance(r_h, r_e) [Ang^2]:         0.020540
    Correlation coefficient:              0.002799
    Center-of-mass size [Ang]:            2.894780
      Cartesian components [Ang]:       [  2.294546,   1.374581,   1.106951]

  Decomposition into state-averaged NTOs
    H- 1 -> L+ 1: -0.5591 ( 62.5%)
    H- 1 -> L+ 0: -0.2996 ( 17.9%)
    H- 1 -> L+ 2:  0.2290 ( 10.5%)
                   omega =  91.1%
  ----------------------------------------------------------------------------


  Excited state 8 (singlet, A2)                                    [converged]
  ----------------------------------------------------------------------------
  Term symbol:  8 (1) A2                                    R^2 =  3.07876e-07

  Total energy:                                           -153.7540047756 a.u.
  Excitation energy:                                               5.830233 eV

  Osc. strength:                                                      0.000000
  Trans. dip. moment [a.u.]:           [   0.000000,   -0.000000,   -0.000000]
  <i|r^2|0> [a.u.]:                    [   0.000000,   -0.000000,    0.000000]

  Dip. moment [a.u.]:                  [   0.000000,   -0.000000,   -2.763259]
  Total dipole [Debye]:                                               7.023505
  <r^2> [a.u.]:                        [ 122.215726,   85.563362,  218.822944]
  Total <r^2> [a.u.]:                                               426.602032

  V1^2 = 0.8671, V2^2 = 0.1329

  Important amplitudes:
      occ i      occ j       vir a       vir b          v   
    ---------------------------------------------------------
     7 (A1) A               1 (A2) A                 -0.6516
     7 (A1) A               2 (A2) A                  0.0790
    ---------------------------------------------------------

  Density matrix analysis:
  ------------------------
  NOs
    Occupation of frontier NOs:
       0.9791   0.9995
    Number of electrons: 26.000000
    Number of unpaired electrons: n_u =  2.80253, n_u,nl =  2.13343
    NO participation ratio (PR_NO):  3.940487
  
  
  Mulliken Population Analysis
  Atom      Charge (e)              h+              e-           Del q
  --------------------------------------------------------------------
   1 C       -0.667269        0.067900       -0.555315       -0.487415
   2 C       -0.667269        0.067900       -0.555315       -0.487415
   3 H        0.142639        0.000112       -0.035662       -0.035550
   4 H        0.142639        0.000112       -0.035662       -0.035550
   5 H        0.040067        0.040805       -0.002707        0.038098
   6 H        0.040067        0.040805       -0.002707        0.038098
   7 O       -0.364391        1.204994       -0.520918        0.684076
   8 H        0.333517        0.302915       -0.017257        0.285658
  --------------------------------------------------------------------
  Sum:       -1.000000        1.725542       -1.725542       -0.000000
  
  Multipole moment analysis of the density matrix
    Molecular charge:                      -1.000000
    Number of electrons:                   26.000000
      Center of electronic charge [Ang]: [ -0.000000,   0.000000,   0.056241]
    Total nuclear charge:                  25.000000
      Center of nuclear charge [Ang]:    [  0.000000,   0.000000,  -0.000000]
    Dipole moment [D]:                     7.023503
      Cartesian components [D]:          [  0.000000,  -0.000000,  -7.023503]
    RMS size of the density [Ang]:         2.142774
      Cartesian components [Ang]:        [  1.147303,   0.959972,   1.534155]
  
  Exciton analysis of the difference density matrix
    <r_h> [Ang]:                  [  0.000000,  -0.000000,  -1.386946]
    <r_e> [Ang]:                  [ -0.000000,   0.000000,   0.116433]
    |<r_e - r_h>| [Ang]:            1.503379
    Hole size [Ang]:                1.863130
      Cartesian components [Ang]: [  0.873355,   0.802186,   1.437011]
    Electron size [Ang]:            5.303663
      Cartesian components [Ang]: [  3.375135,   3.348478,   2.350532]

  Transition density matrix analysis:
  -----------------------------------
  
  CT numbers (Mulliken)
    omega =     0.8503
    <Phe> =     0.0000
  
  Exciton analysis of the transition density matrix
    Trans. dipole moment [D]:             0.000000
      Cartesian components [D]:         [  0.000000,  -0.000000,  -0.000000]
    <r_h> [Ang]:                        [  0.000000,   0.000000,  -1.709521]
    <r_e> [Ang]:                        [ -0.000000,   0.000000,   1.026969]
    |<r_e - r_h>| [Ang]:                  2.736491
    Hole size [Ang]:                      1.148095
      Cartesian components [Ang]:       [  0.454850,   0.406476,   0.972631]
    Electron size [Ang]:                  6.643088
      Cartesian components [Ang]:       [  4.361831,   4.339160,   2.505342]
    RMS electron-hole separation [Ang]:   7.275524
      Cartesian components [Ang]:       [  4.384974,   4.358253,   3.835477]
    Covariance(r_h, r_e) [Ang^2]:         0.001936
    Correlation coefficient:              0.000254
    Center-of-mass size [Ang]:            3.370928
      Cartesian components [Ang]:       [  2.192996,   2.179031,   1.343781]

  Decomposition into state-averaged NTOs
    H- 3 -> L+ 6:  0.6520 ( 85.0%)
                   omega =  85.0%
  ----------------------------------------------------------------------------


  Excited state 9 (singlet, A2)                                    [converged]
  ----------------------------------------------------------------------------
  Term symbol:  9 (1) A2                                    R^2 =  1.81406e-07

  Total energy:                                           -153.7329647615 a.u.
  Excitation energy:                                               6.402761 eV

  Osc. strength:                                                      0.000000
  Trans. dip. moment [a.u.]:           [   0.000000,    0.000000,    0.000000]
  <i|r^2|0> [a.u.]:                    [  -0.000000,   -0.000000,   -0.000000]

  Dip. moment [a.u.]:                  [  -0.000000,    0.000000,    5.825078]
  Total dipole [Debye]:                                              14.805875
  <r^2> [a.u.]:                        [ 126.154394,   41.041155,  251.967281]
  Total <r^2> [a.u.]:                                               419.162831

  V1^2 = 0.9392, V2^2 = 0.0608

  Important amplitudes:
      occ i      occ j       vir a       vir b          v   
    ---------------------------------------------------------
     1 (B2) A               6 (B1) A                 -0.6675
     1 (B2) A               8 (B1) A                 -0.0996
    ---------------------------------------------------------

  Density matrix analysis:
  ------------------------
  NOs
    Occupation of frontier NOs:
       0.9841   0.9993
    Number of electrons: 26.000000
    Number of unpaired electrons: n_u =  2.60695, n_u,nl =  2.06487
    NO participation ratio (PR_NO):  3.425422
  
  
  Mulliken Population Analysis
  Atom      Charge (e)              h+              e-           Del q
  --------------------------------------------------------------------
   1 C       -0.376121        0.544906       -0.741173       -0.196266
   2 C       -0.376121        0.544906       -0.741173       -0.196266
   3 H        0.259864        0.097301       -0.015626        0.081674
   4 H        0.259864        0.097301       -0.015626        0.081674
   5 H        0.107450        0.111945       -0.006464        0.105480
   6 H        0.107450        0.111945       -0.006464        0.105480
   7 O       -1.062333        0.066051       -0.079917       -0.013866
   8 H        0.079947        0.040572       -0.008483        0.032089
  --------------------------------------------------------------------
  Sum:       -1.000000        1.614927       -1.614927       -0.000000
  
  Multipole moment analysis of the density matrix
    Molecular charge:                      -1.000000
    Number of electrons:                   26.000000
      Center of electronic charge [Ang]: [  0.000000,  -0.000000,  -0.118558]
    Total nuclear charge:                  25.000000
      Center of nuclear charge [Ang]:    [  0.000000,   0.000000,  -0.000000]
    Dipole moment [D]:                     14.805871
      Cartesian components [D]:          [ -0.000000,   0.000000,  14.805871]
    RMS size of the density [Ang]:         2.121430
      Cartesian components [Ang]:        [  1.165643,   0.664851,   1.643081]
  
  Exciton analysis of the difference density matrix
    <r_h> [Ang]:                  [  0.000000,  -0.000000,   0.804796]
    <r_e> [Ang]:                  [  0.000000,  -0.000000,  -0.403066]
    |<r_e - r_h>| [Ang]:            1.207862
    Hole size [Ang]:                1.894702
      Cartesian components [Ang]: [  1.092017,   0.921121,   1.244561]
    Electron size [Ang]:            5.204883
      Cartesian components [Ang]: [  3.637620,   2.102623,   3.072052]

  Transition density matrix analysis:
  -----------------------------------
  
  CT numbers (Mulliken)
    omega =     0.9094
    <Phe> =    -0.0001
  
  Exciton analysis of the transition density matrix
    Trans. dipole moment [D]:             0.000000
      Cartesian components [D]:         [  0.000000,   0.000000,   0.000000]
    <r_h> [Ang]:                        [  0.000000,  -0.000000,   1.033958]
    <r_e> [Ang]:                        [  0.000000,  -0.000000,  -1.015661]
    |<r_e - r_h>| [Ang]:                  2.049619
    Hole size [Ang]:                      1.296452
      Cartesian components [Ang]:       [  0.768990,   0.895060,   0.536946]
    Electron size [Ang]:                  6.387082
      Cartesian components [Ang]:       [  4.551486,   2.614622,   3.639031]
    RMS electron-hole separation [Ang]:   6.830949
      Cartesian components [Ang]:       [  4.614805,   2.762752,   4.211013]
    Covariance(r_h, r_e) [Ang^2]:         0.007340
    Correlation coefficient:              0.000886
    Center-of-mass size [Ang]:            3.259229
      Cartesian components [Ang]:       [  2.308587,   1.382205,   1.839159]

  Decomposition into state-averaged NTOs
    H- 1 -> L+ 0: -0.6029 ( 72.7%)
    H- 1 -> L+ 1:  0.2890 ( 16.7%)
    H- 1 -> L+ 2: -0.0829 (  1.4%)
                   omega =  90.9%
  ----------------------------------------------------------------------------


  Excited state 10 (singlet, A2)                                    [converged]
  ----------------------------------------------------------------------------
  Term symbol:  10 (1) A2                                   R^2 =  5.45933e-06

  Total energy:                                           -153.7102601802 a.u.
  Excitation energy:                                               7.020584 eV

  Osc. strength:                                                      0.000000
  Trans. dip. moment [a.u.]:           [  -0.000000,   -0.000000,    0.000000]
  <i|r^2|0> [a.u.]:                    [  -0.000000,    0.000000,    0.000000]

  Dip. moment [a.u.]:                  [  -0.000000,   -0.000000,   -0.479490]
  Total dipole [Debye]:                                               1.218743
  <r^2> [a.u.]:                        [ 116.487388,   37.121383,  239.315119]
  Total <r^2> [a.u.]:                                               392.923890

  V1^2 = 0.9423, V2^2 = 0.0577

  Important amplitudes:
      occ i      occ j       vir a       vir b          v   
    ---------------------------------------------------------
     1 (B2) A               7 (B1) A                  0.6261
     1 (B2) A               5 (B1) A                 -0.2140
    ---------------------------------------------------------

  Density matrix analysis:
  ------------------------
  NOs
    Occupation of frontier NOs:
       0.9859   0.9923
    Number of electrons: 26.000000
    Number of unpaired electrons: n_u =  2.61435, n_u,nl =  2.06699
    NO participation ratio (PR_NO):  3.462107
  
  
  Mulliken Population Analysis
  Atom      Charge (e)              h+              e-           Del q
  --------------------------------------------------------------------
   1 C       -0.316549        0.537917       -0.674612       -0.136695
   2 C       -0.316549        0.537917       -0.674612       -0.136695
   3 H        0.225000        0.075404       -0.028594        0.046811
   4 H        0.225000        0.075404       -0.028594        0.046811
   5 H        0.091754        0.117306       -0.027521        0.089785
   6 H        0.091754        0.117306       -0.027521        0.089785
   7 O       -1.070887        0.049741       -0.072161       -0.022420
   8 H        0.070477        0.028561       -0.005942        0.022619
  --------------------------------------------------------------------
  Sum:       -1.000000        1.539556       -1.539556        0.000000
  
  Multipole moment analysis of the density matrix
    Molecular charge:                      -1.000000
    Number of electrons:                   26.000000
      Center of electronic charge [Ang]: [  0.000000,   0.000000,   0.009759]
    Total nuclear charge:                  25.000000
      Center of nuclear charge [Ang]:    [  0.000000,   0.000000,  -0.000000]
    Dipole moment [D]:                     1.218743
      Cartesian components [D]:          [ -0.000000,  -0.000000,  -1.218743]
    RMS size of the density [Ang]:         2.057140
      Cartesian components [Ang]:        [  1.120093,   0.632305,   1.605430]
  
  Exciton analysis of the difference density matrix
    <r_h> [Ang]:                  [  0.000000,  -0.000000,   0.887105]
    <r_e> [Ang]:                  [  0.000000,   0.000000,   1.787121]
    |<r_e - r_h>| [Ang]:            0.900016
    Hole size [Ang]:                1.871511
      Cartesian components [Ang]: [  1.114368,   0.932995,   1.179092]
    Electron size [Ang]:            4.523888
      Cartesian components [Ang]: [  3.480329,   1.976101,   2.109003]

  Transition density matrix analysis:
  -----------------------------------
  
  CT numbers (Mulliken)
    omega =     0.9119
    <Phe> =    -0.0021
  
  Exciton analysis of the transition density matrix
    Trans. dipole moment [D]:             0.000000
      Cartesian components [D]:         [ -0.000000,  -0.000000,   0.000000]
    <r_h> [Ang]:                        [  0.000000,  -0.000000,   1.022729]
    <r_e> [Ang]:                        [  0.000000,   0.000000,   2.394021]
    |<r_e - r_h>| [Ang]:                  1.371292
    Hole size [Ang]:                      1.306323
      Cartesian components [Ang]:       [  0.768216,   0.893953,   0.563181]
    Electron size [Ang]:                  5.345818
      Cartesian components [Ang]:       [  4.235113,   2.387032,   2.223436]
    RMS electron-hole separation [Ang]:   5.667349
      Cartesian components [Ang]:       [  4.300725,   2.544168,   2.673913]
    Covariance(r_h, r_e) [Ang^2]:         0.022924
    Correlation coefficient:              0.003283
    Center-of-mass size [Ang]:            2.753638
      Cartesian components [Ang]:       [  2.153859,   1.276847,   1.145895]

  Decomposition into state-averaged NTOs
    H- 1 -> L+ 2: -0.6274 ( 78.7%)
    H- 1 -> L+ 1: -0.2420 ( 11.7%)
                   omega =  91.2%
  ----------------------------------------------------------------------------


--------------------------------------------------------------------------------
  Time of ADC calculation:  CPU 176.32 s  wall 48.28 s
================================================================================
 
 --------------------------------------------------------------
             Orbital Energies (a.u.) and Symmetries
 --------------------------------------------------------------
 
 Alpha MOs, Restricted
 -- Occupied --                  
-20.213 -11.049 -11.047  -0.930  -0.853  -0.598  -0.473  -0.384
  1 A1    2 A1    1 B1    3 A1    4 A1    2 B1    5 A1    6 A1                 
 -0.327  -0.271  -0.194  -0.129  -0.128
  3 B1    7 A1    1 B2    4 B1    2 B2                                         
 -- Virtual --                   
  0.103   0.117   0.121   0.122   0.130   0.135   0.195   0.200
  5 B1    8 A1    3 B2    1 A2    6 B1    9 A1   10 A1    7 B1                 
  0.239   0.241   0.254   0.259   0.317   0.355   0.379   0.398
  2 A2   11 A1    8 B1    4 B2   12 A1   13 A1    3 A2    9 B1                 
  0.450   0.456   0.471   0.527   0.530   0.578   0.607   0.640
  5 B2   14 A1   10 B1   15 A1   11 B1   16 A1   12 B1   17 A1                 
  0.690   0.808   0.955   0.964   1.040   1.050   1.082   1.128
 13 B1   18 A1   19 A1    6 B2    4 A2   20 A1   21 A1   14 B1                 
  1.173   1.193   1.203   1.216   1.277   1.291   1.330   1.330
 15 B1   16 B1    7 B2   22 A1   23 A1    5 A2   17 B1   24 A1                 
  1.370   1.452   1.467   1.483   1.561   1.642   1.691   1.719
  8 B2   18 B1    9 B2    6 A2   19 B1   25 A1   20 B1   10 B2                 
  1.847   1.926   1.959   2.027   2.118   2.122   2.138   2.181
 26 A1   21 B1   27 A1    7 A2   28 A1   11 B2   22 B1   29 A1                 
  2.212   2.279   2.355   2.393   2.433   2.473   2.551   2.604
 12 B2   30 A1    8 A2   13 B2   23 B1   24 B1   31 A1    9 A2                 
  2.713   2.746   2.847   3.008   3.032   3.085   3.447   3.562
 25 B1   32 A1   26 B1   33 A1   34 A1   35 A1   27 B1   28 B1                 
  3.921   3.945   3.970   4.087   4.535
 14 B2   10 A2   36 A1   29 B1   37 A1                                         
 
 Beta MOs, Restricted
 -- Occupied --                  
-20.213 -11.049 -11.047  -0.930  -0.853  -0.598  -0.473  -0.384
  1 A1    2 A1    1 B1    3 A1    4 A1    2 B1    5 A1    6 A1                 
 -0.327  -0.271  -0.194  -0.129  -0.128
  3 B1    7 A1    1 B2    4 B1    2 B2                                         
 -- Virtual --                   
  0.103   0.117   0.121   0.122   0.130   0.135   0.195   0.200
  5 B1    8 A1    3 B2    1 A2    6 B1    9 A1   10 A1    7 B1                 
  0.239   0.241   0.254   0.259   0.317   0.355   0.379   0.398
  2 A2   11 A1    8 B1    4 B2   12 A1   13 A1    3 A2    9 B1                 
  0.450   0.456   0.471   0.527   0.530   0.578   0.607   0.640
  5 B2   14 A1   10 B1   15 A1   11 B1   16 A1   12 B1   17 A1                 
  0.690   0.808   0.955   0.964   1.040   1.050   1.082   1.128
 13 B1   18 A1   19 A1    6 B2    4 A2   20 A1   21 A1   14 B1                 
  1.173   1.193   1.203   1.216   1.277   1.291   1.330   1.330
 15 B1   16 B1    7 B2   22 A1   23 A1    5 A2   17 B1   24 A1                 
  1.370   1.452   1.467   1.483   1.561   1.642   1.691   1.719
  8 B2   18 B1    9 B2    6 A2   19 B1   25 A1   20 B1   10 B2                 
  1.847   1.926   1.959   2.027   2.118   2.122   2.138   2.181
 26 A1   21 B1   27 A1    7 A2   28 A1   11 B2   22 B1   29 A1                 
  2.212   2.279   2.355   2.393   2.433   2.473   2.551   2.604
 12 B2   30 A1    8 A2   13 B2   23 B1   24 B1   31 A1    9 A2                 
  2.713   2.746   2.847   3.008   3.032   3.085   3.447   3.562
 25 B1   32 A1   26 B1   33 A1   34 A1   35 A1   27 B1   28 B1                 
  3.921   3.945   3.970   4.087   4.535
 14 B2   10 A2   36 A1   29 B1   37 A1                                         
 --------------------------------------------------------------
 
          Ground-State Mulliken Net Atomic Charges

     Atom                 Charge (a.u.)
  ----------------------------------------
      1 C                    -0.173303
      2 C                    -0.173303
      3 H                     0.170736
      4 H                     0.170736
      5 H                    -0.003108
      6 H                    -0.003108
      7 O                    -1.053771
      8 H                     0.065122
  ----------------------------------------
  Sum of atomic charges =    -1.000000

 -----------------------------------------------------------------
                    Cartesian Multipole Moments
 -----------------------------------------------------------------
    Charge (ESU x 10^10)
                -4.8032
    Dipole Moment (Debye)
         X      -0.0000      Y       0.0000      Z       5.2700
       Tot       5.2700
    Quadrupole Moments (Debye-Ang)
        XX     -23.6875     XY       0.0000     YY     -26.5233
        XZ      -0.0000     YZ      -0.0000     ZZ     -32.8372
    Octopole Moments (Debye-Ang^2)
       XXX      -0.0000    XXY      -0.0000    XYY      -0.0000
       YYY       0.0000    XXZ       0.9833    XYZ       0.0000
       YYZ      -0.1077    XZZ      -0.0000    YZZ       0.0000
       ZZZ       5.9787
    Hexadecapole Moments (Debye-Ang^3)
      XXXX     -88.9898   XXXY      -0.0000   XXYY     -22.3669
      XYYY      -0.0000   YYYY     -42.5024   XXXZ       0.0000
      XXYZ      -0.0000   XYYZ      -0.0000   YYYZ       0.0000
      XXZZ     -70.9958   XYZZ       0.0000   YYZZ     -65.9134
      XZZZ      -0.0000   YZZZ      -0.0000   ZZZZ    -292.8541
 -----------------------------------------------------------------
 Total job time:  162.08s(wall), 225.49s(cpu) 
 Wed Mar  2 21:01:19 2022

        *************************************************************
        *                                                           *
        *  Thank you very much for using Q-Chem.  Have a nice day.  *
        *                                                           *
        *************************************************************


