/src/tsommerfeld/qchem/exe/qcprog.exe .input1.654545.29141.qcin.1 /src/jdavis/qchem.scratch/qchem29141/

                  Welcome to Q-Chem
     A Quantum Leap Into The Future Of Chemistry


 Q-Chem 5.4 (devel), Q-Chem, Inc., Pleasanton, CA (2021)

 E. Epifanovsky,  A. T. B. Gilbert,  Xintian Feng,  Joonho Lee,  Yuezhi Mao,  
 N. Mardirossian,  P. Pokhilko,  A. White,  M. Wormit,  M. P. Coons,  
 A. L. Dempwolff,  Zhengting Gan,  D. Hait,  P. R. Horn,  L. D. Jacobson,  
 I. Kaliman,  J. Kussmann,  A. W. Lange,  Ka Un Lao,  D. S. Levine,  Jie Liu,  
 S. C. McKenzie,  A. F. Morrison,  K. Nanda,  F. Plasser,  D. R. Rehn,  
 M. L. Vidal,  Zhi-Qiang You,  Ying Zhu,  B. Alam,  B. Albrecht,  
 A. Aldossary,  E. Alguire,  J. H. Andersen,  D. Barton,  K. Begam,  A. Behn,  
 Y. A. Bernard,  E. J. Berquist,  H. Burton,  A. Carreras,  K. Carter-Fenk,  
 R. Chakraborty,  A. D. Chien,  K. D. Closser,  V. Cofer-Shabica,  
 S. Dasgupta,  Jia Deng,  M. de Wergifosse,  M. Diedenhofen,  Hainam Do,  
 S. Ehlert,  Po-Tung Fang,  S. Fatehi,  Qingguo Feng,  T. Friedhoff,  
 J. Gayvert,  Qinghui Ge,  G. Gidofalvi,  M. Goldey,  J. Gomes,  
 C. Gonzalez-Espinoza,  S. Gulania,  A. Gunina,  M. W. D. Hanson-Heine,  
 P. H. P. Harbach,  A. W. Hauser,  M. F. Herbst,  M. Hernandez Vera,  
 M. Hodecker,  Z. C. Holden,  S. Houck,  Xunkun Huang,  Kerwin Hui,  
 B. C. Huynh,  M. Ivanov,  Hyunjun Ji,  Hanjie Jiang,  B. Kaduk,  S. Kaehler,  
 K. Khistyaev,  Jaehoon Kim,  P. Klunzinger,  Z. Koczor-Benda,  
 Joong Hoon Koh,  D. Kosenkov,  L. Koulias,  T. Kowalczyk,  C. M. Krauter,  
 K. Kue,  A. Kunitsa,  T. Kus,  A. Landau,  K. V. Lawler,  D. Lefrancois,  
 S. Lehtola,  Rain Li,  Yi-Pei Li,  Jiashu Liang,  M. Liebenthal,  
 Hung-Hsuan Lin,  You-Sheng Lin,  Fenglai Liu,  Kuan-Yu Liu,  
 M. Loipersberger,  A. Luenser,  A. Manjanath,  P. Manohar,  E. Mansoor,  
 S. F. Manzer,  Shan-Ping Mao,  A. V. Marenich,  T. Markovich,  S. Mason,  
 S. A. Maurer,  P. F. McLaughlin,  M. F. S. J. Menger,  J.-M. Mewes,  
 S. A. Mewes,  P. Morgante,  J. W. Mullinax,  K. J. Oosterbaan,  G. Paran,  
 Alexander C. Paul,  Suranjan K. Paul,  F. Pavosevic,  Zheng Pei,  S. Prager,  
 E. I. Proynov,  E. Ramos,  B. Rana,  A. E. Rask,  A. Rettig,  R. M. Richard,  
 F. Rob,  E. Rossomme,  T. Scheele,  M. Scheurer,  M. Schneider,  
 N. Sergueev,  S. M. Sharada,  W. Skomorowski,  D. W. Small,  C. J. Stein,  
 Yu-Chuan Su,  E. J. Sundstrom,  Zhen Tao,  J. Thirman,  T. Tsuchimochi,  
 N. M. Tubman,  S. P. Veccham,  O. Vydrov,  J. Wenzel,  J. Witte,  A. Yamada,  
 Kun Yao,  S. Yeganeh,  S. R. Yost,  A. Zech,  Igor Ying Zhang,  Xing Zhang,  
 Yu Zhang,  D. Zuev,  A. Aspuru-Guzik,  A. T. Bell,  N. A. Besley,  
 K. B. Bravaya,  B. R. Brooks,  D. Casanova,  Jeng-Da Chai,  S. Coriani,  
 C. J. Cramer,  A. E. DePrince, III,  R. A. DiStasio Jr.,  A. Dreuw,  
 B. D. Dunietz,  T. R. Furlani,  W. A. Goddard III,  S. Grimme,  
 S. Hammes-Schiffer,  T. Head-Gordon,  W. J. Hehre,  Chao-Ping Hsu,  
 T.-C. Jagau,  Yousung Jung,  A. Klamt,  Jing Kong,  D. S. Lambrecht,  
 WanZhen Liang,  N. J. Mayhall,  C. W. McCurdy,  J. B. Neaton,  
 C. Ochsenfeld,  J. A. Parkhill,  R. Peverati,  V. A. Rassolov,  Yihan Shao,  
 L. V. Slipchenko,  T. Stauch,  R. P. Steele,  J. E. Subotnik,  
 A. J. W. Thom,  A. Tkatchenko,  D. G. Truhlar,  T. Van Voorhis,  
 T. A. Wesolowski,  K. B. Whaley,  H. L. Woodcock III,  P. M. Zimmerman,  
 S. Faraji,  P. M. W. Gill,  M. Head-Gordon,  J. M. Herbert,  A. I. Krylov

 Additional authors for Version 5.4.1: 
 S. Kotaru,  Shaozhi Li,  Xiangyuan Li,  F. Matz,  A. Molle,  Haisheng Ren,  
 Yingli Su,  Hung-Yi Tsai,  C. Utku,  Fang Wang

 Contributors to earlier versions of Q-Chem not listed above: 
 R. D. Adamson,  B. Austin,  R. Baer,  J. Baker,  G. J. O. Beran,  
 K. Brandhorst,  S. T. Brown,  E. F. C. Byrd,  A. K. Chakraborty,  
 G. K. L. Chan,  Chun-Min Chang,  Yunqing Chen,  C.-L. Cheng,  
 Siu Hung Chien,  D. M. Chipman,  D. L. Crittenden,  H. Dachsel,  
 R. J. Doerksen,  A. D. Dutoi,  R. G. Edgar,  J. Fosso-Tande,  
 L. Fusti-Molnar,  D. Ghosh,  A. Ghysels,  A. Golubeva-Zadorozhnaya,  
 J. Gonthier,  M. S. Gordon,  S. R. Gwaltney,  G. Hawkins,  J. E. Herr,  
 A. Heyden,  S. Hirata,  E. G. Hohenstein,  G. Kedziora,  F. J. Keil,  
 C. Kelley,  Jihan Kim,  R. A. King,  R. Z. Khaliullin,  P. P. Korambath,  
 W. Kurlancheek,  A. Laurent,  A. M. Lee,  M. S. Lee,  S. V. Levchenko,  
 Ching Yeh Lin,  D. Liotard,  E. Livshits,  R. C. Lochan,  I. Lotan,  
 L. A. Martinez-Martinez,  P. E. Maslen,  N. Nair,  D. P. O'Neill,  
 D. Neuhauser,  E. Neuscamman,  C. M. Oana,  R. Olivares-Amaya,  R. Olson,  
 T. M. Perrine,  B. Peters,  P. A. Pieniazek,  A. Prociuk,  Y. M. Rhee,  
 J. Ritchie,  M. A. Rohrdanz,  E. Rosta,  N. J. Russ,  H. F. Schaefer III,  
 M. W. Schmidt,  N. E. Schultz,  S. Sharma,  N. Shenvi,  C. D. Sherrill,  
 A. C. Simmonett,  A. Sodt,  T. Stein,  D. Stuck,  K. S. Thanthiriwatte,  
 V. Vanovschi,  L. Vogt,  Tao Wang,  A. Warshel,  M. A. Watson,  
 C. F. Williams,  Q. Wu,  X. Xu,  Jun Yang,  W. Zhang,  Yan Zhao

 Please cite Q-Chem as follows:
 Y. Shao et al., Mol. Phys. 113, 184-215 (2015)
 DOI: 10.1080/00268976.2014.952696

 Q-Chem 5.4.1 for Intel X86 EM64T Linux

 Parts of Q-Chem use Armadillo 9.900.5 (Nocturnal Misbehaviour).
 http://arma.sourceforge.net/

 Q-Chem begins on Wed Mar  2 22:04:02 2022  

 Host: node01
0

     Scratch files written to /src/jdavis/qchem.scratch/qchem29141//
 Processing $rem in /src/tsommerfeld/qchem/config/preferences:
 Processing $rem in /home/jdavis/.qchemrc:

 Checking the input file for inconsistencies... 	...done.

--------------------------------------------------------------
User input:
--------------------------------------------------------------
$molecule
-1 1
C        -0.6645000000    0.0000000000    1.1619088658
C         0.6645000000    0.0000000000    1.1619088658
H        -1.1590800000    0.0000000000    0.1995598658
H         1.1590800000    0.0000000000    0.1995598658
H        -1.1590800000    0.0000000000    2.1242568658
H         1.1590800000    0.0000000000    2.1242568658
O         0.0000000000    0.0000000000   -1.5841414040
H         0.0000000000    0.0000000000   -2.5471307683
$end
$rem
   METHOD adc(2)
   BASIS gen
   PURECART 11
   EE_STATES [0,10,0,0]
   scf_convergence 8
   ADC_DAVIDSON_MAXITER 120
   ADC_DAVIDSON_MAXSUBSPACE 200
   adc_nguess_singles 100
   THRESH 14
   S2THRESH 14
   adc_davidson_conv 5
   adc_davidson_thresh 14
   THREADS 10
   MEM_TOTAL 95000
   STATE_ANALYSIS TRUE
$end
$basis
C 1
S   9   1.00
      6.665000D+03           6.920000D-04
      1.000000D+03           5.329000D-03
      2.280000D+02           2.707700D-02
      6.471000D+01           1.017180D-01
      2.106000D+01           2.747400D-01
      7.495000D+00           4.485640D-01
      2.797000D+00           2.850740D-01
      5.215000D-01           1.520400D-02
      1.596000D-01          -3.191000D-03
S   9   1.00
      6.665000D+03          -1.460000D-04
      1.000000D+03          -1.154000D-03
      2.280000D+02          -5.725000D-03
      6.471000D+01          -2.331200D-02
      2.106000D+01          -6.395500D-02
      7.495000D+00          -1.499810D-01
      2.797000D+00          -1.272620D-01
      5.215000D-01           5.445290D-01
      1.596000D-01           5.804960D-01
S   1   1.00
      1.596000D-01           1.000000D+00
S   1   1.00
      0.0469000              1.0000000
P   4   1.00
      9.439000D+00           3.810900D-02
      2.002000D+00           2.094800D-01
      5.456000D-01           5.085570D-01
      1.517000D-01           4.688420D-01
P   1   1.00
      1.517000D-01           1.000000D+00
P   1   1.00
      0.0717127      1.0000000
P   1   1.00
      0.0358564      1.0000000
D   1   1.00
      5.500000D-01           1.0000000
****
C 2
S   9   1.00
      6.665000D+03           6.920000D-04
      1.000000D+03           5.329000D-03
      2.280000D+02           2.707700D-02
      6.471000D+01           1.017180D-01
      2.106000D+01           2.747400D-01
      7.495000D+00           4.485640D-01
      2.797000D+00           2.850740D-01
      5.215000D-01           1.520400D-02
      1.596000D-01          -3.191000D-03
S   9   1.00
      6.665000D+03          -1.460000D-04
      1.000000D+03          -1.154000D-03
      2.280000D+02          -5.725000D-03
      6.471000D+01          -2.331200D-02
      2.106000D+01          -6.395500D-02
      7.495000D+00          -1.499810D-01
      2.797000D+00          -1.272620D-01
      5.215000D-01           5.445290D-01
      1.596000D-01           5.804960D-01
S   1   1.00
      1.596000D-01           1.000000D+00
S   1   1.00
      0.0469000              1.0000000
P   4   1.00
      9.439000D+00           3.810900D-02
      2.002000D+00           2.094800D-01
      5.456000D-01           5.085570D-01
      1.517000D-01           4.688420D-01
P   1   1.00
      1.517000D-01           1.000000D+00
P   1   1.00
      0.0717127      1.0000000
P   1   1.00
      0.0358564      1.0000000
D   1   1.00
      5.500000D-01           1.0000000
****
H 3
cc-pVDZ
****
H 4
cc-pVDZ
****
H 5
cc-pVDZ
****
H 6
cc-pVDZ
****
O 7
aug-cc-pVDZ
****
H 8
cc-pVDZ
****
$end
--------------------------------------------------------------
 ----------------------------------------------------------------
             Standard Nuclear Orientation (Angstroms)
    I     Atom           X                Y                Z
 ----------------------------------------------------------------
    1      C      -0.6645000000    -0.0000000000     1.0270977517
    2      C       0.6645000000     0.0000000000     1.0270977517
    3      H      -1.1590800000    -0.0000000000     0.0647487517
    4      H       1.1590800000     0.0000000000     0.0647487517
    5      H      -1.1590800000    -0.0000000000     1.9894457517
    6      H       1.1590800000     0.0000000000     1.9894457517
    7      O       0.0000000000    -0.0000000000    -1.7189525181
    8      H       0.0000000000    -0.0000000000    -2.6819418824
 ----------------------------------------------------------------
 Molecular Point Group                 C2v   NOp =  4
 Largest Abelian Subgroup              C2v   NOp =  4
 Nuclear Repulsion Energy =          64.38561153 hartrees
 There are       13 alpha and       13 beta electrons
 Requested basis set is non-standard
 There are 42 shells and 90 basis functions
 Total memory of 95000 MB is distributed as follows: 
   MEM_STATIC is set to 192 MB
   QALLOC/CCMAN JOB total memory use is  94808 MB
 Warning: actual memory use might exceed 95000 MB

 Total QAlloc Memory Limit  95000 MB
 Mega-Array Size       188 MB
 MEM_STATIC part       192 MB

                       Distance Matrix (Angstroms)
             C (  1)   C (  2)   H (  3)   H (  4)   H (  5)   H (  6)
   C (  2)  1.329000
   H (  3)  1.082000  2.061931
   H (  4)  2.061931  1.082000  2.318160
   H (  5)  1.082000  2.061931  1.924697  3.013026
   H (  6)  2.061931  1.082000  3.013026  1.924697  2.318160
   O (  7)  2.825306  2.825306  2.127218  2.127218  3.885316  3.885316
   H (  8)  3.768094  3.768094  2.981237  2.981237  4.813037  4.813037
             O (  7)
   H (  8)  0.962989
 
 A cutoff of  1.0D-14 yielded    903 shell pairs
 There are      4183 function pairs (      4573 Cartesian)
 Smallest overlap matrix eigenvalue = 2.16E-04

 Scale SEOQF with 1.000000e-01/1.000000e-01/1.000000e-01

 Standard Electronic Orientation quadrupole field applied
 Nucleus-field energy     =    -0.0000000051 hartrees
 ================ Generating on-the-fly SAD Guess ================
Attempting to make child job directory: /src/jdavis/qchem.scratch/qchem29141//Frg1/
Attempting to make child job directory: /src/jdavis/qchem.scratch/qchem29141//Frg2/
Attempting to make child job directory: /src/jdavis/qchem.scratch/qchem29141//Frg3/
Creating input file /src/jdavis/qchem.scratch/qchem29141/Frg1.input
using default PutDataFrgm: nothing
calling putenv with: QCSCRATCH=/src/jdavis/qchem.scratch/qchem29141/ 
Spawning Job For Fragment 0
Done Job For Fragment 0
calling putenv with: QCSCRATCH=/src/jdavis/qchem.scratch 
calling putenv with: QCTHREADS=1 
Creating input file /src/jdavis/qchem.scratch/qchem29141/Frg2.input
using default PutDataFrgm: nothing
calling putenv with: QCSCRATCH=/src/jdavis/qchem.scratch/qchem29141/ 
Spawning Job For Fragment 1
Done Job For Fragment 1
calling putenv with: QCSCRATCH=/src/jdavis/qchem.scratch 
calling putenv with: QCTHREADS=1 
Creating input file /src/jdavis/qchem.scratch/qchem29141/Frg3.input
using default PutDataFrgm: nothing
calling putenv with: QCSCRATCH=/src/jdavis/qchem.scratch/qchem29141/ 
Spawning Job For Fragment 2
Done Job For Fragment 2
calling putenv with: QCSCRATCH=/src/jdavis/qchem.scratch 
calling putenv with: QCTHREADS=1 
 Time for running child jobs:  CPU 1.77 s  wall 80.43 s
 ============= Method Specific SAD Guess Constructed =============
 Guess from on-the-fly superposition of atomic densities
 Warning: Energy on first SCF cycle will be non-variational
 A restricted Hartree-Fock SCF calculation will be
 performed using Pulay DIIS extrapolation
 SCF converges when DIIS error is below 1.0E-08
 using 10 threads for integral computing
 -------------------------------------------------------
 OpenMP Integral computing Module                
 Release: version 1.0, May 2013, Q-Chem Inc. Pittsburgh 
 -------------------------------------------------------
 ---------------------------------------
  Cycle       Energy         DIIS Error
 ---------------------------------------
    1    -153.5744843718      5.98E-02
    2    -153.2898255121      1.22E-02
    3    -153.3562060994      1.02E-02
    4    -153.4402891426      7.55E-04
    5    -153.4412101786      2.11E-04
    6    -153.4412832147      4.61E-05
    7    -153.4412885286      1.21E-05
    8    -153.4412890895      3.64E-06
    9    -153.4412891380      7.46E-07
   10    -153.4412891397      1.28E-07
   11    -153.4412891397      3.59E-08
   12    -153.4412891397      1.08E-08
   13    -153.4412891397      2.32E-09 Convergence criterion met
 ---------------------------------------
 SCF time:  CPU 15.23 s  wall 1.53 s
 SCF   energy in the final basis set = -153.44128914
 Total energy in the final basis set = -153.44128914
================================================================================
|                                                                              |
|                                 A D C  M A N                                 |
|                                                                              |
 ------------------------------------------------------------------------------ 
|                                                                              |
| Components:                                                                  |
|                                                                              |
| - libvmm - 1.3-trunk                                                         |
|   Authors:                                                                   |
|   Evgeny Epifanovsky, Ilya Kaliman                                           |
|                                                                              |
| - libtensor - 2.5-trunk                                                      |
|   Authors:                                                                   |
|   Evgeny Epifanovsky, Michael Wormit, Dmitry Zuev, Sam Manzer,               |
|   Ilya Kaliman                                                               |
|                                                                              |
| - libwfa - 1.1-trunk                                                         |
|   Authors:                                                                   |
|   Felix Plasser, Stefanie Mewes (Baeppler), Benjamin Thomitzni,              |
|   Michael Wormit, Feng Chen, Anna I. Krylov, Pavel Pokhilko                  |
|                                                                              |
| - libadc - 1.1-trunk                                                         |
|   Authors:                                                                   |
|   Michael Wormit, Adrian L. Dempwolff, Philipp H. P. Harbach,                |
|   Caroline Krauter, Dirk Rehn, Matthias Schneider, Jan Wenzel                |
|                                                                              |
| - adcman - 2.6-trunk                                                         |
|   Authors:                                                                   |
|   Michael Wormit, Adrian L. Dempwolff, Philipp H. P. Harbach,                |
|   Caroline Krauter, Daniel Lefrancois, Jan-Michael Mewes, Dirk Rehn,         |
|   Matthias Schneider, Jan Wenzel, Andreas Dreuw                              |
|                                                                              |
| Authors of earlier versions of ADCMAN:                                       |
| Andreas Dreuw, Jan Hendrik Starcke, Dirk Rehn, Michael Wormit                |
|                                                                              |
================================================================================

 
 Alpha MOs, Restricted
 -- Occupied --                  
-20.213 -11.049 -11.047  -0.930  -0.854  -0.598  -0.473  -0.384
  1 A1    2 A1    1 B1    3 A1    4 A1    2 B1    5 A1    6 A1                 
 -0.328  -0.271  -0.194  -0.130  -0.129
  3 B1    7 A1    1 B2    4 B1    2 B2                                         
 -- Virtual --                   
  0.172   0.183   0.207   0.210   0.215   0.228   0.290   0.327
  5 B1    8 A1    3 B2    9 A1    1 A2    6 B1   10 A1   11 A1                 
  0.333   0.340   0.421   0.440   0.446   0.459   0.479   0.486
  2 A2    7 B1   12 A1    4 B2    8 B1   13 A1    9 B1    5 B2                 
  0.501   0.510   0.558   0.560   0.574   0.577   0.697   0.727
 10 B1   14 A1   11 B1    3 A2   15 A1   16 A1   17 A1   12 B1                 
  0.791   0.983   1.034   1.108   1.115   1.129   1.196   1.209
 13 B1   18 A1   19 A1   20 A1   21 A1   14 B1    6 B2   15 B1                 
  1.245   1.252   1.283   1.291   1.296   1.331   1.332   1.337
  7 B2   22 A1    4 A2    5 A2   16 B1   17 B1   23 A1   24 A1                 
  1.370   1.454   1.472   1.483   1.632   1.661   1.718   1.720
  8 B2   18 B1    9 B2    6 A2   19 B1   25 A1   20 B1   10 B2                 
  1.871   1.933   2.028   2.060   2.125   2.130   2.170   2.212
 26 A1   21 B1   27 A1    7 A2   28 A1   11 B2   22 B1   12 B2                 
  2.252   2.329   2.365   2.394   2.437   2.526   2.576   2.604
 29 A1   30 A1    8 A2   13 B2   23 B1   24 B1   31 A1    9 A2                 
  2.766   2.777   2.853   3.033   3.047   3.114   3.450   3.564
 32 A1   25 B1   26 B1   33 A1   34 A1   35 A1   27 B1   28 B1                 
  3.923   3.946   3.972   4.090   4.545
 14 B2   10 A2   36 A1   29 B1   37 A1                                         
 
 Beta MOs, Restricted
 -- Occupied --                  
-20.213 -11.049 -11.047  -0.930  -0.854  -0.598  -0.473  -0.384
  1 A1    2 A1    1 B1    3 A1    4 A1    2 B1    5 A1    6 A1                 
 -0.328  -0.271  -0.194  -0.130  -0.129
  3 B1    7 A1    1 B2    4 B1    2 B2                                         
 -- Virtual --                   
  0.172   0.183   0.207   0.210   0.215   0.228   0.290   0.327
  5 B1    8 A1    3 B2    9 A1    1 A2    6 B1   10 A1   11 A1                 
  0.333   0.340   0.421   0.440   0.446   0.459   0.479   0.486
  2 A2    7 B1   12 A1    4 B2    8 B1   13 A1    9 B1    5 B2                 
  0.501   0.510   0.558   0.560   0.574   0.577   0.697   0.727
 10 B1   14 A1   11 B1    3 A2   15 A1   16 A1   17 A1   12 B1                 
  0.791   0.983   1.034   1.108   1.115   1.129   1.196   1.209
 13 B1   18 A1   19 A1   20 A1   21 A1   14 B1    6 B2   15 B1                 
  1.245   1.252   1.283   1.291   1.296   1.331   1.332   1.337
  7 B2   22 A1    4 A2    5 A2   16 B1   17 B1   23 A1   24 A1                 
  1.370   1.454   1.472   1.483   1.632   1.661   1.718   1.720
  8 B2   18 B1    9 B2    6 A2   19 B1   25 A1   20 B1   10 B2                 
  1.871   1.933   2.028   2.060   2.125   2.130   2.170   2.212
 26 A1   21 B1   27 A1    7 A2   28 A1   11 B2   22 B1   12 B2                 
  2.252   2.329   2.365   2.394   2.437   2.526   2.576   2.604
 29 A1   30 A1    8 A2   13 B2   23 B1   24 B1   31 A1    9 A2                 
  2.766   2.777   2.853   3.033   3.047   3.114   3.450   3.564
 32 A1   25 B1   26 B1   33 A1   34 A1   35 A1   27 B1   28 B1                 
  3.923   3.946   3.972   4.090   4.545
 14 B2   10 A2   36 A1   29 B1   37 A1                                         

--------------------------------------------------------------------------------
                                   HF Summary                                   
--------------------------------------------------------------------------------
  Energy:                                                 -153.4412891397 a.u.
  Dip. moment [a.u.]:                  [  -0.000000,    0.000000,    2.078933]
  Total dipole [Debye]:                                               5.284121
  <r^2> [a.u.]:                        [  55.703000,   19.709518,  208.056590]
  Total <r^2> [a.u.]:                                               283.469108
--------------------------------------------------------------------------------

--------------------------------------------------------------------------------
                                 MP(2) Summary                                  
--------------------------------------------------------------------------------
  MP energy contribution:                                   -0.5290931168 a.u.
  Total energy:                                           -153.9703822565 a.u.
  Dip. moment [a.u.]:                  [   0.000000,   -0.000000,    2.146745]
  Total dipole [Debye]:                                               5.456484
  <r^2> [a.u.]:                        [  56.672854,   20.377904,  209.311610]
  Total <r^2> [a.u.]:                                               286.362368

  Density matrix analysis:
  ------------------------
  NOs
    Occupation of frontier NOs:
       0.0447   1.9356
    Number of electrons: 26.000000
    Number of unpaired electrons: n_u =  0.71590, n_u,nl =  0.08549
    NO participation ratio (PR_NO): 23.020511
  
  
  Mulliken Population Analysis
  Atom      Charge (e)              h+              e-           Del q
  --------------------------------------------------------------------
   1 C       -0.217964        0.093142       -0.095107       -0.001965
   2 C       -0.217964        0.093142       -0.095107       -0.001965
   3 H        0.198089        0.017529       -0.013648        0.003881
   4 H        0.198089        0.017529       -0.013648        0.003881
   5 H        0.032036        0.018832       -0.011936        0.006896
   6 H        0.032036        0.018832       -0.011936        0.006896
   7 O       -1.073437        0.277250       -0.278428       -0.001178
   8 H        0.049115        0.015511       -0.031956       -0.016445
  --------------------------------------------------------------------
  Sum:       -1.000000        0.551767       -0.551767       -0.000000
  
  Multipole moment analysis of the density matrix
    Molecular charge:                      -1.000000
    Number of electrons:                   26.000000
      Center of electronic charge [Ang]: [ -0.000000,   0.000000,  -0.043693]
    Total nuclear charge:                  25.000000
      Center of nuclear charge [Ang]:    [  0.000000,   0.000000,  -0.000000]
    Dipole moment [D]:                     5.456482
      Cartesian components [D]:          [  0.000000,  -0.000000,   5.456482]
    RMS size of the density [Ang]:         1.755650
      Cartesian components [Ang]:        [  0.781272,   0.468483,   1.500815]
  
  Exciton analysis of the difference density matrix
    <r_h> [Ang]:                  [ -0.000000,  -0.000000,  -0.474183]
    <r_e> [Ang]:                  [ -0.000000,   0.000000,  -0.539219]
    |<r_e - r_h>| [Ang]:            0.065036
    Hole size [Ang]:                1.936395
      Cartesian components [Ang]: [  0.860849,   0.725585,   1.575465]
    Electron size [Ang]:            2.269820
      Cartesian components [Ang]: [  1.110529,   0.930423,   1.747318]
--------------------------------------------------------------------------------
  Starting Davidson for singlet states of irrep A2 ... 
--------------------------------------------------------------------------------
   It NVec Conv  Avg. Norm  Max. Norm  Conv. states           Remark
--------------------------------------------------------------------------------
       100    0  1.493e-01  5.300e-01  0.2640 n n n n n n n n Guess.
    1  110    0  1.845e-02  1.337e-01  0.0921 n n n n n n n n 
    2  120    0  5.452e-03  3.692e-02  0.0910 n n n n n n n n 
    3  130    0  7.310e-03  7.271e-02  0.0910 n n n n n n n n 
    4  140    0  3.082e-03  3.079e-02  0.0910 n n n n n n n n 
    5  150    4  5.237e-04  5.234e-03  0.0910 y y y y n n n n 
    6  160    8  8.737e-05  8.733e-04  0.0910 y y y y y n y y 
    7  170    9  9.625e-06  9.622e-05  0.0910 y y y y y y y y 
    8  180    9  1.068e-06  1.067e-05  0.0910 y y y y y y y y 
    9  190   10  1.322e-07  1.322e-06  0.0910 y y y y y y y y Converged.
--------------------------------------------------------------------------------
  Davidson Summary: 
 ------------------------------------------------------------
  State  0: excitation energy =   0.0910 a.u.   (converged)
  State  1: excitation energy =   0.1154 a.u.   (converged)
  State  2: excitation energy =   0.1326 a.u.   (converged)
  State  3: excitation energy =   0.2264 a.u.   (converged)
  State  4: excitation energy =   0.2359 a.u.   (converged)
  State  5: excitation energy =   0.2651 a.u.   (converged)
  State  6: excitation energy =   0.2694 a.u.   (converged)
  State  7: excitation energy =   0.2870 a.u.   (converged)
  State  8: excitation energy =   0.2899 a.u.   (converged)
  State  9: excitation energy =   0.3281 a.u.   (converged)
 ------------------------------------------------------------


--------------------------------------------------------------------------------
                   State-averaged natural transition orbitals
--------------------------------------------------------------------------------
--------------------------------------------------------------------------------

--------------------------------------------------------------------------------
                             Excited State Summary
--------------------------------------------------------------------------------
--------------------------------------------------------------------------------

  Excited state 1 (singlet, A2)                                    [converged]
  ----------------------------------------------------------------------------
  Term symbol:  1 (1) A2                                    R^2 =  6.83870e-11

  Total energy:                                           -153.8793916766 a.u.
  Excitation energy:                                               2.475980 eV

  Osc. strength:                                                      0.000000
  Trans. dip. moment [a.u.]:           [  -0.000000,   -0.000000,    0.000000]
  <i|r^2|0> [a.u.]:                    [  -0.000000,   -0.000000,   -0.000000]

  Dip. moment [a.u.]:                  [   0.000000,    0.000000,   -3.555452]
  Total dipole [Debye]:                                               9.037059
  <r^2> [a.u.]:                        [  99.833408,   27.509365,  211.598737]
  Total <r^2> [a.u.]:                                               338.941511

  V1^2 = 0.8697, V2^2 = 0.1303

  Important amplitudes:
      occ i      occ j       vir a       vir b          v   
    ---------------------------------------------------------
     2 (B2) A               5 (B1) A                 -0.6286
     2 (B2) A               6 (B1) A                 -0.1754
    ---------------------------------------------------------

  Density matrix analysis:
  ------------------------
  NOs
    Occupation of frontier NOs:
       0.9620   0.9980
    Number of electrons: 26.000000
    Number of unpaired electrons: n_u =  2.74781, n_u,nl =  2.11313
    NO participation ratio (PR_NO):  3.867767
  
  
  Mulliken Population Analysis
  Atom      Charge (e)              h+              e-           Del q
  --------------------------------------------------------------------
   1 C       -0.691937        0.030094       -0.504068       -0.473973
   2 C       -0.691937        0.030094       -0.504068       -0.473973
   3 H        0.156715        0.006307       -0.047681       -0.041373
   4 H        0.156715        0.006307       -0.047681       -0.041373
   5 H        0.045974        0.040880       -0.026943        0.013937
   6 H        0.045974        0.040880       -0.026943        0.013937
   7 O       -0.180483        1.396825       -0.503871        0.892954
   8 H        0.158979        0.133486       -0.023622        0.109864
  --------------------------------------------------------------------
  Sum:       -1.000000        1.684875       -1.684875        0.000000
  
  Multipole moment analysis of the density matrix
    Molecular charge:                      -1.000000
    Number of electrons:                   26.000000
      Center of electronic charge [Ang]: [ -0.000000,  -0.000000,   0.072364]
    Total nuclear charge:                  25.000000
      Center of nuclear charge [Ang]:    [  0.000000,   0.000000,  -0.000000]
    Dipole moment [D]:                     9.037057
      Cartesian components [D]:          [  0.000000,   0.000000,  -9.037057]
    RMS size of the density [Ang]:         1.909260
      Cartesian components [Ang]:        [  1.036937,   0.544321,   1.507896]
  
  Exciton analysis of the difference density matrix
    <r_h> [Ang]:                  [ -0.000000,  -0.000000,  -1.459562]
    <r_e> [Ang]:                  [ -0.000000,  -0.000000,   0.331356]
    |<r_e - r_h>| [Ang]:            1.790918
    Hole size [Ang]:                1.776025
      Cartesian components [Ang]: [  0.844250,   0.869498,   1.298261]
    Electron size [Ang]:            3.730082
      Cartesian components [Ang]: [  2.808220,   1.393300,   2.021417]

  Transition density matrix analysis:
  -----------------------------------
  
  CT numbers (Mulliken)
    omega =     0.8544
    <Phe> =     0.0001
  
  Exciton analysis of the transition density matrix
    Trans. dipole moment [D]:             0.000000
      Cartesian components [D]:         [ -0.000000,  -0.000000,   0.000000]
    <r_h> [Ang]:                        [ -0.000000,  -0.000000,  -1.739804]
    <r_e> [Ang]:                        [ -0.000000,  -0.000000,   1.366180]
    |<r_e - r_h>| [Ang]:                  3.105984
    Hole size [Ang]:                      1.097645
      Cartesian components [Ang]:       [  0.476270,   0.821154,   0.551087]
    Electron size [Ang]:                  4.330084
      Cartesian components [Ang]:       [  3.573002,   1.713997,   1.745137]
    RMS electron-hole separation [Ang]:   5.438743
      Cartesian components [Ang]:       [  3.604131,   1.898420,   3.603632]
    Covariance(r_h, r_e) [Ang^2]:         0.010832
    Correlation coefficient:              0.002279
    Center-of-mass size [Ang]:            2.234733
      Cartesian components [Ang]:       [  1.802539,   0.951336,   0.916429]

  Decomposition into state-averaged NTOs
    H- 0 -> L+ 1:  0.4734 ( 44.8%)
    H- 0 -> L+ 0: -0.4473 ( 40.0%)
                   omega =  85.4%
  ----------------------------------------------------------------------------


  Excited state 2 (singlet, A2)                                    [converged]
  ----------------------------------------------------------------------------
  Term symbol:  2 (1) A2                                    R^2 =  8.42045e-11

  Total energy:                                           -153.8549768053 a.u.
  Excitation energy:                                               3.140342 eV

  Osc. strength:                                                      0.000000
  Trans. dip. moment [a.u.]:           [  -0.000000,    0.000000,    0.000000]
  <i|r^2|0> [a.u.]:                    [   0.000000,    0.000000,   -0.000000]

  Dip. moment [a.u.]:                  [   0.000000,   -0.000000,   -3.206989]
  Total dipole [Debye]:                                               8.151354
  <r^2> [a.u.]:                        [  65.022647,   51.494626,  208.989431]
  Total <r^2> [a.u.]:                                               325.506704

  V1^2 = 0.8729, V2^2 = 0.1271

  Important amplitudes:
      occ i      occ j       vir a       vir b          v   
    ---------------------------------------------------------
     4 (B1) A               3 (B2) A                 -0.6572
     4 (B1) A               5 (B2) A                 -0.0583
    ---------------------------------------------------------

  Density matrix analysis:
  ------------------------
  NOs
    Occupation of frontier NOs:
       0.9631   0.9988
    Number of electrons: 26.000000
    Number of unpaired electrons: n_u =  2.74209, n_u,nl =  2.11111
    NO participation ratio (PR_NO):  3.845796
  
  
  Mulliken Population Analysis
  Atom      Charge (e)              h+              e-           Del q
  --------------------------------------------------------------------
   1 C       -0.703181        0.047163       -0.532379       -0.485216
   2 C       -0.703181        0.047163       -0.532379       -0.485216
   3 H        0.141117       -0.002670       -0.054302       -0.056972
   4 H        0.141117       -0.002670       -0.054302       -0.056972
   5 H        0.055868        0.025831       -0.001999        0.023832
   6 H        0.055868        0.025831       -0.001999        0.023832
   7 O       -0.143695        1.398134       -0.468393        0.929742
   8 H        0.156085        0.129921       -0.022951        0.106971
  --------------------------------------------------------------------
  Sum:       -1.000000        1.668703       -1.668703       -0.000000
  
  Multipole moment analysis of the density matrix
    Molecular charge:                      -1.000000
    Number of electrons:                   26.000000
      Center of electronic charge [Ang]: [ -0.000000,   0.000000,   0.065272]
    Total nuclear charge:                  25.000000
      Center of nuclear charge [Ang]:    [  0.000000,   0.000000,  -0.000000]
    Dipole moment [D]:                     8.151351
      Cartesian components [D]:          [  0.000000,  -0.000000,  -8.151351]
    RMS size of the density [Ang]:         1.871244
      Cartesian components [Ang]:        [  0.836848,   0.744724,   1.498874]
  
  Exciton analysis of the difference density matrix
    <r_h> [Ang]:                  [ -0.000000,  -0.000000,  -1.465549]
    <r_e> [Ang]:                  [ -0.000000,  -0.000000,   0.232221]
    |<r_e - r_h>| [Ang]:            1.697770
    Hole size [Ang]:                1.756882
      Cartesian components [Ang]: [  0.913848,   0.764807,   1.290964]
    Electron size [Ang]:            3.427745
      Cartesian components [Ang]: [  1.495431,   2.409708,   1.925209]

  Transition density matrix analysis:
  -----------------------------------
  
  CT numbers (Mulliken)
    omega =     0.8567
    <Phe> =     0.0001
  
  Exciton analysis of the transition density matrix
    Trans. dipole moment [D]:             0.000000
      Cartesian components [D]:         [ -0.000000,   0.000000,   0.000000]
    <r_h> [Ang]:                        [  0.000000,  -0.000000,  -1.720314]
    <r_e> [Ang]:                        [ -0.000000,  -0.000000,   1.211831]
    |<r_e - r_h>| [Ang]:                  2.932145
    Hole size [Ang]:                      1.140215
      Cartesian components [Ang]:       [  0.821397,   0.467782,   0.637634]
    Electron size [Ang]:                  3.916184
      Cartesian components [Ang]:       [  1.813212,   3.053427,   1.650861]
    RMS electron-hole separation [Ang]:   5.021442
      Cartesian components [Ang]:       [  1.987140,   3.088819,   3.424231]
    Covariance(r_h, r_e) [Ang^2]:         0.009588
    Correlation coefficient:              0.002147
    Center-of-mass size [Ang]:            2.040573
      Cartesian components [Ang]:       [  0.997012,   1.544642,   0.885432]

  Decomposition into state-averaged NTOs
    H- 2 -> L+ 6:  0.6379 ( 81.4%)
    H- 2 -> L+ 2: -0.1453 (  4.2%)
                   omega =  85.7%
  ----------------------------------------------------------------------------


  Excited state 3 (singlet, A2)                                    [converged]
  ----------------------------------------------------------------------------
  Term symbol:  3 (1) A2                                    R^2 =  1.40125e-10

  Total energy:                                           -153.8377992633 a.u.
  Excitation energy:                                               3.607767 eV

  Osc. strength:                                                      0.000000
  Trans. dip. moment [a.u.]:           [   0.000000,    0.000000,    0.000000]
  <i|r^2|0> [a.u.]:                    [   0.000000,    0.000000,    0.000000]

  Dip. moment [a.u.]:                  [   0.000000,    0.000000,   -2.912954]
  Total dipole [Debye]:                                               7.403993
  <r^2> [a.u.]:                        [  86.970699,   27.002207,  225.507022]
  Total <r^2> [a.u.]:                                               339.479928

  V1^2 = 0.8745, V2^2 = 0.1255

  Important amplitudes:
      occ i      occ j       vir a       vir b          v   
    ---------------------------------------------------------
     2 (B2) A               6 (B1) A                  0.6291
     2 (B2) A               5 (B1) A                 -0.1748
    ---------------------------------------------------------

  Density matrix analysis:
  ------------------------
  NOs
    Occupation of frontier NOs:
       0.9630   1.0007
    Number of electrons: 26.000000
    Number of unpaired electrons: n_u =  2.73842, n_u,nl =  2.10956
    NO participation ratio (PR_NO):  3.834935
  
  
  Mulliken Population Analysis
  Atom      Charge (e)              h+              e-           Del q
  --------------------------------------------------------------------
   1 C       -0.660889        0.024059       -0.466984       -0.442925
   2 C       -0.660889        0.024059       -0.466984       -0.442925
   3 H        0.112248       -0.000530       -0.085311       -0.085841
   4 H        0.112248       -0.000530       -0.085311       -0.085841
   5 H        0.015374        0.041105       -0.057767       -0.016662
   6 H        0.015374        0.041105       -0.057767       -0.016662
   7 O       -0.093235        1.401927       -0.421726        0.980202
   8 H        0.159769        0.134512       -0.023858        0.110654
  --------------------------------------------------------------------
  Sum:       -1.000000        1.665707       -1.665707       -0.000000
  
  Multipole moment analysis of the density matrix
    Molecular charge:                      -1.000000
    Number of electrons:                   26.000000
      Center of electronic charge [Ang]: [ -0.000000,  -0.000000,   0.059287]
    Total nuclear charge:                  25.000000
      Center of nuclear charge [Ang]:    [  0.000000,   0.000000,  -0.000000]
    Dipole moment [D]:                     7.403991
      Cartesian components [D]:          [  0.000000,   0.000000,  -7.403991]
    RMS size of the density [Ang]:         1.911229
      Cartesian components [Ang]:        [  0.967834,   0.539280,   1.557328]
  
  Exciton analysis of the difference density matrix
    <r_h> [Ang]:                  [ -0.000000,  -0.000000,  -1.451824]
    <r_e> [Ang]:                  [ -0.000000,  -0.000000,   0.155588]
    |<r_e - r_h>| [Ang]:            1.607412
    Hole size [Ang]:                1.797517
      Cartesian components [Ang]: [  0.830064,   0.871351,   1.335218]
    Electron size [Ang]:            3.774182
      Cartesian components [Ang]: [  2.404682,   1.368536,   2.566918]

  Transition density matrix analysis:
  -----------------------------------
  
  CT numbers (Mulliken)
    omega =     0.8586
    <Phe> =    -0.0004
  
  Exciton analysis of the transition density matrix
    Trans. dipole moment [D]:             0.000000
      Cartesian components [D]:         [  0.000000,   0.000000,   0.000000]
    <r_h> [Ang]:                        [ -0.000000,  -0.000000,  -1.741867]
    <r_e> [Ang]:                        [ -0.000000,  -0.000000,   0.999258]
    |<r_e - r_h>| [Ang]:                  2.741126
    Hole size [Ang]:                      1.093658
      Cartesian components [Ang]:       [  0.475828,   0.820595,   0.544335]
    Electron size [Ang]:                  4.442059
      Cartesian components [Ang]:       [  3.023139,   1.671075,   2.792852]
    RMS electron-hole separation [Ang]:   5.330554
      Cartesian components [Ang]:       [  3.060062,   1.861443,   3.947892]
    Covariance(r_h, r_e) [Ang^2]:         0.013471
    Correlation coefficient:              0.002773
    Center-of-mass size [Ang]:            2.288827
      Cartesian components [Ang]:       [  1.530325,   0.930963,   1.424831]

  Decomposition into state-averaged NTOs
    H- 0 -> L+ 0:  0.4740 ( 44.9%)
    H- 0 -> L+ 1:  0.4399 ( 38.7%)
    H- 0 -> L+ 4:  0.0933 (  1.7%)
                   omega =  85.9%
  ----------------------------------------------------------------------------


  Excited state 4 (singlet, A2)                                    [converged]
  ----------------------------------------------------------------------------
  Term symbol:  4 (1) A2                                    R^2 =  2.78575e-10

  Total energy:                                           -153.7439344467 a.u.
  Excitation energy:                                               6.161958 eV

  Osc. strength:                                                      0.000000
  Trans. dip. moment [a.u.]:           [  -0.000000,   -0.000000,    0.000000]
  <i|r^2|0> [a.u.]:                    [  -0.000000,   -0.000000,   -0.000000]

  Dip. moment [a.u.]:                  [   0.000000,    0.000000,   -0.118526]
  Total dipole [Debye]:                                               0.301264
  <r^2> [a.u.]:                        [  91.536376,   26.293330,  226.494515]
  Total <r^2> [a.u.]:                                               344.324221

  V1^2 = 0.9417, V2^2 = 0.0583

  Important amplitudes:
      occ i      occ j       vir a       vir b          v   
    ---------------------------------------------------------
     1 (B2) A               5 (B1) A                  0.6663
     1 (B2) A               7 (B1) A                  0.1086
    ---------------------------------------------------------

  Density matrix analysis:
  ------------------------
  NOs
    Occupation of frontier NOs:
       0.9832   0.9943
    Number of electrons: 26.000000
    Number of unpaired electrons: n_u =  2.63605, n_u,nl =  2.07188
    NO participation ratio (PR_NO):  3.520123
  
  
  Mulliken Population Analysis
  Atom      Charge (e)              h+              e-           Del q
  --------------------------------------------------------------------
   1 C       -0.356403        0.530285       -0.668725       -0.138439
   2 C       -0.356403        0.530285       -0.668725       -0.138439
   3 H        0.272729        0.072756        0.001885        0.074640
   4 H        0.272729        0.072756        0.001885        0.074640
   5 H        0.093808        0.120808       -0.059036        0.061772
   6 H        0.093808        0.120808       -0.059036        0.061772
   7 O       -1.088533        0.056327       -0.071423       -0.015096
   8 H        0.068264        0.024043       -0.004894        0.019150
  --------------------------------------------------------------------
  Sum:       -1.000000        1.528069       -1.528069        0.000000
  
  Multipole moment analysis of the density matrix
    Molecular charge:                      -1.000000
    Number of electrons:                   26.000000
      Center of electronic charge [Ang]: [ -0.000000,  -0.000000,   0.002412]
    Total nuclear charge:                  25.000000
      Center of nuclear charge [Ang]:    [  0.000000,   0.000000,  -0.000000]
    Dipole moment [D]:                     0.301264
      Cartesian components [D]:          [  0.000000,   0.000000,  -0.301264]
    RMS size of the density [Ang]:         1.925741
      Cartesian components [Ang]:        [  0.992913,   0.532154,   1.561862]
  
  Exciton analysis of the difference density matrix
    <r_h> [Ang]:                  [ -0.000000,  -0.000000,   0.884473]
    <r_e> [Ang]:                  [ -0.000000,  -0.000000,   1.668947]
    |<r_e - r_h>| [Ang]:            0.784474
    Hole size [Ang]:                1.821217
      Cartesian components [Ang]: [  1.074559,   0.899681,   1.163068]
    Electron size [Ang]:            3.454797
      Cartesian components [Ang]: [  2.746570,   1.376033,   1.580669]

  Transition density matrix analysis:
  -----------------------------------
  
  CT numbers (Mulliken)
    omega =     0.9113
    <Phe> =    -0.0019
  
  Exciton analysis of the transition density matrix
    Trans. dipole moment [D]:             0.000000
      Cartesian components [D]:         [ -0.000000,  -0.000000,   0.000000]
    <r_h> [Ang]:                        [  0.000000,  -0.000000,   0.999475]
    <r_e> [Ang]:                        [ -0.000000,  -0.000000,   2.192391]
    |<r_e - r_h>| [Ang]:                  1.192916
    Hole size [Ang]:                      1.328933
      Cartesian components [Ang]:       [  0.765914,   0.893273,   0.617659]
    Electron size [Ang]:                  3.996865
      Cartesian components [Ang]:       [  3.316227,   1.641356,   1.511134]
    RMS electron-hole separation [Ang]:   4.368074
      Cartesian components [Ang]:       [  3.398022,   1.863190,   2.015451]
    Covariance(r_h, r_e) [Ang^2]:         0.041986
    Correlation coefficient:              0.007905
    Center-of-mass size [Ang]:            2.110981
      Cartesian components [Ang]:       [  1.704510,   0.937082,   0.820223]

  Decomposition into state-averaged NTOs
    H- 1 -> L+ 1: -0.5978 ( 71.5%)
    H- 1 -> L+ 0:  0.3041 ( 18.5%)
    H- 0 -> L+ 5:  0.0711 (  1.0%)
                   omega =  91.1%
  ----------------------------------------------------------------------------


  Excited state 5 (singlet, A2)                                    [converged]
  ----------------------------------------------------------------------------
  Term symbol:  5 (1) A2                                    R^2 =  2.16799e-09

  Total energy:                                           -153.7345179401 a.u.
  Excitation energy:                                               6.418194 eV

  Osc. strength:                                                      0.000000
  Trans. dip. moment [a.u.]:           [  -0.000000,   -0.000000,    0.000000]
  <i|r^2|0> [a.u.]:                    [  -0.000000,   -0.000000,   -0.000000]

  Dip. moment [a.u.]:                  [  -0.000000,    0.000000,   -3.249113]
  Total dipole [Debye]:                                               8.258422
  <r^2> [a.u.]:                        [  83.135817,   30.317764,  210.441544]
  Total <r^2> [a.u.]:                                               323.895124

  V1^2 = 0.8730, V2^2 = 0.1270

  Important amplitudes:
      occ i      occ j       vir a       vir b          v   
    ---------------------------------------------------------
     2 (B2) A               7 (B1) A                 -0.6377
     2 (B2) A              11 (B1) A                  0.0813
    ---------------------------------------------------------

  Density matrix analysis:
  ------------------------
  NOs
    Occupation of frontier NOs:
       0.9749   0.9803
    Number of electrons: 26.000000
    Number of unpaired electrons: n_u =  2.77347, n_u,nl =  2.12188
    NO participation ratio (PR_NO):  3.956172
  
  
  Mulliken Population Analysis
  Atom      Charge (e)              h+              e-           Del q
  --------------------------------------------------------------------
   1 C       -0.777639        0.037091       -0.596766       -0.559675
   2 C       -0.777639        0.037091       -0.596766       -0.559675
   3 H        0.153893        0.003785       -0.047980       -0.044196
   4 H        0.153893        0.003785       -0.047980       -0.044196
   5 H        0.100839        0.029120        0.039683        0.068803
   6 H        0.100839        0.029120        0.039683        0.068803
   7 O       -0.107930        1.376030       -0.410523        0.965507
   8 H        0.153743        0.127047       -0.022418        0.104628
  --------------------------------------------------------------------
  Sum:       -1.000000        1.643067       -1.643067        0.000000
  
  Multipole moment analysis of the density matrix
    Molecular charge:                      -1.000000
    Number of electrons:                   26.000000
      Center of electronic charge [Ang]: [  0.000000,  -0.000000,   0.066129]
    Total nuclear charge:                  25.000000
      Center of nuclear charge [Ang]:    [  0.000000,   0.000000,  -0.000000]
    Dipole moment [D]:                     8.258420
      Cartesian components [D]:          [ -0.000000,   0.000000,  -8.258420]
    RMS size of the density [Ang]:         1.866570
      Cartesian components [Ang]:        [  0.946256,   0.571430,   1.504045]
  
  Exciton analysis of the difference density matrix
    <r_h> [Ang]:                  [ -0.000000,   0.000000,  -1.478347]
    <r_e> [Ang]:                  [  0.000000,  -0.000000,   0.259479]
    |<r_e - r_h>| [Ang]:            1.737826
    Hole size [Ang]:                1.740701
      Cartesian components [Ang]: [  0.834637,   0.864558,   1.259349]
    Electron size [Ang]:            3.397784
      Cartesian components [Ang]: [  2.281822,   1.562534,   1.974010]

  Transition density matrix analysis:
  -----------------------------------
  
  CT numbers (Mulliken)
    omega =     0.8568
    <Phe> =    -0.0000
  
  Exciton analysis of the transition density matrix
    Trans. dipole moment [D]:             0.000000
      Cartesian components [D]:         [ -0.000000,  -0.000000,   0.000000]
    <r_h> [Ang]:                        [ -0.000000,  -0.000000,  -1.704955]
    <r_e> [Ang]:                        [  0.000000,  -0.000000,   1.237853]
    |<r_e - r_h>| [Ang]:                  2.942807
    Hole size [Ang]:                      1.141028
      Cartesian components [Ang]:       [  0.480490,   0.820946,   0.630177]
    Electron size [Ang]:                  3.836089
      Cartesian components [Ang]:       [  2.837311,   1.926375,   1.718816]
    RMS electron-hole separation [Ang]:   4.957650
      Cartesian components [Ang]:       [  2.877311,   2.089098,   3.454714]
    Covariance(r_h, r_e) [Ang^2]:         0.049673
    Correlation coefficient:              0.011348
    Center-of-mass size [Ang]:            2.007291
      Cartesian components [Ang]:       [  1.439053,   1.049453,   0.925739]

  Decomposition into state-averaged NTOs
    H- 0 -> L+ 5:  0.6457 ( 83.4%)
                   omega =  85.7%
  ----------------------------------------------------------------------------


  Excited state 6 (singlet, A2)                                    [converged]
  ----------------------------------------------------------------------------
  Term symbol:  6 (1) A2                                    R^2 =  1.93846e-08

  Total energy:                                           -153.7053050385 a.u.
  Excitation energy:                                               7.213118 eV

  Osc. strength:                                                      0.000000
  Trans. dip. moment [a.u.]:           [   0.000000,    0.000000,   -0.000000]
  <i|r^2|0> [a.u.]:                    [  -0.000000,   -0.000000,   -0.000000]

  Dip. moment [a.u.]:                  [  -0.000000,   -0.000000,   -2.585864]
  Total dipole [Debye]:                                               6.572612
  <r^2> [a.u.]:                        [  74.187083,   37.420592,  203.891594]
  Total <r^2> [a.u.]:                                               315.499269

  V1^2 = 0.8771, V2^2 = 0.1229

  Important amplitudes:
      occ i      occ j       vir a       vir b          v   
    ---------------------------------------------------------
     7 (A1) A               1 (A2) A                  0.6123
     7 (A1) A               2 (A2) A                  0.2297
    ---------------------------------------------------------

  Density matrix analysis:
  ------------------------
  NOs
    Occupation of frontier NOs:
       0.9809   0.9971
    Number of electrons: 26.000000
    Number of unpaired electrons: n_u =  2.81469, n_u,nl =  2.13492
    NO participation ratio (PR_NO):  3.976132
  
  
  Mulliken Population Analysis
  Atom      Charge (e)              h+              e-           Del q
  --------------------------------------------------------------------
   1 C       -0.666592        0.063090       -0.511718       -0.448628
   2 C       -0.666592        0.063090       -0.511718       -0.448628
   3 H        0.155422        0.009011       -0.051678       -0.042666
   4 H        0.155422        0.009011       -0.051678       -0.042666
   5 H        0.051723        0.019788       -0.000102        0.019687
   6 H        0.051723        0.019788       -0.000102        0.019687
   7 O       -0.396696        1.151739       -0.474997        0.676741
   8 H        0.315588        0.281755       -0.015282        0.266473
  --------------------------------------------------------------------
  Sum:       -1.000000        1.617273       -1.617273        0.000000
  
  Multipole moment analysis of the density matrix
    Molecular charge:                      -1.000000
    Number of electrons:                   26.000000
      Center of electronic charge [Ang]: [  0.000000,   0.000000,   0.052630]
    Total nuclear charge:                  25.000000
      Center of nuclear charge [Ang]:    [  0.000000,   0.000000,  -0.000000]
    Dipole moment [D]:                     6.572610
      Cartesian components [D]:          [ -0.000000,  -0.000000,  -6.572610]
    RMS size of the density [Ang]:         1.842623
      Cartesian components [Ang]:        [  0.893879,   0.634848,   1.480949]
  
  Exciton analysis of the difference density matrix
    <r_h> [Ang]:                  [ -0.000000,  -0.000000,  -1.433025]
    <r_e> [Ang]:                  [  0.000000,   0.000000,   0.115501]
    |<r_e - r_h>| [Ang]:            1.548525
    Hole size [Ang]:                1.709963
      Cartesian components [Ang]: [  0.807217,   0.714587,   1.327305]
    Electron size [Ang]:            3.163733
      Cartesian components [Ang]: [  1.919417,   1.860525,   1.692185]

  Transition density matrix analysis:
  -----------------------------------
  
  CT numbers (Mulliken)
    omega =     0.8550
    <Phe> =    -0.0009
  
  Exciton analysis of the transition density matrix
    Trans. dipole moment [D]:             0.000000
      Cartesian components [D]:         [  0.000000,   0.000000,  -0.000000]
    <r_h> [Ang]:                        [ -0.000000,  -0.000000,  -1.644374]
    <r_e> [Ang]:                        [  0.000000,   0.000000,   0.991792]
    |<r_e - r_h>| [Ang]:                  2.636166
    Hole size [Ang]:                      1.215773
      Cartesian components [Ang]:       [  0.485570,   0.406490,   1.037831]
    Electron size [Ang]:                  3.561694
      Cartesian components [Ang]:       [  2.348574,   2.299353,   1.372167]
    RMS electron-hole separation [Ang]:   4.594400
      Cartesian components [Ang]:       [  2.397618,   2.336591,   3.146472]
    Covariance(r_h, r_e) [Ang^2]:         0.002314
    Correlation coefficient:              0.000534
    Center-of-mass size [Ang]:            1.882047
      Cartesian components [Ang]:       [  1.199435,   1.166711,   0.861533]

  Decomposition into state-averaged NTOs
    H- 3 -> L+ 3:  0.6354 ( 80.7%)
    H- 3 -> L+ 7: -0.1207 (  2.9%)
    H- 2 -> L+ 2:  0.0730 (  1.1%)
                   omega =  85.5%
  ----------------------------------------------------------------------------


  Excited state 7 (singlet, A2)                                    [converged]
  ----------------------------------------------------------------------------
  Term symbol:  7 (1) A2                                    R^2 =  3.13922e-09

  Total energy:                                           -153.7009702470 a.u.
  Excitation energy:                                               7.331074 eV

  Osc. strength:                                                      0.000000
  Trans. dip. moment [a.u.]:           [   0.000000,   -0.000000,   -0.000000]
  <i|r^2|0> [a.u.]:                    [   0.000000,    0.000000,    0.000000]

  Dip. moment [a.u.]:                  [  -0.000000,    0.000000,    1.859338]
  Total dipole [Debye]:                                               4.725966
  <r^2> [a.u.]:                        [  57.786031,   30.714106,  212.378987]
  Total <r^2> [a.u.]:                                               300.879124

  V1^2 = 0.9207, V2^2 = 0.0793

  Important amplitudes:
      occ i      occ j       vir a       vir b          v   
    ---------------------------------------------------------
     4 (B1) A               4 (B2) A                 -0.6443
     4 (B1) A               5 (B2) A                 -0.1901
    ---------------------------------------------------------

  Density matrix analysis:
  ------------------------
  NOs
    Occupation of frontier NOs:
       0.9854   0.9980
    Number of electrons: 26.000000
    Number of unpaired electrons: n_u =  2.69208, n_u,nl =  2.08791
    NO participation ratio (PR_NO):  3.641654
  
  
  Mulliken Population Analysis
  Atom      Charge (e)              h+              e-           Del q
  --------------------------------------------------------------------
   1 C       -0.219103        0.027429       -0.028567       -0.001139
   2 C       -0.219103        0.027429       -0.028567       -0.001139
   3 H        0.170359       -0.002173       -0.025557       -0.027730
   4 H        0.170359       -0.002173       -0.025557       -0.027730
   5 H        0.044534        0.013264       -0.000766        0.012497
   6 H        0.044534        0.013264       -0.000766        0.012497
   7 O       -1.145626        1.208741       -1.280930       -0.072189
   8 H        0.154047        0.124823       -0.019890        0.104932
  --------------------------------------------------------------------
  Sum:       -1.000000        1.410601       -1.410601       -0.000000
  
  Multipole moment analysis of the density matrix
    Molecular charge:                      -1.000000
    Number of electrons:                   26.000000
      Center of electronic charge [Ang]: [  0.000000,  -0.000000,  -0.037843]
    Total nuclear charge:                  25.000000
      Center of nuclear charge [Ang]:    [  0.000000,   0.000000,  -0.000000]
    Dipole moment [D]:                     4.725965
      Cartesian components [D]:          [ -0.000000,   0.000000,   4.725965]
    RMS size of the density [Ang]:         1.799760
      Cartesian components [Ang]:        [  0.788907,   0.575153,   1.511939]
  
  Exciton analysis of the difference density matrix
    <r_h> [Ang]:                  [ -0.000000,  -0.000000,  -1.591208]
    <r_e> [Ang]:                  [ -0.000000,  -0.000000,  -1.483389]
    |<r_e - r_h>| [Ang]:            0.107819
    Hole size [Ang]:                1.563816
      Cartesian components [Ang]: [  0.885500,   0.641526,   1.117969]
    Electron size [Ang]:            2.378833
      Cartesian components [Ang]: [  1.002544,   1.569544,   1.479960]

  Transition density matrix analysis:
  -----------------------------------
  
  CT numbers (Mulliken)
    omega =     0.8974
    <Phe> =    -0.0053
  
  Exciton analysis of the transition density matrix
    Trans. dipole moment [D]:             0.000000
      Cartesian components [D]:         [  0.000000,  -0.000000,  -0.000000]
    <r_h> [Ang]:                        [  0.000000,  -0.000000,  -1.733747]
    <r_e> [Ang]:                        [  0.000000,  -0.000000,  -1.589466]
    |<r_e - r_h>| [Ang]:                  0.144281
    Hole size [Ang]:                      1.104065
      Cartesian components [Ang]:       [  0.805735,   0.461724,   0.597127]
    Electron size [Ang]:                  2.641609
      Cartesian components [Ang]:       [  1.092677,   1.836064,   1.553391]
    RMS electron-hole separation [Ang]:   2.859401
      Cartesian components [Ang]:       [  1.354968,   1.892321,   1.661130]
    Covariance(r_h, r_e) [Ang^2]:         0.020850
    Correlation coefficient:              0.007149
    Center-of-mass size [Ang]:            1.435162
      Cartesian components [Ang]:       [  0.680141,   0.947069,   0.836754]

  Decomposition into state-averaged NTOs
    H- 2 -> L+ 2: -0.6500 ( 84.5%)
    H- 2 -> L+ 6: -0.1407 (  4.0%)
    H- 3 -> L+ 3:  0.0713 (  1.0%)
                   omega =  89.7%
  ----------------------------------------------------------------------------


  Excited state 8 (singlet, A2)                                    [converged]
  ----------------------------------------------------------------------------
  Term symbol:  8 (1) A2                                    R^2 =  4.02570e-09

  Total energy:                                           -153.6833423779 a.u.
  Excitation energy:                                               7.810752 eV

  Osc. strength:                                                      0.000000
  Trans. dip. moment [a.u.]:           [  -0.000000,    0.000000,   -0.000000]
  <i|r^2|0> [a.u.]:                    [  -0.000000,   -0.000000,   -0.000000]

  Dip. moment [a.u.]:                  [   0.000000,    0.000000,    2.434766]
  Total dipole [Debye]:                                               6.188558
  <r^2> [a.u.]:                        [  77.921791,   24.060421,  220.190685]
  Total <r^2> [a.u.]:                                               322.172897

  V1^2 = 0.9275, V2^2 = 0.0725

  Important amplitudes:
      occ i      occ j       vir a       vir b          v   
    ---------------------------------------------------------
     1 (B2) A               6 (B1) A                 -0.4797
     2 (B2) A               8 (B1) A                 -0.4224
    ---------------------------------------------------------

  Density matrix analysis:
  ------------------------
  NOs
    Occupation of frontier NOs:
       0.5652   1.3958
    Number of electrons: 26.000000
    Number of unpaired electrons: n_u =  2.73074, n_u,nl =  2.45875
    NO participation ratio (PR_NO):  6.559714
  
  
  Mulliken Population Analysis
  Atom      Charge (e)              h+              e-           Del q
  --------------------------------------------------------------------
   1 C       -0.328294        0.284905       -0.395235       -0.110330
   2 C       -0.328294        0.284905       -0.395235       -0.110330
   3 H        0.209863        0.036668       -0.024894        0.011775
   4 H        0.209863        0.036668       -0.024894        0.011775
   5 H        0.081003        0.065025       -0.016057        0.048967
   6 H        0.081003        0.065025       -0.016057        0.048967
   7 O       -1.038787        0.577499       -0.542848        0.034650
   8 H        0.113641        0.078562       -0.014035        0.064527
  --------------------------------------------------------------------
  Sum:       -1.000000        1.429256       -1.429256        0.000000
  
  Multipole moment analysis of the density matrix
    Molecular charge:                      -1.000000
    Number of electrons:                   26.000000
      Center of electronic charge [Ang]: [ -0.000000,  -0.000000,  -0.049555]
    Total nuclear charge:                  25.000000
      Center of nuclear charge [Ang]:    [  0.000000,   0.000000,  -0.000000]
    Dipole moment [D]:                     6.188556
      Cartesian components [D]:          [  0.000000,   0.000000,   6.188556]
    RMS size of the density [Ang]:         1.862110
      Cartesian components [Ang]:        [  0.916102,   0.509057,   1.539178]
  
  Exciton analysis of the difference density matrix
    <r_h> [Ang]:                  [ -0.000000,  -0.000000,  -0.270271]
    <r_e> [Ang]:                  [ -0.000000,  -0.000000,  -0.376909]
    |<r_e - r_h>| [Ang]:            0.106638
    Hole size [Ang]:                2.121212
      Cartesian components [Ang]: [  0.926244,   0.888585,   1.688795]
    Electron size [Ang]:            3.383303
      Cartesian components [Ang]: [  2.240792,   1.229261,   2.216869]

  Transition density matrix analysis:
  -----------------------------------
  
  CT numbers (Mulliken)
    omega =     0.9011
    <Phe> =    -0.0035
  
  Exciton analysis of the transition density matrix
    Trans. dipole moment [D]:             0.000000
      Cartesian components [D]:         [ -0.000000,   0.000000,  -0.000000]
    <r_h> [Ang]:                        [  0.000000,  -0.000000,  -0.277740]
    <r_e> [Ang]:                        [ -0.000000,  -0.000000,  -0.482198]
    |<r_e - r_h>| [Ang]:                  0.204458
    Hole size [Ang]:                      1.833934
      Cartesian components [Ang]:       [  0.643764,   0.852639,   1.490600]
    Electron size [Ang]:                  3.853672
      Cartesian components [Ang]:       [  2.627538,   1.414913,   2.438207]
    RMS electron-hole separation [Ang]:   3.878068
      Cartesian components [Ang]:       [  2.702726,   1.651475,   2.237703]
    Covariance(r_h, r_e) [Ang^2]:         1.608246
    Correlation coefficient:              0.227559
    Center-of-mass size [Ang]:            2.314659
      Cartesian components [Ang]:       [  1.353888,   0.826222,   1.685821]

  Decomposition into state-averaged NTOs
    H- 0 -> L+ 4: -0.4600 ( 42.3%)
    H- 1 -> L+ 0: -0.4310 ( 37.2%)
    H- 1 -> L+ 1: -0.2175 (  9.5%)
                   omega =  90.1%
  ----------------------------------------------------------------------------


  Excited state 9 (singlet, A2)                                    [converged]
  ----------------------------------------------------------------------------
  Term symbol:  9 (1) A2                                    R^2 =  3.78481e-09

  Total energy:                                           -153.6805205431 a.u.
  Excitation energy:                                               7.887538 eV

  Osc. strength:                                                      0.000000
  Trans. dip. moment [a.u.]:           [   0.000000,   -0.000000,   -0.000000]
  <i|r^2|0> [a.u.]:                    [  -0.000000,   -0.000000,   -0.000000]

  Dip. moment [a.u.]:                  [   0.000000,    0.000000,    2.292564]
  Total dipole [Debye]:                                               5.827118
  <r^2> [a.u.]:                        [  77.622379,   23.997666,  220.244017]
  Total <r^2> [a.u.]:                                               321.864062

  V1^2 = 0.9244, V2^2 = 0.0756

  Important amplitudes:
      occ i      occ j       vir a       vir b          v   
    ---------------------------------------------------------
     1 (B2) A               6 (B1) A                  0.4753
     2 (B2) A               8 (B1) A                 -0.4138
    ---------------------------------------------------------

  Density matrix analysis:
  ------------------------
  NOs
    Occupation of frontier NOs:
       0.5799   1.3901
    Number of electrons: 26.000000
    Number of unpaired electrons: n_u =  2.74042, n_u,nl =  2.46300
    NO participation ratio (PR_NO):  6.553570
  
  
  Mulliken Population Analysis
  Atom      Charge (e)              h+              e-           Del q
  --------------------------------------------------------------------
   1 C       -0.325846        0.262351       -0.370232       -0.107881
   2 C       -0.325846        0.262351       -0.370232       -0.107881
   3 H        0.203365        0.032009       -0.026733        0.005276
   4 H        0.203365        0.032009       -0.026733        0.005276
   5 H        0.081228        0.061887       -0.012696        0.049191
   6 H        0.081228        0.061887       -0.012696        0.049191
   7 O       -1.034881        0.631334       -0.592778        0.038556
   8 H        0.117387        0.082956       -0.014683        0.068273
  --------------------------------------------------------------------
  Sum:       -1.000000        1.426783       -1.426783        0.000000
  
  Multipole moment analysis of the density matrix
    Molecular charge:                      -1.000000
    Number of electrons:                   26.000000
      Center of electronic charge [Ang]: [ -0.000000,  -0.000000,  -0.046660]
    Total nuclear charge:                  25.000000
      Center of nuclear charge [Ang]:    [  0.000000,   0.000000,  -0.000000]
    Dipole moment [D]:                     5.827116
      Cartesian components [D]:          [  0.000000,   0.000000,   5.827116]
    RMS size of the density [Ang]:         1.861291
      Cartesian components [Ang]:        [  0.914340,   0.508392,   1.539455]
  
  Exciton analysis of the difference density matrix
    <r_h> [Ang]:                  [ -0.000000,  -0.000000,  -0.384041]
    <r_e> [Ang]:                  [ -0.000000,  -0.000000,  -0.438124]
    |<r_e - r_h>| [Ang]:            0.054082
    Hole size [Ang]:                2.113856
      Cartesian components [Ang]: [  0.911559,   0.891138,   1.686215]
    Electron size [Ang]:            3.375157
      Cartesian components [Ang]: [  2.223199,   1.226606,   2.223626]

  Transition density matrix analysis:
  -----------------------------------
  
  CT numbers (Mulliken)
    omega =     0.8988
    <Phe> =    -0.0032
  
  Exciton analysis of the transition density matrix
    Trans. dipole moment [D]:             0.000000
      Cartesian components [D]:         [  0.000000,  -0.000000,  -0.000000]
    <r_h> [Ang]:                        [  0.000000,  -0.000000,  -0.402120]
    <r_e> [Ang]:                        [ -0.000000,  -0.000000,  -0.530467]
    |<r_e - r_h>| [Ang]:                  0.128347
    Hole size [Ang]:                      1.825259
      Cartesian components [Ang]:       [  0.634483,   0.857063,   1.481366]
    Electron size [Ang]:                  3.841843
      Cartesian components [Ang]:       [  2.606563,   1.410467,   2.444620]
    RMS electron-hole separation [Ang]:   3.946672
      Cartesian components [Ang]:       [  2.680449,   1.649676,   2.381172]
    Covariance(r_h, r_e) [Ang^2]:         1.265791
    Correlation coefficient:              0.180509
    Center-of-mass size [Ang]:            2.270623
      Cartesian components [Ang]:       [  1.342449,   0.825609,   1.634604]

  Decomposition into state-averaged NTOs
    H- 0 -> L+ 4: -0.4716 ( 44.5%)
    H- 1 -> L+ 0:  0.4189 ( 35.1%)
    H- 1 -> L+ 1:  0.2159 (  9.3%)
                   omega =  89.9%
  ----------------------------------------------------------------------------


  Excited state 10 (singlet, A2)                                    [converged]
  ----------------------------------------------------------------------------
  Term symbol:  10 (1) A2                                   R^2 =  1.32214e-06

  Total energy:                                           -153.6423017150 a.u.
  Excitation energy:                                               8.927526 eV

  Osc. strength:                                                      0.000000
  Trans. dip. moment [a.u.]:           [   0.000000,   -0.000000,   -0.000000]
  <i|r^2|0> [a.u.]:                    [  -0.000000,   -0.000000,   -0.000000]

  Dip. moment [a.u.]:                  [  -0.000000,   -0.000000,   -2.184152]
  Total dipole [Debye]:                                               5.551562
  <r^2> [a.u.]:                        [  69.658749,   32.871864,  203.894920]
  Total <r^2> [a.u.]:                                               306.425533

  V1^2 = 0.8809, V2^2 = 0.1191

  Important amplitudes:
      occ i      occ j       vir a       vir b          v   
    ---------------------------------------------------------
     7 (A1) A               2 (A2) A                  0.5828
     7 (A1) A               1 (A2) A                 -0.2295
    ---------------------------------------------------------

  Density matrix analysis:
  ------------------------
  NOs
    Occupation of frontier NOs:
       0.9492   1.0327
    Number of electrons: 26.000000
    Number of unpaired electrons: n_u =  2.80619, n_u,nl =  2.14535
    NO participation ratio (PR_NO):  4.194748
  
  
  Mulliken Population Analysis
  Atom      Charge (e)              h+              e-           Del q
  --------------------------------------------------------------------
   1 C       -0.590587        0.133712       -0.506336       -0.372623
   2 C       -0.590587        0.133712       -0.506336       -0.372623
   3 H        0.149751        0.009618       -0.057956       -0.048337
   4 H        0.149751        0.009618       -0.057956       -0.048337
   5 H        0.026556        0.008424       -0.013904       -0.005481
   6 H        0.026556        0.008424       -0.013904       -0.005481
   7 O       -0.460469        1.017234       -0.404267        0.612967
   8 H        0.289030        0.253530       -0.013615        0.239916
  --------------------------------------------------------------------
  Sum:       -1.000000        1.574274       -1.574274        0.000000
  
  Multipole moment analysis of the density matrix
    Molecular charge:                      -1.000000
    Number of electrons:                   26.000000
      Center of electronic charge [Ang]: [  0.000000,   0.000000,   0.044454]
    Total nuclear charge:                  25.000000
      Center of nuclear charge [Ang]:    [  0.000000,   0.000000,  -0.000000]
    Dipole moment [D]:                     5.551560
      Cartesian components [D]:          [ -0.000000,  -0.000000,  -5.551560]
    RMS size of the density [Ang]:         1.816130
      Cartesian components [Ang]:        [  0.866168,   0.595013,   1.481229]
  
  Exciton analysis of the difference density matrix
    <r_h> [Ang]:                  [ -0.000000,  -0.000000,  -1.236134]
    <r_e> [Ang]:                  [  0.000000,  -0.000000,   0.219657]
    |<r_e - r_h>| [Ang]:            1.455790
    Hole size [Ang]:                1.771255
      Cartesian components [Ang]: [  0.807027,   0.689499,   1.417970]
    Electron size [Ang]:            2.861104
      Cartesian components [Ang]: [  1.720813,   1.642501,   1.589625]

  Transition density matrix analysis:
  -----------------------------------
  
  CT numbers (Mulliken)
    omega =     0.8533
    <Phe> =    -0.0038
  
  Exciton analysis of the transition density matrix
    Trans. dipole moment [D]:             0.000000
      Cartesian components [D]:         [  0.000000,  -0.000000,  -0.000000]
    <r_h> [Ang]:                        [ -0.000000,  -0.000000,  -1.360754]
    <r_e> [Ang]:                        [  0.000000,  -0.000000,   1.027832]
    |<r_e - r_h>| [Ang]:                  2.388587
    Hole size [Ang]:                      1.456868
      Cartesian components [Ang]:       [  0.583885,   0.404379,   1.272014]
    Electron size [Ang]:                  3.069280
      Cartesian components [Ang]:       [  2.044370,   1.978914,   1.151056]
    RMS electron-hole separation [Ang]:   4.148618
      Cartesian components [Ang]:       [  2.120166,   2.018545,   2.939627]
    Covariance(r_h, r_e) [Ang^2]:         0.018627
    Correlation coefficient:              0.004166
    Center-of-mass size [Ang]:            1.701484
      Cartesian components [Ang]:       [  1.066025,   1.010535,   0.858755]

  Decomposition into state-averaged NTOs
    H- 3 -> L+ 7:  0.6223 ( 77.5%)
    H- 4 -> L+ 3:  0.1489 (  4.4%)
    H- 3 -> L+ 3:  0.1230 (  3.0%)
                   omega =  85.3%
  ----------------------------------------------------------------------------


--------------------------------------------------------------------------------
  Time of ADC calculation:  CPU 233.38 s  wall 62.91 s
================================================================================
 
 --------------------------------------------------------------
             Orbital Energies (a.u.) and Symmetries
 --------------------------------------------------------------
 
 Alpha MOs, Restricted
 -- Occupied --                  
-20.213 -11.049 -11.047  -0.930  -0.854  -0.598  -0.473  -0.384
  1 A1    2 A1    1 B1    3 A1    4 A1    2 B1    5 A1    6 A1                 
 -0.328  -0.271  -0.194  -0.130  -0.129
  3 B1    7 A1    1 B2    4 B1    2 B2                                         
 -- Virtual --                   
  0.172   0.183   0.207   0.210   0.215   0.228   0.290   0.327
  5 B1    8 A1    3 B2    9 A1    1 A2    6 B1   10 A1   11 A1                 
  0.333   0.340   0.421   0.440   0.446   0.459   0.479   0.486
  2 A2    7 B1   12 A1    4 B2    8 B1   13 A1    9 B1    5 B2                 
  0.501   0.510   0.558   0.560   0.574   0.577   0.697   0.727
 10 B1   14 A1   11 B1    3 A2   15 A1   16 A1   17 A1   12 B1                 
  0.791   0.983   1.034   1.108   1.115   1.129   1.196   1.209
 13 B1   18 A1   19 A1   20 A1   21 A1   14 B1    6 B2   15 B1                 
  1.245   1.252   1.283   1.291   1.296   1.331   1.332   1.337
  7 B2   22 A1    4 A2    5 A2   16 B1   17 B1   23 A1   24 A1                 
  1.370   1.454   1.472   1.483   1.632   1.661   1.718   1.720
  8 B2   18 B1    9 B2    6 A2   19 B1   25 A1   20 B1   10 B2                 
  1.871   1.933   2.028   2.060   2.125   2.130   2.170   2.212
 26 A1   21 B1   27 A1    7 A2   28 A1   11 B2   22 B1   12 B2                 
  2.252   2.329   2.365   2.394   2.437   2.526   2.576   2.604
 29 A1   30 A1    8 A2   13 B2   23 B1   24 B1   31 A1    9 A2                 
  2.766   2.777   2.853   3.033   3.047   3.114   3.450   3.564
 32 A1   25 B1   26 B1   33 A1   34 A1   35 A1   27 B1   28 B1                 
  3.923   3.946   3.972   4.090   4.545
 14 B2   10 A2   36 A1   29 B1   37 A1                                         
 
 Beta MOs, Restricted
 -- Occupied --                  
-20.213 -11.049 -11.047  -0.930  -0.854  -0.598  -0.473  -0.384
  1 A1    2 A1    1 B1    3 A1    4 A1    2 B1    5 A1    6 A1                 
 -0.328  -0.271  -0.194  -0.130  -0.129
  3 B1    7 A1    1 B2    4 B1    2 B2                                         
 -- Virtual --                   
  0.172   0.183   0.207   0.210   0.215   0.228   0.290   0.327
  5 B1    8 A1    3 B2    9 A1    1 A2    6 B1   10 A1   11 A1                 
  0.333   0.340   0.421   0.440   0.446   0.459   0.479   0.486
  2 A2    7 B1   12 A1    4 B2    8 B1   13 A1    9 B1    5 B2                 
  0.501   0.510   0.558   0.560   0.574   0.577   0.697   0.727
 10 B1   14 A1   11 B1    3 A2   15 A1   16 A1   17 A1   12 B1                 
  0.791   0.983   1.034   1.108   1.115   1.129   1.196   1.209
 13 B1   18 A1   19 A1   20 A1   21 A1   14 B1    6 B2   15 B1                 
  1.245   1.252   1.283   1.291   1.296   1.331   1.332   1.337
  7 B2   22 A1    4 A2    5 A2   16 B1   17 B1   23 A1   24 A1                 
  1.370   1.454   1.472   1.483   1.632   1.661   1.718   1.720
  8 B2   18 B1    9 B2    6 A2   19 B1   25 A1   20 B1   10 B2                 
  1.871   1.933   2.028   2.060   2.125   2.130   2.170   2.212
 26 A1   21 B1   27 A1    7 A2   28 A1   11 B2   22 B1   12 B2                 
  2.252   2.329   2.365   2.394   2.437   2.526   2.576   2.604
 29 A1   30 A1    8 A2   13 B2   23 B1   24 B1   31 A1    9 A2                 
  2.766   2.777   2.853   3.033   3.047   3.114   3.450   3.564
 32 A1   25 B1   26 B1   33 A1   34 A1   35 A1   27 B1   28 B1                 
  3.923   3.946   3.972   4.090   4.545
 14 B2   10 A2   36 A1   29 B1   37 A1                                         
 --------------------------------------------------------------
 
          Ground-State Mulliken Net Atomic Charges

     Atom                 Charge (a.u.)
  ----------------------------------------
      1 C                    -0.215999
      2 C                    -0.215999
      3 H                     0.194208
      4 H                     0.194208
      5 H                     0.025141
      6 H                     0.025141
      7 O                    -1.072259
      8 H                     0.065560
  ----------------------------------------
  Sum of atomic charges =    -1.000000

 -----------------------------------------------------------------
                    Cartesian Multipole Moments
 -----------------------------------------------------------------
    Charge (ESU x 10^10)
                -4.8032
    Dipole Moment (Debye)
         X      -0.0000      Y       0.0000      Z       5.2841
       Tot       5.2841
    Quadrupole Moments (Debye-Ang)
        XX     -23.6598     XY       0.0000     YY     -26.5100
        XZ      -0.0000     YZ      -0.0000     ZZ     -32.8888
    Octopole Moments (Debye-Ang^2)
       XXX       0.0000    XXY       0.0000    XYY      -0.0000
       YYY       0.0000    XXZ       1.0371    XYZ       0.0000
       YYZ      -0.1419    XZZ      -0.0000    YZZ       0.0000
       ZZZ       6.3543
    Hexadecapole Moments (Debye-Ang^3)
      XXXX     -87.8190   XXXY      -0.0000   XXYY     -21.8064
      XYYY      -0.0000   YYYY     -40.1402   XXXZ       0.0000
      XXYZ      -0.0000   XYYZ      -0.0000   YYYZ      -0.0000
      XXZZ     -70.4675   XYZZ      -0.0000   YYZZ     -65.3989
      XZZZ      -0.0000   YZZZ      -0.0000   ZZZZ    -292.6717
 -----------------------------------------------------------------
 Total job time:  171.65s(wall), 282.25s(cpu) 
 Wed Mar  2 22:06:54 2022

        *************************************************************
        *                                                           *
        *  Thank you very much for using Q-Chem.  Have a nice day.  *
        *                                                           *
        *************************************************************


