/src/tsommerfeld/qchem/exe/qcprog.exe .input2.121212.29995.qcin.1 /src/jdavis/qchem.scratch/qchem29995/

                  Welcome to Q-Chem
     A Quantum Leap Into The Future Of Chemistry


 Q-Chem 5.4 (devel), Q-Chem, Inc., Pleasanton, CA (2021)

 E. Epifanovsky,  A. T. B. Gilbert,  Xintian Feng,  Joonho Lee,  Yuezhi Mao,  
 N. Mardirossian,  P. Pokhilko,  A. White,  M. Wormit,  M. P. Coons,  
 A. L. Dempwolff,  Zhengting Gan,  D. Hait,  P. R. Horn,  L. D. Jacobson,  
 I. Kaliman,  J. Kussmann,  A. W. Lange,  Ka Un Lao,  D. S. Levine,  Jie Liu,  
 S. C. McKenzie,  A. F. Morrison,  K. Nanda,  F. Plasser,  D. R. Rehn,  
 M. L. Vidal,  Zhi-Qiang You,  Ying Zhu,  B. Alam,  B. Albrecht,  
 A. Aldossary,  E. Alguire,  J. H. Andersen,  D. Barton,  K. Begam,  A. Behn,  
 Y. A. Bernard,  E. J. Berquist,  H. Burton,  A. Carreras,  K. Carter-Fenk,  
 R. Chakraborty,  A. D. Chien,  K. D. Closser,  V. Cofer-Shabica,  
 S. Dasgupta,  Jia Deng,  M. de Wergifosse,  M. Diedenhofen,  Hainam Do,  
 S. Ehlert,  Po-Tung Fang,  S. Fatehi,  Qingguo Feng,  T. Friedhoff,  
 J. Gayvert,  Qinghui Ge,  G. Gidofalvi,  M. Goldey,  J. Gomes,  
 C. Gonzalez-Espinoza,  S. Gulania,  A. Gunina,  M. W. D. Hanson-Heine,  
 P. H. P. Harbach,  A. W. Hauser,  M. F. Herbst,  M. Hernandez Vera,  
 M. Hodecker,  Z. C. Holden,  S. Houck,  Xunkun Huang,  Kerwin Hui,  
 B. C. Huynh,  M. Ivanov,  Hyunjun Ji,  Hanjie Jiang,  B. Kaduk,  S. Kaehler,  
 K. Khistyaev,  Jaehoon Kim,  P. Klunzinger,  Z. Koczor-Benda,  
 Joong Hoon Koh,  D. Kosenkov,  L. Koulias,  T. Kowalczyk,  C. M. Krauter,  
 K. Kue,  A. Kunitsa,  T. Kus,  A. Landau,  K. V. Lawler,  D. Lefrancois,  
 S. Lehtola,  Rain Li,  Yi-Pei Li,  Jiashu Liang,  M. Liebenthal,  
 Hung-Hsuan Lin,  You-Sheng Lin,  Fenglai Liu,  Kuan-Yu Liu,  
 M. Loipersberger,  A. Luenser,  A. Manjanath,  P. Manohar,  E. Mansoor,  
 S. F. Manzer,  Shan-Ping Mao,  A. V. Marenich,  T. Markovich,  S. Mason,  
 S. A. Maurer,  P. F. McLaughlin,  M. F. S. J. Menger,  J.-M. Mewes,  
 S. A. Mewes,  P. Morgante,  J. W. Mullinax,  K. J. Oosterbaan,  G. Paran,  
 Alexander C. Paul,  Suranjan K. Paul,  F. Pavosevic,  Zheng Pei,  S. Prager,  
 E. I. Proynov,  E. Ramos,  B. Rana,  A. E. Rask,  A. Rettig,  R. M. Richard,  
 F. Rob,  E. Rossomme,  T. Scheele,  M. Scheurer,  M. Schneider,  
 N. Sergueev,  S. M. Sharada,  W. Skomorowski,  D. W. Small,  C. J. Stein,  
 Yu-Chuan Su,  E. J. Sundstrom,  Zhen Tao,  J. Thirman,  T. Tsuchimochi,  
 N. M. Tubman,  S. P. Veccham,  O. Vydrov,  J. Wenzel,  J. Witte,  A. Yamada,  
 Kun Yao,  S. Yeganeh,  S. R. Yost,  A. Zech,  Igor Ying Zhang,  Xing Zhang,  
 Yu Zhang,  D. Zuev,  A. Aspuru-Guzik,  A. T. Bell,  N. A. Besley,  
 K. B. Bravaya,  B. R. Brooks,  D. Casanova,  Jeng-Da Chai,  S. Coriani,  
 C. J. Cramer,  A. E. DePrince, III,  R. A. DiStasio Jr.,  A. Dreuw,  
 B. D. Dunietz,  T. R. Furlani,  W. A. Goddard III,  S. Grimme,  
 S. Hammes-Schiffer,  T. Head-Gordon,  W. J. Hehre,  Chao-Ping Hsu,  
 T.-C. Jagau,  Yousung Jung,  A. Klamt,  Jing Kong,  D. S. Lambrecht,  
 WanZhen Liang,  N. J. Mayhall,  C. W. McCurdy,  J. B. Neaton,  
 C. Ochsenfeld,  J. A. Parkhill,  R. Peverati,  V. A. Rassolov,  Yihan Shao,  
 L. V. Slipchenko,  T. Stauch,  R. P. Steele,  J. E. Subotnik,  
 A. J. W. Thom,  A. Tkatchenko,  D. G. Truhlar,  T. Van Voorhis,  
 T. A. Wesolowski,  K. B. Whaley,  H. L. Woodcock III,  P. M. Zimmerman,  
 S. Faraji,  P. M. W. Gill,  M. Head-Gordon,  J. M. Herbert,  A. I. Krylov

 Additional authors for Version 5.4.1: 
 S. Kotaru,  Shaozhi Li,  Xiangyuan Li,  F. Matz,  A. Molle,  Haisheng Ren,  
 Yingli Su,  Hung-Yi Tsai,  C. Utku,  Fang Wang

 Contributors to earlier versions of Q-Chem not listed above: 
 R. D. Adamson,  B. Austin,  R. Baer,  J. Baker,  G. J. O. Beran,  
 K. Brandhorst,  S. T. Brown,  E. F. C. Byrd,  A. K. Chakraborty,  
 G. K. L. Chan,  Chun-Min Chang,  Yunqing Chen,  C.-L. Cheng,  
 Siu Hung Chien,  D. M. Chipman,  D. L. Crittenden,  H. Dachsel,  
 R. J. Doerksen,  A. D. Dutoi,  R. G. Edgar,  J. Fosso-Tande,  
 L. Fusti-Molnar,  D. Ghosh,  A. Ghysels,  A. Golubeva-Zadorozhnaya,  
 J. Gonthier,  M. S. Gordon,  S. R. Gwaltney,  G. Hawkins,  J. E. Herr,  
 A. Heyden,  S. Hirata,  E. G. Hohenstein,  G. Kedziora,  F. J. Keil,  
 C. Kelley,  Jihan Kim,  R. A. King,  R. Z. Khaliullin,  P. P. Korambath,  
 W. Kurlancheek,  A. Laurent,  A. M. Lee,  M. S. Lee,  S. V. Levchenko,  
 Ching Yeh Lin,  D. Liotard,  E. Livshits,  R. C. Lochan,  I. Lotan,  
 L. A. Martinez-Martinez,  P. E. Maslen,  N. Nair,  D. P. O'Neill,  
 D. Neuhauser,  E. Neuscamman,  C. M. Oana,  R. Olivares-Amaya,  R. Olson,  
 T. M. Perrine,  B. Peters,  P. A. Pieniazek,  A. Prociuk,  Y. M. Rhee,  
 J. Ritchie,  M. A. Rohrdanz,  E. Rosta,  N. J. Russ,  H. F. Schaefer III,  
 M. W. Schmidt,  N. E. Schultz,  S. Sharma,  N. Shenvi,  C. D. Sherrill,  
 A. C. Simmonett,  A. Sodt,  T. Stein,  D. Stuck,  K. S. Thanthiriwatte,  
 V. Vanovschi,  L. Vogt,  Tao Wang,  A. Warshel,  M. A. Watson,  
 C. F. Williams,  Q. Wu,  X. Xu,  Jun Yang,  W. Zhang,  Yan Zhao

 Please cite Q-Chem as follows:
 Y. Shao et al., Mol. Phys. 113, 184-215 (2015)
 DOI: 10.1080/00268976.2014.952696

 Q-Chem 5.4.1 for Intel X86 EM64T Linux

 Parts of Q-Chem use Armadillo 9.900.5 (Nocturnal Misbehaviour).
 http://arma.sourceforge.net/

 Q-Chem begins on Wed Mar  2 22:35:16 2022  

 Host: node01
0

     Scratch files written to /src/jdavis/qchem.scratch/qchem29995//
 Processing $rem in /src/tsommerfeld/qchem/config/preferences:
 Processing $rem in /home/jdavis/.qchemrc:

 Checking the input file for inconsistencies... 	...done.

--------------------------------------------------------------
User input:
--------------------------------------------------------------
$molecule
-1 1
C        -0.6645000000    0.0000000000    1.1619088658
C         0.6645000000    0.0000000000    1.1619088658
H        -1.1590800000    0.0000000000    0.1995598658
H         1.1590800000    0.0000000000    0.1995598658
H        -1.1590800000    0.0000000000    2.1242568658
H         1.1590800000    0.0000000000    2.1242568658
O         0.0000000000    0.0000000000   -1.5841414040
H         0.0000000000    0.0000000000   -2.5471307683
$end
$rem
   METHOD adc(2)
   BASIS gen
   PURECART 11
   EE_STATES [0,10,0,0]
   scf_convergence 8
   ADC_DAVIDSON_MAXITER 120
   ADC_DAVIDSON_MAXSUBSPACE 200
   adc_nguess_singles 100
   THRESH 14
   S2THRESH 14
   adc_davidson_conv 5
   adc_davidson_thresh 14
   THREADS 10
   MEM_TOTAL 95000
   STATE_ANALYSIS TRUE
$end
$basis
C 1
S   9   1.00
      6.665000D+03           6.920000D-04
      1.000000D+03           5.329000D-03
      2.280000D+02           2.707700D-02
      6.471000D+01           1.017180D-01
      2.106000D+01           2.747400D-01
      7.495000D+00           4.485640D-01
      2.797000D+00           2.850740D-01
      5.215000D-01           1.520400D-02
      1.596000D-01          -3.191000D-03
S   9   1.00
      6.665000D+03          -1.460000D-04
      1.000000D+03          -1.154000D-03
      2.280000D+02          -5.725000D-03
      6.471000D+01          -2.331200D-02
      2.106000D+01          -6.395500D-02
      7.495000D+00          -1.499810D-01
      2.797000D+00          -1.272620D-01
      5.215000D-01           5.445290D-01
      1.596000D-01           5.804960D-01
S   1   1.00
      1.596000D-01           1.000000D+00
S   1   1.00
      0.0469000              1.0000000
P   4   1.00
      9.439000D+00           3.810900D-02
      2.002000D+00           2.094800D-01
      5.456000D-01           5.085570D-01
      1.517000D-01           4.688420D-01
P   1   1.00
      1.517000D-01           1.000000D+00
P   1   1.00
      0.0919394      1.0000000
P   1   1.00
      0.0459697      1.0000000
D   1   1.00
      5.500000D-01           1.0000000
****
C 2
S   9   1.00
      6.665000D+03           6.920000D-04
      1.000000D+03           5.329000D-03
      2.280000D+02           2.707700D-02
      6.471000D+01           1.017180D-01
      2.106000D+01           2.747400D-01
      7.495000D+00           4.485640D-01
      2.797000D+00           2.850740D-01
      5.215000D-01           1.520400D-02
      1.596000D-01          -3.191000D-03
S   9   1.00
      6.665000D+03          -1.460000D-04
      1.000000D+03          -1.154000D-03
      2.280000D+02          -5.725000D-03
      6.471000D+01          -2.331200D-02
      2.106000D+01          -6.395500D-02
      7.495000D+00          -1.499810D-01
      2.797000D+00          -1.272620D-01
      5.215000D-01           5.445290D-01
      1.596000D-01           5.804960D-01
S   1   1.00
      1.596000D-01           1.000000D+00
S   1   1.00
      0.0469000              1.0000000
P   4   1.00
      9.439000D+00           3.810900D-02
      2.002000D+00           2.094800D-01
      5.456000D-01           5.085570D-01
      1.517000D-01           4.688420D-01
P   1   1.00
      1.517000D-01           1.000000D+00
P   1   1.00
      0.0919394      1.0000000
P   1   1.00
      0.0459697      1.0000000
D   1   1.00
      5.500000D-01           1.0000000
****
H 3
cc-pVDZ
****
H 4
cc-pVDZ
****
H 5
cc-pVDZ
****
H 6
cc-pVDZ
****
O 7
aug-cc-pVDZ
****
H 8
cc-pVDZ
****
$end
--------------------------------------------------------------
 ----------------------------------------------------------------
             Standard Nuclear Orientation (Angstroms)
    I     Atom           X                Y                Z
 ----------------------------------------------------------------
    1      C      -0.6645000000    -0.0000000000     1.0270977517
    2      C       0.6645000000     0.0000000000     1.0270977517
    3      H      -1.1590800000    -0.0000000000     0.0647487517
    4      H       1.1590800000     0.0000000000     0.0647487517
    5      H      -1.1590800000    -0.0000000000     1.9894457517
    6      H       1.1590800000     0.0000000000     1.9894457517
    7      O       0.0000000000    -0.0000000000    -1.7189525181
    8      H       0.0000000000    -0.0000000000    -2.6819418824
 ----------------------------------------------------------------
 Molecular Point Group                 C2v   NOp =  4
 Largest Abelian Subgroup              C2v   NOp =  4
 Nuclear Repulsion Energy =          64.38561153 hartrees
 There are       13 alpha and       13 beta electrons
 Requested basis set is non-standard
 There are 42 shells and 90 basis functions
 Total memory of 95000 MB is distributed as follows: 
   MEM_STATIC is set to 192 MB
   QALLOC/CCMAN JOB total memory use is  94808 MB
 Warning: actual memory use might exceed 95000 MB

 Total QAlloc Memory Limit  95000 MB
 Mega-Array Size       188 MB
 MEM_STATIC part       192 MB

                       Distance Matrix (Angstroms)
             C (  1)   C (  2)   H (  3)   H (  4)   H (  5)   H (  6)
   C (  2)  1.329000
   H (  3)  1.082000  2.061931
   H (  4)  2.061931  1.082000  2.318160
   H (  5)  1.082000  2.061931  1.924697  3.013026
   H (  6)  2.061931  1.082000  3.013026  1.924697  2.318160
   O (  7)  2.825306  2.825306  2.127218  2.127218  3.885316  3.885316
   H (  8)  3.768094  3.768094  2.981237  2.981237  4.813037  4.813037
             O (  7)
   H (  8)  0.962989
 
 A cutoff of  1.0D-14 yielded    903 shell pairs
 There are      4183 function pairs (      4573 Cartesian)
 Smallest overlap matrix eigenvalue = 1.65E-04

 Scale SEOQF with 1.000000e-01/1.000000e-01/1.000000e-01

 Standard Electronic Orientation quadrupole field applied
 Nucleus-field energy     =    -0.0000000051 hartrees
 ================ Generating on-the-fly SAD Guess ================
Attempting to make child job directory: /src/jdavis/qchem.scratch/qchem29995//Frg1/
Attempting to make child job directory: /src/jdavis/qchem.scratch/qchem29995//Frg2/
Attempting to make child job directory: /src/jdavis/qchem.scratch/qchem29995//Frg3/
Creating input file /src/jdavis/qchem.scratch/qchem29995/Frg1.input
using default PutDataFrgm: nothing
calling putenv with: QCSCRATCH=/src/jdavis/qchem.scratch/qchem29995/ 
Spawning Job For Fragment 0
Done Job For Fragment 0
calling putenv with: QCSCRATCH=/src/jdavis/qchem.scratch 
calling putenv with: QCTHREADS=1 
Creating input file /src/jdavis/qchem.scratch/qchem29995/Frg2.input
using default PutDataFrgm: nothing
calling putenv with: QCSCRATCH=/src/jdavis/qchem.scratch/qchem29995/ 
Spawning Job For Fragment 1
Done Job For Fragment 1
calling putenv with: QCSCRATCH=/src/jdavis/qchem.scratch 
calling putenv with: QCTHREADS=1 
Creating input file /src/jdavis/qchem.scratch/qchem29995/Frg3.input
using default PutDataFrgm: nothing
calling putenv with: QCSCRATCH=/src/jdavis/qchem.scratch/qchem29995/ 
Spawning Job For Fragment 2
Done Job For Fragment 2
calling putenv with: QCSCRATCH=/src/jdavis/qchem.scratch 
calling putenv with: QCTHREADS=1 
 Time for running child jobs:  CPU 1.76 s  wall 80.47 s
 ============= Method Specific SAD Guess Constructed =============
 Guess from on-the-fly superposition of atomic densities
 Warning: Energy on first SCF cycle will be non-variational
 A restricted Hartree-Fock SCF calculation will be
 performed using Pulay DIIS extrapolation
 SCF converges when DIIS error is below 1.0E-08
 using 10 threads for integral computing
 -------------------------------------------------------
 OpenMP Integral computing Module                
 Release: version 1.0, May 2013, Q-Chem Inc. Pittsburgh 
 -------------------------------------------------------
 ---------------------------------------
  Cycle       Energy         DIIS Error
 ---------------------------------------
    1    -153.5758462788      5.99E-02
    2    -153.2901011306      1.22E-02
    3    -153.3572324894      1.02E-02
    4    -153.4405742907      7.49E-04
    5    -153.4414845942      2.11E-04
    6    -153.4415570360      4.59E-05
    7    -153.4415622727      1.20E-05
    8    -153.4415628203      3.60E-06
    9    -153.4415628676      7.48E-07
   10    -153.4415628692      1.28E-07
   11    -153.4415628693      3.42E-08
   12    -153.4415628693      9.57E-09 Convergence criterion met
 ---------------------------------------
 SCF time:  CPU 13.46 s  wall 1.35 s
 SCF   energy in the final basis set = -153.44156287
 Total energy in the final basis set = -153.44156287
================================================================================
|                                                                              |
|                                 A D C  M A N                                 |
|                                                                              |
 ------------------------------------------------------------------------------ 
|                                                                              |
| Components:                                                                  |
|                                                                              |
| - libvmm - 1.3-trunk                                                         |
|   Authors:                                                                   |
|   Evgeny Epifanovsky, Ilya Kaliman                                           |
|                                                                              |
| - libtensor - 2.5-trunk                                                      |
|   Authors:                                                                   |
|   Evgeny Epifanovsky, Michael Wormit, Dmitry Zuev, Sam Manzer,               |
|   Ilya Kaliman                                                               |
|                                                                              |
| - libwfa - 1.1-trunk                                                         |
|   Authors:                                                                   |
|   Felix Plasser, Stefanie Mewes (Baeppler), Benjamin Thomitzni,              |
|   Michael Wormit, Feng Chen, Anna I. Krylov, Pavel Pokhilko                  |
|                                                                              |
| - libadc - 1.1-trunk                                                         |
|   Authors:                                                                   |
|   Michael Wormit, Adrian L. Dempwolff, Philipp H. P. Harbach,                |
|   Caroline Krauter, Dirk Rehn, Matthias Schneider, Jan Wenzel                |
|                                                                              |
| - adcman - 2.6-trunk                                                         |
|   Authors:                                                                   |
|   Michael Wormit, Adrian L. Dempwolff, Philipp H. P. Harbach,                |
|   Caroline Krauter, Daniel Lefrancois, Jan-Michael Mewes, Dirk Rehn,         |
|   Matthias Schneider, Jan Wenzel, Andreas Dreuw                              |
|                                                                              |
| Authors of earlier versions of ADCMAN:                                       |
| Andreas Dreuw, Jan Hendrik Starcke, Dirk Rehn, Michael Wormit                |
|                                                                              |
================================================================================

 
 Alpha MOs, Restricted
 -- Occupied --                  
-20.213 -11.049 -11.047  -0.930  -0.854  -0.598  -0.473  -0.384
  1 A1    2 A1    1 B1    3 A1    4 A1    2 B1    5 A1    6 A1                 
 -0.328  -0.271  -0.194  -0.130  -0.128
  3 B1    7 A1    1 B2    4 B1    2 B2                                         
 -- Virtual --                   
  0.202   0.204   0.240   0.241   0.241   0.269   0.300   0.336
  8 A1    5 B1    3 B2    9 A1    1 A2    6 B1   10 A1   11 A1                 
  0.358   0.366   0.444   0.459   0.463   0.502   0.505   0.535
  2 A2    7 B1    4 B2   12 A1    8 B1   13 A1    9 B1   14 A1                 
  0.536   0.561   0.577   0.607   0.612   0.643   0.714   0.715
 10 B1    5 B2   15 A1   11 B1   16 A1    3 A2   12 B1   17 A1                 
  0.805   1.001   1.039   1.122   1.137   1.200   1.202   1.222
 13 B1   18 A1   19 A1   14 B1   20 A1    6 B2   15 B1   21 A1                 
  1.291   1.304   1.322   1.336   1.346   1.348   1.354   1.375
  4 A2   22 A1   16 B1   23 A1   17 B1   24 A1    7 B2    8 B2                 
  1.407   1.482   1.483   1.510   1.668   1.678   1.719   1.806
  5 A2    9 B2    6 A2   18 B1   19 B1   25 A1   10 B2   20 B1                 
  1.880   1.977   2.042   2.070   2.132   2.137   2.188   2.213
 26 A1   21 B1   27 A1    7 A2   11 B2   28 A1   22 B1   12 B2                 
  2.277   2.352   2.370   2.395   2.439   2.534   2.583   2.604
 29 A1   30 A1    8 A2   13 B2   23 B1   24 B1   31 A1    9 A2                 
  2.753   2.771   2.856   3.049   3.086   3.136   3.478   3.576
 25 B1   32 A1   26 B1   33 A1   34 A1   35 A1   27 B1   28 B1                 
  3.923   3.946   3.972   4.089   4.547
 14 B2   10 A2   36 A1   29 B1   37 A1                                         
 
 Beta MOs, Restricted
 -- Occupied --                  
-20.213 -11.049 -11.047  -0.930  -0.854  -0.598  -0.473  -0.384
  1 A1    2 A1    1 B1    3 A1    4 A1    2 B1    5 A1    6 A1                 
 -0.328  -0.271  -0.194  -0.130  -0.128
  3 B1    7 A1    1 B2    4 B1    2 B2                                         
 -- Virtual --                   
  0.202   0.204   0.240   0.241   0.241   0.269   0.300   0.336
  8 A1    5 B1    3 B2    9 A1    1 A2    6 B1   10 A1   11 A1                 
  0.358   0.366   0.444   0.459   0.463   0.502   0.505   0.535
  2 A2    7 B1    4 B2   12 A1    8 B1   13 A1    9 B1   14 A1                 
  0.536   0.561   0.577   0.607   0.612   0.643   0.714   0.715
 10 B1    5 B2   15 A1   11 B1   16 A1    3 A2   12 B1   17 A1                 
  0.805   1.001   1.039   1.122   1.137   1.200   1.202   1.222
 13 B1   18 A1   19 A1   14 B1   20 A1    6 B2   15 B1   21 A1                 
  1.291   1.304   1.322   1.336   1.346   1.348   1.354   1.375
  4 A2   22 A1   16 B1   23 A1   17 B1   24 A1    7 B2    8 B2                 
  1.407   1.482   1.483   1.510   1.668   1.678   1.719   1.806
  5 A2    9 B2    6 A2   18 B1   19 B1   25 A1   10 B2   20 B1                 
  1.880   1.977   2.042   2.070   2.132   2.137   2.188   2.213
 26 A1   21 B1   27 A1    7 A2   11 B2   28 A1   22 B1   12 B2                 
  2.277   2.352   2.370   2.395   2.439   2.534   2.583   2.604
 29 A1   30 A1    8 A2   13 B2   23 B1   24 B1   31 A1    9 A2                 
  2.753   2.771   2.856   3.049   3.086   3.136   3.478   3.576
 25 B1   32 A1   26 B1   33 A1   34 A1   35 A1   27 B1   28 B1                 
  3.923   3.946   3.972   4.089   4.547
 14 B2   10 A2   36 A1   29 B1   37 A1                                         

--------------------------------------------------------------------------------
                                   HF Summary                                   
--------------------------------------------------------------------------------
  Energy:                                                 -153.4415628693 a.u.
  Dip. moment [a.u.]:                  [  -0.000000,   -0.000000,    2.077538]
  Total dipole [Debye]:                                               5.280576
  <r^2> [a.u.]:                        [  55.673678,   19.717921,  208.039554]
  Total <r^2> [a.u.]:                                               283.431153
--------------------------------------------------------------------------------

--------------------------------------------------------------------------------
                                 MP(2) Summary                                  
--------------------------------------------------------------------------------
  MP energy contribution:                                   -0.5299994722 a.u.
  Total energy:                                           -153.9715623415 a.u.
  Dip. moment [a.u.]:                  [  -0.000000,   -0.000000,    2.143762]
  Total dipole [Debye]:                                               5.448901
  <r^2> [a.u.]:                        [  56.616953,   20.374937,  209.276466]
  Total <r^2> [a.u.]:                                               286.268357

  Density matrix analysis:
  ------------------------
  NOs
    Occupation of frontier NOs:
       0.0447   1.9355
    Number of electrons: 26.000000
    Number of unpaired electrons: n_u =  0.71652, n_u,nl =  0.08557
    NO participation ratio (PR_NO): 23.037670
  
  
  Mulliken Population Analysis
  Atom      Charge (e)              h+              e-           Del q
  --------------------------------------------------------------------
   1 C       -0.260914        0.091860       -0.095353       -0.003493
   2 C       -0.260914        0.091860       -0.095353       -0.003493
   3 H        0.221930        0.017461       -0.011623        0.005838
   4 H        0.221930        0.017461       -0.011623        0.005838
   5 H        0.052800        0.019547       -0.012279        0.007268
   6 H        0.052800        0.019547       -0.012279        0.007268
   7 O       -1.075051        0.276323       -0.279126       -0.002803
   8 H        0.047419        0.015513       -0.031937       -0.016425
  --------------------------------------------------------------------
  Sum:       -1.000000        0.549572       -0.549572        0.000000
  
  Multipole moment analysis of the density matrix
    Molecular charge:                      -1.000000
    Number of electrons:                   26.000000
      Center of electronic charge [Ang]: [  0.000000,   0.000000,  -0.043632]
    Total nuclear charge:                  25.000000
      Center of nuclear charge [Ang]:    [  0.000000,   0.000000,  -0.000000]
    Dipole moment [D]:                     5.448900
      Cartesian components [D]:          [ -0.000000,  -0.000000,   5.448900]
    RMS size of the density [Ang]:         1.755363
      Cartesian components [Ang]:        [  0.780886,   0.468449,   1.500691]
  
  Exciton analysis of the difference density matrix
    <r_h> [Ang]:                  [  0.000000,   0.000000,  -0.467149]
    <r_e> [Ang]:                  [  0.000000,   0.000000,  -0.530915]
    |<r_e - r_h>| [Ang]:            0.063766
    Hole size [Ang]:                1.923636
      Cartesian components [Ang]: [  0.842284,   0.716673,   1.573948]
    Electron size [Ang]:            2.254418
      Cartesian components [Ang]: [  1.090907,   0.921084,   1.744685]
--------------------------------------------------------------------------------
  Starting Davidson for singlet states of irrep A2 ... 
--------------------------------------------------------------------------------
   It NVec Conv  Avg. Norm  Max. Norm  Conv. states           Remark
--------------------------------------------------------------------------------
       100    0  1.499e-01  5.332e-01  0.2871 n n n n n n n n Guess.
    1  110    0  1.944e-02  1.502e-01  0.1149 n n n n n n n n 
    2  120    0  7.890e-03  6.017e-02  0.1138 n n n n n n n n 
    3  130    0  3.376e-03  3.264e-02  0.1138 n n n n n n n n 
    4  140    0  1.738e-03  1.731e-02  0.1138 n n n n n n n n 
    5  150    4  3.295e-04  3.291e-03  0.1138 y y y y n n n n 
    6  160    8  5.690e-05  5.683e-04  0.1138 y y y y y y n y 
    7  170    9  6.364e-06  6.358e-05  0.1138 y y y y y y y y 
    8  180   10  6.675e-07  6.672e-06  0.1138 y y y y y y y y Converged.
--------------------------------------------------------------------------------
  Davidson Summary: 
 ------------------------------------------------------------
  State  0: excitation energy =   0.1138 a.u.   (converged)
  State  1: excitation energy =   0.1403 a.u.   (converged)
  State  2: excitation energy =   0.1668 a.u.   (converged)
  State  3: excitation energy =   0.2426 a.u.   (converged)
  State  4: excitation energy =   0.2573 a.u.   (converged)
  State  5: excitation energy =   0.2689 a.u.   (converged)
  State  6: excitation energy =   0.2749 a.u.   (converged)
  State  7: excitation energy =   0.2894 a.u.   (converged)
  State  8: excitation energy =   0.3126 a.u.   (converged)
  State  9: excitation energy =   0.3476 a.u.   (converged)
 ------------------------------------------------------------


--------------------------------------------------------------------------------
                   State-averaged natural transition orbitals
--------------------------------------------------------------------------------
--------------------------------------------------------------------------------

--------------------------------------------------------------------------------
                             Excited State Summary
--------------------------------------------------------------------------------
--------------------------------------------------------------------------------

  Excited state 1 (singlet, A2)                                    [converged]
  ----------------------------------------------------------------------------
  Term symbol:  1 (1) A2                                    R^2 =  1.35612e-09

  Total energy:                                           -153.8577832980 a.u.
  Excitation energy:                                               3.096085 eV

  Osc. strength:                                                      0.000000
  Trans. dip. moment [a.u.]:           [  -0.000000,   -0.000000,   -0.000000]
  <i|r^2|0> [a.u.]:                    [   0.000000,    0.000000,    0.000000]

  Dip. moment [a.u.]:                  [   0.000000,   -0.000000,   -3.504702]
  Total dipole [Debye]:                                               8.908066
  <r^2> [a.u.]:                        [  91.234176,   24.746877,  208.706803]
  Total <r^2> [a.u.]:                                               324.687856

  V1^2 = 0.8709, V2^2 = 0.1291

  Important amplitudes:
      occ i      occ j       vir a       vir b          v   
    ---------------------------------------------------------
     2 (B2) A               5 (B1) A                  0.6358
     2 (B2) A               6 (B1) A                 -0.1506
    ---------------------------------------------------------

  Density matrix analysis:
  ------------------------
  NOs
    Occupation of frontier NOs:
       0.9626   0.9963
    Number of electrons: 26.000000
    Number of unpaired electrons: n_u =  2.74770, n_u,nl =  2.11268
    NO participation ratio (PR_NO):  3.872356
  
  
  Mulliken Population Analysis
  Atom      Charge (e)              h+              e-           Del q
  --------------------------------------------------------------------
   1 C       -0.731926        0.031081       -0.502093       -0.471012
   2 C       -0.731926        0.031081       -0.502093       -0.471012
   3 H        0.178386        0.004454       -0.047998       -0.043544
   4 H        0.178386        0.004454       -0.047998       -0.043544
   5 H        0.066499        0.041851       -0.028152        0.013700
   6 H        0.066499        0.041851       -0.028152        0.013700
   7 O       -0.181082        1.391378       -0.497409        0.893969
   8 H        0.155162        0.130872       -0.023129        0.107743
  --------------------------------------------------------------------
  Sum:       -1.000000        1.677023       -1.677023        0.000000
  
  Multipole moment analysis of the density matrix
    Molecular charge:                      -1.000000
    Number of electrons:                   26.000000
      Center of electronic charge [Ang]: [ -0.000000,   0.000000,   0.071331]
    Total nuclear charge:                  25.000000
      Center of nuclear charge [Ang]:    [  0.000000,   0.000000,  -0.000000]
    Dipole moment [D]:                     8.908064
      Cartesian components [D]:          [  0.000000,  -0.000000,  -8.908064]
    RMS size of the density [Ang]:         1.868664
      Cartesian components [Ang]:        [  0.991273,   0.516267,   1.497582]
  
  Exciton analysis of the difference density matrix
    <r_h> [Ang]:                  [  0.000000,  -0.000000,  -1.456273]
    <r_e> [Ang]:                  [ -0.000000,   0.000000,   0.326075]
    |<r_e - r_h>| [Ang]:            1.782348
    Hole size [Ang]:                1.761152
      Cartesian components [Ang]: [  0.835983,   0.860431,   1.289359]
    Electron size [Ang]:            3.395781
      Cartesian components [Ang]: [  2.545434,   1.212586,   1.892546]

  Transition density matrix analysis:
  -----------------------------------
  
  CT numbers (Mulliken)
    omega =     0.8552
    <Phe> =    -0.0000
  
  Exciton analysis of the transition density matrix
    Trans. dipole moment [D]:             0.000000
      Cartesian components [D]:         [ -0.000000,  -0.000000,  -0.000000]
    <r_h> [Ang]:                        [ -0.000000,   0.000000,  -1.737464]
    <r_e> [Ang]:                        [ -0.000000,   0.000000,   1.346702]
    |<r_e - r_h>| [Ang]:                  3.084167
    Hole size [Ang]:                      1.099485
      Cartesian components [Ang]:       [  0.475772,   0.819692,   0.557327]
    Electron size [Ang]:                  3.846745
      Cartesian components [Ang]:       [  3.220804,   1.467242,   1.507008]
    RMS electron-hole separation [Ang]:   5.049405
      Cartesian components [Ang]:       [  3.255184,   1.678316,   3.476137]
    Covariance(r_h, r_e) [Ang^2]:         0.010952
    Correlation coefficient:              0.002589
    Center-of-mass size [Ang]:            2.001763
      Cartesian components [Ang]:       [  1.628162,   0.841522,   0.804973]

  Decomposition into state-averaged NTOs
    H- 0 -> L+ 1:  0.4706 ( 44.3%)
    H- 0 -> L+ 0: -0.4525 ( 40.9%)
                   omega =  85.5%
  ----------------------------------------------------------------------------


  Excited state 2 (singlet, A2)                                    [converged]
  ----------------------------------------------------------------------------
  Term symbol:  2 (1) A2                                    R^2 =  8.49731e-10

  Total energy:                                           -153.8312966481 a.u.
  Excitation energy:                                               3.816824 eV

  Osc. strength:                                                      0.000000
  Trans. dip. moment [a.u.]:           [  -0.000000,   -0.000000,   -0.000000]
  <i|r^2|0> [a.u.]:                    [   0.000000,    0.000000,   -0.000000]

  Dip. moment [a.u.]:                  [   0.000000,    0.000000,   -3.188657]
  Total dipole [Debye]:                                               8.104760
  <r^2> [a.u.]:                        [  62.983315,   45.378822,  207.178934]
  Total <r^2> [a.u.]:                                               315.541071

  V1^2 = 0.8742, V2^2 = 0.1258

  Important amplitudes:
      occ i      occ j       vir a       vir b          v   
    ---------------------------------------------------------
     4 (B1) A               3 (B2) A                 -0.6572
     4 (B1) A               4 (B2) A                 -0.0498
    ---------------------------------------------------------

  Density matrix analysis:
  ------------------------
  NOs
    Occupation of frontier NOs:
       0.9637   0.9977
    Number of electrons: 26.000000
    Number of unpaired electrons: n_u =  2.74123, n_u,nl =  2.11057
    NO participation ratio (PR_NO):  3.845420
  
  
  Mulliken Population Analysis
  Atom      Charge (e)              h+              e-           Del q
  --------------------------------------------------------------------
   1 C       -0.735477        0.053431       -0.527995       -0.474563
   2 C       -0.735477        0.053431       -0.527995       -0.474563
   3 H        0.157580       -0.007167       -0.057183       -0.064350
   4 H        0.157580       -0.007167       -0.057183       -0.064350
   5 H        0.072538        0.022025       -0.002287        0.019739
   6 H        0.072538        0.022025       -0.002287        0.019739
   7 O       -0.141792        1.394557       -0.461298        0.933260
   8 H        0.152508        0.127560       -0.022471        0.105089
  --------------------------------------------------------------------
  Sum:       -1.000000        1.658698       -1.658698        0.000000
  
  Multipole moment analysis of the density matrix
    Molecular charge:                      -1.000000
    Number of electrons:                   26.000000
      Center of electronic charge [Ang]: [ -0.000000,  -0.000000,   0.064899]
    Total nuclear charge:                  25.000000
      Center of nuclear charge [Ang]:    [  0.000000,   0.000000,  -0.000000]
    Dipole moment [D]:                     8.104758
      Cartesian components [D]:          [  0.000000,   0.000000,  -8.104758]
    RMS size of the density [Ang]:         1.842354
      Cartesian components [Ang]:        [  0.823621,   0.699103,   1.492372]
  
  Exciton analysis of the difference density matrix
    <r_h> [Ang]:                  [  0.000000,   0.000000,  -1.468933]
    <r_e> [Ang]:                  [ -0.000000,  -0.000000,   0.232278]
    |<r_e - r_h>| [Ang]:            1.701211
    Hole size [Ang]:                1.736515
      Cartesian components [Ang]: [  0.902306,   0.756691,   1.276224]
    Electron size [Ang]:            3.171946
      Cartesian components [Ang]: [  1.374392,   2.189485,   1.838055]

  Transition density matrix analysis:
  -----------------------------------
  
  CT numbers (Mulliken)
    omega =     0.8574
    <Phe> =     0.0000
  
  Exciton analysis of the transition density matrix
    Trans. dipole moment [D]:             0.000000
      Cartesian components [D]:         [ -0.000000,  -0.000000,  -0.000000]
    <r_h> [Ang]:                        [  0.000000,   0.000000,  -1.717311]
    <r_e> [Ang]:                        [ -0.000000,  -0.000000,   1.206909]
    |<r_e - r_h>| [Ang]:                  2.924220
    Hole size [Ang]:                      1.138666
      Cartesian components [Ang]:       [  0.817276,   0.465639,   0.641718]
    Electron size [Ang]:                  3.537883
      Cartesian components [Ang]:       [  1.645273,   2.758107,   1.484095]
    RMS electron-hole separation [Ang]:   4.726997
      Cartesian components [Ang]:       [  1.833243,   2.796817,   3.340888]
    Covariance(r_h, r_e) [Ang^2]:         0.009870
    Correlation coefficient:              0.002450
    Center-of-mass size [Ang]:            1.859632
      Cartesian components [Ang]:       [  0.920455,   1.398728,   0.809044]

  Decomposition into state-averaged NTOs
    H- 2 -> L+ 6:  0.6375 ( 81.3%)
    H- 2 -> L+ 3: -0.1483 (  4.4%)
                   omega =  85.7%
  ----------------------------------------------------------------------------


  Excited state 3 (singlet, A2)                                    [converged]
  ----------------------------------------------------------------------------
  Term symbol:  3 (1) A2                                    R^2 =  2.34491e-09

  Total energy:                                           -153.8047854116 a.u.
  Excitation energy:                                               4.538231 eV

  Osc. strength:                                                      0.000000
  Trans. dip. moment [a.u.]:           [   0.000000,    0.000000,    0.000000]
  <i|r^2|0> [a.u.]:                    [   0.000000,    0.000000,   -0.000000]

  Dip. moment [a.u.]:                  [   0.000000,   -0.000000,   -3.164385]
  Total dipole [Debye]:                                               8.043066
  <r^2> [a.u.]:                        [  80.229881,   24.936631,  220.171885]
  Total <r^2> [a.u.]:                                               325.338397

  V1^2 = 0.8765, V2^2 = 0.1235

  Important amplitudes:
      occ i      occ j       vir a       vir b          v   
    ---------------------------------------------------------
     2 (B2) A               6 (B1) A                 -0.6306
     2 (B2) A               5 (B1) A                 -0.1522
    ---------------------------------------------------------

  Density matrix analysis:
  ------------------------
  NOs
    Occupation of frontier NOs:
       0.9637   0.9993
    Number of electrons: 26.000000
    Number of unpaired electrons: n_u =  2.73816, n_u,nl =  2.10859
    NO participation ratio (PR_NO):  3.832070
  
  
  Mulliken Population Analysis
  Atom      Charge (e)              h+              e-           Del q
  --------------------------------------------------------------------
   1 C       -0.751817        0.018744       -0.509647       -0.490903
   2 C       -0.751817        0.018744       -0.509647       -0.490903
   3 H        0.160283        0.003093       -0.064740       -0.061647
   4 H        0.160283        0.003093       -0.064740       -0.061647
   5 H        0.059706        0.043159       -0.036252        0.006907
   6 H        0.059706        0.043159       -0.036252        0.006907
   7 O       -0.091062        1.395054       -0.411065        0.983989
   8 H        0.154718        0.130364       -0.023064        0.107299
  --------------------------------------------------------------------
  Sum:       -1.000000        1.655408       -1.655408        0.000000
  
  Multipole moment analysis of the density matrix
    Molecular charge:                      -1.000000
    Number of electrons:                   26.000000
      Center of electronic charge [Ang]: [ -0.000000,   0.000000,   0.064405]
    Total nuclear charge:                  25.000000
      Center of nuclear charge [Ang]:    [  0.000000,   0.000000,  -0.000000]
    Dipole moment [D]:                     8.043064
      Cartesian components [D]:          [  0.000000,  -0.000000,  -8.043064]
    RMS size of the density [Ang]:         1.870789
      Cartesian components [Ang]:        [  0.929571,   0.518243,   1.538563]
  
  Exciton analysis of the difference density matrix
    <r_h> [Ang]:                  [  0.000000,   0.000000,  -1.445937]
    <r_e> [Ang]:                  [ -0.000000,   0.000000,   0.250896]
    |<r_e - r_h>| [Ang]:            1.696833
    Hole size [Ang]:                1.786405
      Cartesian components [Ang]: [  0.817820,   0.862257,   1.333764]
    Electron size [Ang]:            3.439202
      Cartesian components [Ang]: [  2.159442,   1.230911,   2.376927]

  Transition density matrix analysis:
  -----------------------------------
  
  CT numbers (Mulliken)
    omega =     0.8600
    <Phe> =    -0.0005
  
  Exciton analysis of the transition density matrix
    Trans. dipole moment [D]:             0.000000
      Cartesian components [D]:         [  0.000000,   0.000000,   0.000000]
    <r_h> [Ang]:                        [ -0.000000,   0.000000,  -1.738871]
    <r_e> [Ang]:                        [ -0.000000,   0.000000,   1.140138]
    |<r_e - r_h>| [Ang]:                  2.879008
    Hole size [Ang]:                      1.096200
      Cartesian components [Ang]:       [  0.475262,   0.819018,   0.552259]
    Electron size [Ang]:                  3.931562
      Cartesian components [Ang]:       [  2.695680,   1.484817,   2.446591]
    RMS electron-hole separation [Ang]:   4.991311
      Cartesian components [Ang]:       [  2.736867,   1.695463,   3.814204]
    Covariance(r_h, r_e) [Ang^2]:         0.017166
    Correlation coefficient:              0.003983
    Center-of-mass size [Ang]:            2.042863
      Cartesian components [Ang]:       [  1.368821,   0.847990,   1.257192]

  Decomposition into state-averaged NTOs
    H- 0 -> L+ 0: -0.4644 ( 43.1%)
    H- 0 -> L+ 1: -0.4418 ( 39.0%)
    H- 0 -> L+ 4:  0.1093 (  2.4%)
    H- 0 -> L+ 5:  0.0776 (  1.2%)
                   omega =  86.0%
  ----------------------------------------------------------------------------


  Excited state 4 (singlet, A2)                                    [converged]
  ----------------------------------------------------------------------------
  Term symbol:  4 (1) A2                                    R^2 =  2.62374e-09

  Total energy:                                           -153.7289773421 a.u.
  Excitation energy:                                               6.601074 eV

  Osc. strength:                                                      0.000000
  Trans. dip. moment [a.u.]:           [  -0.000000,   -0.000000,    0.000000]
  <i|r^2|0> [a.u.]:                    [   0.000000,    0.000000,    0.000000]

  Dip. moment [a.u.]:                  [   0.000000,   -0.000000,    0.265916]
  Total dipole [Debye]:                                               0.675891
  <r^2> [a.u.]:                        [  84.554783,   24.037290,  222.420361]
  Total <r^2> [a.u.]:                                               331.012434

  V1^2 = 0.9432, V2^2 = 0.0568

  Important amplitudes:
      occ i      occ j       vir a       vir b          v   
    ---------------------------------------------------------
     1 (B2) A               5 (B1) A                 -0.6735
     1 (B2) A               9 (B1) A                 -0.0927
    ---------------------------------------------------------

  Density matrix analysis:
  ------------------------
  NOs
    Occupation of frontier NOs:
       0.9849   0.9912
    Number of electrons: 26.000000
    Number of unpaired electrons: n_u =  2.61512, n_u,nl =  2.06704
    NO participation ratio (PR_NO):  3.471552
  
  
  Mulliken Population Analysis
  Atom      Charge (e)              h+              e-           Del q
  --------------------------------------------------------------------
   1 C       -0.389049        0.534291       -0.662426       -0.128135
   2 C       -0.389049        0.534291       -0.662426       -0.128135
   3 H        0.289099        0.069744       -0.002575        0.067169
   4 H        0.289099        0.069744       -0.002575        0.067169
   5 H        0.117025        0.117771       -0.053545        0.064226
   6 H        0.117025        0.117771       -0.053545        0.064226
   7 O       -1.098268        0.046330       -0.069547       -0.023217
   8 H        0.064117        0.020996       -0.004298        0.016698
  --------------------------------------------------------------------
  Sum:       -1.000000        1.510937       -1.510937        0.000000
  
  Multipole moment analysis of the density matrix
    Molecular charge:                      -1.000000
    Number of electrons:                   26.000000
      Center of electronic charge [Ang]: [ -0.000000,   0.000000,  -0.005412]
    Total nuclear charge:                  25.000000
      Center of nuclear charge [Ang]:    [  0.000000,   0.000000,  -0.000000]
    Dipole moment [D]:                     0.675891
      Cartesian components [D]:          [  0.000000,  -0.000000,   0.675891]
    RMS size of the density [Ang]:         1.888143
      Cartesian components [Ang]:        [  0.954297,   0.508812,   1.547744]
  
  Exciton analysis of the difference density matrix
    <r_h> [Ang]:                  [  0.000000,   0.000000,   0.911398]
    <r_e> [Ang]:                  [ -0.000000,   0.000000,   1.569078]
    |<r_e - r_h>| [Ang]:            0.657680
    Hole size [Ang]:                1.784191
      Cartesian components [Ang]: [  1.066559,   0.894099,   1.116412]
    Electron size [Ang]:            3.137609
      Cartesian components [Ang]: [  2.513043,   1.215801,   1.432142]

  Transition density matrix analysis:
  -----------------------------------
  
  CT numbers (Mulliken)
    omega =     0.9124
    <Phe> =    -0.0027
  
  Exciton analysis of the transition density matrix
    Trans. dipole moment [D]:             0.000000
      Cartesian components [D]:         [ -0.000000,  -0.000000,   0.000000]
    <r_h> [Ang]:                        [  0.000000,   0.000000,   1.019911]
    <r_e> [Ang]:                        [ -0.000000,   0.000000,   2.018669]
    |<r_e - r_h>| [Ang]:                  0.998758
    Hole size [Ang]:                      1.307935
      Cartesian components [Ang]:       [  0.767906,   0.893433,   0.568149]
    Electron size [Ang]:                  3.596026
      Cartesian components [Ang]:       [  3.007804,   1.433267,   1.352873]
    RMS electron-hole separation [Ang]:   3.946226
      Cartesian components [Ang]:       [  3.097463,   1.682214,   1.774424]
    Covariance(r_h, r_e) [Ang^2]:         0.033458
    Correlation coefficient:              0.007114
    Center-of-mass size [Ang]:            1.917617
      Cartesian components [Ang]:       [  1.555543,   0.847807,   0.734005]

  Decomposition into state-averaged NTOs
    H- 1 -> L+ 1:  0.5889 ( 69.4%)
    H- 1 -> L+ 0: -0.3278 ( 21.5%)
                   omega =  91.2%
  ----------------------------------------------------------------------------


  Excited state 5 (singlet, A2)                                    [converged]
  ----------------------------------------------------------------------------
  Term symbol:  5 (1) A2                                    R^2 =  2.19601e-08

  Total energy:                                           -153.7142459000 a.u.
  Excitation energy:                                               7.001936 eV

  Osc. strength:                                                      0.000000
  Trans. dip. moment [a.u.]:           [  -0.000000,   -0.000000,   -0.000000]
  <i|r^2|0> [a.u.]:                    [   0.000000,    0.000000,    0.000000]

  Dip. moment [a.u.]:                  [  -0.000000,   -0.000000,   -2.743396]
  Total dipole [Debye]:                                               6.973018
  <r^2> [a.u.]:                        [  77.486873,   29.901497,  206.755048]
  Total <r^2> [a.u.]:                                               314.143417

  V1^2 = 0.8797, V2^2 = 0.1203

  Important amplitudes:
      occ i      occ j       vir a       vir b          v   
    ---------------------------------------------------------
     2 (B2) A               7 (B1) A                  0.6345
     2 (B2) A               8 (B1) A                  0.1193
    ---------------------------------------------------------

  Density matrix analysis:
  ------------------------
  NOs
    Occupation of frontier NOs:
       0.9718   0.9892
    Number of electrons: 26.000000
    Number of unpaired electrons: n_u =  2.75192, n_u,nl =  2.11320
    NO participation ratio (PR_NO):  3.877198
  
  
  Mulliken Population Analysis
  Atom      Charge (e)              h+              e-           Del q
  --------------------------------------------------------------------
   1 C       -0.817619        0.029112       -0.585818       -0.556706
   2 C       -0.817619        0.029112       -0.585818       -0.556706
   3 H        0.208324        0.002956       -0.016562       -0.013606
   4 H        0.208324        0.002956       -0.016562       -0.013606
   5 H        0.107580        0.029406        0.025375        0.054780
   6 H        0.107580        0.029406        0.025375        0.054780
   7 O       -0.148129        1.379617       -0.452695        0.926922
   8 H        0.151561        0.126054       -0.021912        0.104142
  --------------------------------------------------------------------
  Sum:       -1.000000        1.628618       -1.628618        0.000000
  
  Multipole moment analysis of the density matrix
    Molecular charge:                      -1.000000
    Number of electrons:                   26.000000
      Center of electronic charge [Ang]: [  0.000000,   0.000000,   0.055836]
    Total nuclear charge:                  25.000000
      Center of nuclear charge [Ang]:    [  0.000000,   0.000000,  -0.000000]
    Dipole moment [D]:                     6.973015
      Cartesian components [D]:          [ -0.000000,  -0.000000,  -6.973015]
    RMS size of the density [Ang]:         1.838562
      Cartesian components [Ang]:        [  0.913542,   0.567494,   1.491208]
  
  Exciton analysis of the difference density matrix
    <r_h> [Ang]:                  [  0.000000,  -0.000000,  -1.484153]
    <r_e> [Ang]:                  [  0.000000,   0.000000,   0.103802]
    |<r_e - r_h>| [Ang]:            1.587955
    Hole size [Ang]:                1.735987
      Cartesian components [Ang]: [  0.835859,   0.864929,   1.251755]
    Electron size [Ang]:            3.162039
      Cartesian components [Ang]: [  2.070527,   1.544707,   1.823537]

  Transition density matrix analysis:
  -----------------------------------
  
  CT numbers (Mulliken)
    omega =     0.8631
    <Phe> =     0.0005
  
  Exciton analysis of the transition density matrix
    Trans. dipole moment [D]:             0.000000
      Cartesian components [D]:         [ -0.000000,  -0.000000,  -0.000000]
    <r_h> [Ang]:                        [  0.000000,   0.000000,  -1.730631]
    <r_e> [Ang]:                        [  0.000000,   0.000000,   0.928793]
    |<r_e - r_h>| [Ang]:                  2.659424
    Hole size [Ang]:                      1.105686
      Cartesian components [Ang]:       [  0.476987,   0.816354,   0.573229]
    Electron size [Ang]:                  3.557790
      Cartesian components [Ang]:       [  2.541646,   1.893357,   1.616511]
    RMS electron-hole separation [Ang]:   4.571995
      Cartesian components [Ang]:       [  2.585771,   2.053281,   3.162430]
    Covariance(r_h, r_e) [Ang^2]:         0.024908
    Correlation coefficient:              0.006332
    Center-of-mass size [Ang]:            1.866161
      Cartesian components [Ang]:       [  1.293130,   1.035195,   0.859502]

  Decomposition into state-averaged NTOs
    H- 0 -> L+ 5:  0.5999 ( 72.0%)
    H- 0 -> L+ 4:  0.2368 ( 11.2%)
    H- 0 -> L+ 0:  0.0762 (  1.2%)
    H- 0 -> L+ 1:  0.0762 (  1.2%)
                   omega =  86.3%
  ----------------------------------------------------------------------------


  Excited state 6 (singlet, A2)                                    [converged]
  ----------------------------------------------------------------------------
  Term symbol:  6 (1) A2                                    R^2 =  1.62887e-08

  Total energy:                                           -153.7026802265 a.u.
  Excitation energy:                                               7.316654 eV

  Osc. strength:                                                      0.000000
  Trans. dip. moment [a.u.]:           [  -0.000000,   -0.000000,   -0.000000]
  <i|r^2|0> [a.u.]:                    [  -0.000000,   -0.000000,   -0.000000]

  Dip. moment [a.u.]:                  [  -0.000000,   -0.000000,    1.942604]
  Total dipole [Debye]:                                               4.937607
  <r^2> [a.u.]:                        [  57.635988,   30.564729,  212.272750]
  Total <r^2> [a.u.]:                                               300.473468

  V1^2 = 0.9221, V2^2 = 0.0779

  Important amplitudes:
      occ i      occ j       vir a       vir b          v   
    ---------------------------------------------------------
     4 (B1) A               4 (B2) A                  0.6706
     7 (A1) A               1 (A2) A                  0.0524
    ---------------------------------------------------------

  Density matrix analysis:
  ------------------------
  NOs
    Occupation of frontier NOs:
       0.9836   1.0003
    Number of electrons: 26.000000
    Number of unpaired electrons: n_u =  2.68504, n_u,nl =  2.08566
    NO participation ratio (PR_NO):  3.624048
  
  
  Mulliken Population Analysis
  Atom      Charge (e)              h+              e-           Del q
  --------------------------------------------------------------------
   1 C       -0.250642        0.027519       -0.017248        0.010272
   2 C       -0.250642        0.027519       -0.017248        0.010272
   3 H        0.191004       -0.006301       -0.024625       -0.030926
   4 H        0.191004       -0.006301       -0.024625       -0.030926
   5 H        0.065384        0.013249       -0.000665        0.012584
   6 H        0.065384        0.013249       -0.000665        0.012584
   7 O       -1.162394        1.211412       -1.298754       -0.087342
   8 H        0.150902        0.123370       -0.019887        0.103483
  --------------------------------------------------------------------
  Sum:       -1.000000        1.403716       -1.403716        0.000000
  
  Multipole moment analysis of the density matrix
    Molecular charge:                      -1.000000
    Number of electrons:                   26.000000
      Center of electronic charge [Ang]: [  0.000000,   0.000000,  -0.039538]
    Total nuclear charge:                  25.000000
      Center of nuclear charge [Ang]:    [  0.000000,   0.000000,  -0.000000]
    Dipole moment [D]:                     4.937605
      Cartesian components [D]:          [ -0.000000,  -0.000000,   4.937605]
    RMS size of the density [Ang]:         1.798509
      Cartesian components [Ang]:        [  0.787882,   0.573753,   1.511517]
  
  Exciton analysis of the difference density matrix
    <r_h> [Ang]:                  [  0.000000,  -0.000000,  -1.601087]
    <r_e> [Ang]:                  [  0.000000,   0.000000,  -1.525254]
    |<r_e - r_h>| [Ang]:            0.075833
    Hole size [Ang]:                1.546620
      Cartesian components [Ang]: [  0.879891,   0.634951,   1.102118]
    Electron size [Ang]:            2.337286
      Cartesian components [Ang]: [  0.988684,   1.560747,   1.431599]

  Transition density matrix analysis:
  -----------------------------------
  
  CT numbers (Mulliken)
    omega =     0.8985
    <Phe> =    -0.0075
  
  Exciton analysis of the transition density matrix
    Trans. dipole moment [D]:             0.000000
      Cartesian components [D]:         [ -0.000000,  -0.000000,  -0.000000]
    <r_h> [Ang]:                        [  0.000000,   0.000000,  -1.733560]
    <r_e> [Ang]:                        [ -0.000000,   0.000000,  -1.636048]
    |<r_e - r_h>| [Ang]:                  0.097512
    Hole size [Ang]:                      1.098254
      Cartesian components [Ang]:       [  0.802389,   0.461783,   0.590838]
    Electron size [Ang]:                  2.592613
      Cartesian components [Ang]:       [  1.078589,   1.824707,   1.492894]
    RMS electron-hole separation [Ang]:   2.813067
      Cartesian components [Ang]:       [  1.344916,   1.882028,   1.600787]
    Covariance(r_h, r_e) [Ang^2]:         0.011982
    Correlation coefficient:              0.004208
    Center-of-mass size [Ang]:            1.409944
      Cartesian components [Ang]:       [  0.671857,   0.941218,   0.806634]

  Decomposition into state-averaged NTOs
    H- 2 -> L+ 3:  0.6504 ( 84.6%)
    H- 2 -> L+ 6:  0.1439 (  4.1%)
                   omega =  89.9%
  ----------------------------------------------------------------------------


  Excited state 7 (singlet, A2)                                    [converged]
  ----------------------------------------------------------------------------
  Term symbol:  7 (1) A2                                    R^2 =  2.13295e-07

  Total energy:                                           -153.6966592680 a.u.
  Excitation energy:                                               7.480493 eV

  Osc. strength:                                                      0.000000
  Trans. dip. moment [a.u.]:           [  -0.000000,   -0.000000,   -0.000000]
  <i|r^2|0> [a.u.]:                    [   0.000000,    0.000000,    0.000000]

  Dip. moment [a.u.]:                  [  -0.000000,   -0.000000,   -2.539916]
  Total dipole [Debye]:                                               6.455823
  <r^2> [a.u.]:                        [  67.987202,   31.070925,  202.188173]
  Total <r^2> [a.u.]:                                               301.246300

  V1^2 = 0.8783, V2^2 = 0.1217

  Important amplitudes:
      occ i      occ j       vir a       vir b          v   
    ---------------------------------------------------------
     7 (A1) A               1 (A2) A                  0.6069
     7 (A1) A               2 (A2) A                 -0.2445
    ---------------------------------------------------------

  Density matrix analysis:
  ------------------------
  NOs
    Occupation of frontier NOs:
       0.9826   0.9967
    Number of electrons: 26.000000
    Number of unpaired electrons: n_u =  2.80311, n_u,nl =  2.12751
    NO participation ratio (PR_NO):  3.942891
  
  
  Mulliken Population Analysis
  Atom      Charge (e)              h+              e-           Del q
  --------------------------------------------------------------------
   1 C       -0.688717        0.085205       -0.513008       -0.427803
   2 C       -0.688717        0.085205       -0.513008       -0.427803
   3 H        0.171857        0.007916       -0.057990       -0.050073
   4 H        0.171857        0.007916       -0.057990       -0.050073
   5 H        0.063732        0.012737       -0.001805        0.010932
   6 H        0.063732        0.012737       -0.001805        0.010932
   7 O       -0.402760        1.124421       -0.452130        0.672291
   8 H        0.309017        0.276445       -0.014847        0.261598
  --------------------------------------------------------------------
  Sum:       -1.000000        1.612583       -1.612583        0.000000
  
  Multipole moment analysis of the density matrix
    Molecular charge:                      -1.000000
    Number of electrons:                   26.000000
      Center of electronic charge [Ang]: [  0.000000,   0.000000,   0.051695]
    Total nuclear charge:                  25.000000
      Center of nuclear charge [Ang]:    [  0.000000,   0.000000,  -0.000000]
    Dipole moment [D]:                     6.455821
      Cartesian components [D]:          [ -0.000000,  -0.000000,  -6.455821]
    RMS size of the density [Ang]:         1.800514
      Cartesian components [Ang]:        [  0.855713,   0.578484,   1.474775]
  
  Exciton analysis of the difference density matrix
    <r_h> [Ang]:                  [  0.000000,   0.000000,  -1.390728]
    <r_e> [Ang]:                  [  0.000000,   0.000000,   0.146244]
    |<r_e - r_h>| [Ang]:            1.536972
    Hole size [Ang]:                1.703729
      Cartesian components [Ang]: [  0.793531,   0.702720,   1.333862]
    Electron size [Ang]:            2.723304
      Cartesian components [Ang]: [  1.613741,   1.533361,   1.568766]

  Transition density matrix analysis:
  -----------------------------------
  
  CT numbers (Mulliken)
    omega =     0.8532
    <Phe> =    -0.0011
  
  Exciton analysis of the transition density matrix
    Trans. dipole moment [D]:             0.000000
      Cartesian components [D]:         [ -0.000000,  -0.000000,  -0.000000]
    <r_h> [Ang]:                        [  0.000000,  -0.000000,  -1.605063]
    <r_e> [Ang]:                        [  0.000000,   0.000000,   1.001320]
    |<r_e - r_h>| [Ang]:                  2.606384
    Hole size [Ang]:                      1.254004
      Cartesian components [Ang]:       [  0.497707,   0.406942,   1.076667]
    Electron size [Ang]:                  2.905931
      Cartesian components [Ang]:       [  1.932323,   1.860338,   1.117902]
    RMS electron-hole separation [Ang]:   4.099175
      Cartesian components [Ang]:       [  1.992123,   1.909464,   3.031275]
    Covariance(r_h, r_e) [Ang^2]:         0.003478
    Correlation coefficient:              0.000955
    Center-of-mass size [Ang]:            1.583028
      Cartesian components [Ang]:       [  0.999326,   0.949587,   0.778210]

  Decomposition into state-averaged NTOs
    H- 3 -> L+ 2:  0.6085 ( 74.1%)
    H- 4 -> L+ 2:  0.1804 (  6.5%)
    H- 3 -> L+ 7:  0.1177 (  2.8%)
                   omega =  85.3%
  ----------------------------------------------------------------------------


  Excited state 8 (singlet, A2)                                    [converged]
  ----------------------------------------------------------------------------
  Term symbol:  8 (1) A2                                    R^2 =  3.30844e-08

  Total energy:                                           -153.6821566942 a.u.
  Excitation energy:                                               7.875128 eV

  Osc. strength:                                                      0.000000
  Trans. dip. moment [a.u.]:           [  -0.000000,    0.000000,   -0.000000]
  <i|r^2|0> [a.u.]:                    [  -0.000000,   -0.000000,   -0.000000]

  Dip. moment [a.u.]:                  [  -0.000000,   -0.000000,    2.186066]
  Total dipole [Debye]:                                               5.556427
  <r^2> [a.u.]:                        [  67.392961,   23.024940,  217.070869]
  Total <r^2> [a.u.]:                                               307.488769

  V1^2 = 0.9099, V2^2 = 0.0901

  Important amplitudes:
      occ i      occ j       vir a       vir b          v   
    ---------------------------------------------------------
     2 (B2) A               8 (B1) A                 -0.6486
     2 (B2) A               7 (B1) A                  0.1227
    ---------------------------------------------------------

  Density matrix analysis:
  ------------------------
  NOs
    Occupation of frontier NOs:
       0.9720   1.0044
    Number of electrons: 26.000000
    Number of unpaired electrons: n_u =  2.68442, n_u,nl =  2.08928
    NO participation ratio (PR_NO):  3.676918
  
  
  Mulliken Population Analysis
  Atom      Charge (e)              h+              e-           Del q
  --------------------------------------------------------------------
   1 C       -0.247668        0.037884       -0.024639        0.013245
   2 C       -0.247668        0.037884       -0.024639        0.013245
   3 H        0.199120        0.020210       -0.043020       -0.022810
   4 H        0.199120        0.020210       -0.043020       -0.022810
   5 H        0.066495        0.013573        0.000123        0.013696
   6 H        0.066495        0.013573        0.000123        0.013696
   7 O       -1.200921        1.196196       -1.322065       -0.125870
   8 H        0.165027        0.141310       -0.023702        0.117608
  --------------------------------------------------------------------
  Sum:       -1.000000        1.480840       -1.480840        0.000000
  
  Multipole moment analysis of the density matrix
    Molecular charge:                      -1.000000
    Number of electrons:                   26.000000
      Center of electronic charge [Ang]: [  0.000000,   0.000000,  -0.044493]
    Total nuclear charge:                  25.000000
      Center of nuclear charge [Ang]:    [  0.000000,   0.000000,  -0.000000]
    Dipole moment [D]:                     5.556425
      Cartesian components [D]:          [ -0.000000,  -0.000000,   5.556425]
    RMS size of the density [Ang]:         1.819279
      Cartesian components [Ang]:        [  0.851965,   0.497982,   1.528380]
  
  Exciton analysis of the difference density matrix
    <r_h> [Ang]:                  [  0.000000,   0.000000,  -1.586547]
    <r_e> [Ang]:                  [  0.000000,   0.000000,  -1.601664]
    |<r_e - r_h>| [Ang]:            0.015117
    Hole size [Ang]:                1.597069
      Cartesian components [Ang]: [  0.758389,   0.876250,   1.098936]
    Electron size [Ang]:            2.552496
      Cartesian components [Ang]: [  1.616450,   1.126469,   1.622773]

  Transition density matrix analysis:
  -----------------------------------
  
  CT numbers (Mulliken)
    omega =     0.8888
    <Phe> =    -0.0059
  
  Exciton analysis of the transition density matrix
    Trans. dipole moment [D]:             0.000000
      Cartesian components [D]:         [ -0.000000,   0.000000,  -0.000000]
    <r_h> [Ang]:                        [ -0.000000,   0.000000,  -1.742606]
    <r_e> [Ang]:                        [  0.000000,   0.000000,  -1.794267]
    |<r_e - r_h>| [Ang]:                  0.051661
    Hole size [Ang]:                      1.079585
      Cartesian components [Ang]:       [  0.471140,   0.812014,   0.533072]
    Electron size [Ang]:                  2.880099
      Cartesian components [Ang]:       [  1.888966,   1.273263,   1.762265]
    RMS electron-hole separation [Ang]:   3.066262
      Cartesian components [Ang]:       [  1.946077,   1.510010,   1.826093]
    Covariance(r_h, r_e) [Ang^2]:         0.030592
    Correlation coefficient:              0.009839
    Center-of-mass size [Ang]:            1.542859
      Cartesian components [Ang]:       [  0.973796,   0.755149,   0.928378]

  Decomposition into state-averaged NTOs
    H- 0 -> L+ 4: -0.6142 ( 75.5%)
    H- 0 -> L+ 5:  0.2466 ( 12.2%)
                   omega =  88.9%
  ----------------------------------------------------------------------------


  Excited state 9 (singlet, A2)                                    [converged]
  ----------------------------------------------------------------------------
  Term symbol:  9 (1) A2                                    R^2 =  1.39599e-08

  Total energy:                                           -153.6589737080 a.u.
  Excitation energy:                                               8.505969 eV

  Osc. strength:                                                      0.000000
  Trans. dip. moment [a.u.]:           [   0.000000,    0.000000,   -0.000000]
  <i|r^2|0> [a.u.]:                    [  -0.000000,    0.000000,   -0.000000]

  Dip. moment [a.u.]:                  [   0.000000,    0.000000,    2.180437]
  Total dipole [Debye]:                                               5.542119
  <r^2> [a.u.]:                        [  80.752194,   23.807871,  221.619040]
  Total <r^2> [a.u.]:                                               326.179106

  V1^2 = 0.9442, V2^2 = 0.0558

  Important amplitudes:
      occ i      occ j       vir a       vir b          v   
    ---------------------------------------------------------
     1 (B2) A               6 (B1) A                 -0.6756
     1 (B2) A              10 (B1) A                  0.0668
    ---------------------------------------------------------

  Density matrix analysis:
  ------------------------
  NOs
    Occupation of frontier NOs:
       0.9856   0.9932
    Number of electrons: 26.000000
    Number of unpaired electrons: n_u =  2.61160, n_u,nl =  2.06610
    NO participation ratio (PR_NO):  3.453238
  
  
  Mulliken Population Analysis
  Atom      Charge (e)              h+              e-           Del q
  --------------------------------------------------------------------
   1 C       -0.443586        0.531105       -0.713778       -0.182673
   2 C       -0.443586        0.531105       -0.713778       -0.182673
   3 H        0.277261        0.087088       -0.031757        0.055331
   4 H        0.277261        0.087088       -0.031757        0.055331
   5 H        0.126006        0.106857       -0.033650        0.073207
   6 H        0.126006        0.106857       -0.033650        0.073207
   7 O       -0.981986        0.052516        0.040549        0.093065
   8 H        0.062623        0.019401       -0.004197        0.015204
  --------------------------------------------------------------------
  Sum:       -1.000000        1.522018       -1.522018        0.000000
  
  Multipole moment analysis of the density matrix
    Molecular charge:                      -1.000000
    Number of electrons:                   26.000000
      Center of electronic charge [Ang]: [ -0.000000,  -0.000000,  -0.044378]
    Total nuclear charge:                  25.000000
      Center of nuclear charge [Ang]:    [  0.000000,   0.000000,  -0.000000]
    Dipole moment [D]:                     5.542117
      Cartesian components [D]:          [  0.000000,   0.000000,   5.542117]
    RMS size of the density [Ang]:         1.873789
      Cartesian components [Ang]:        [  0.932592,   0.506378,   1.544325]
  
  Exciton analysis of the difference density matrix
    <r_h> [Ang]:                  [  0.000000,   0.000000,   0.878439]
    <r_e> [Ang]:                  [ -0.000000,  -0.000000,   0.865688]
    |<r_e - r_h>| [Ang]:            0.012751
    Hole size [Ang]:                1.781529
      Cartesian components [Ang]: [  1.065913,   0.890427,   1.115712]
    Electron size [Ang]:            3.246393
      Cartesian components [Ang]: [  2.361502,   1.193511,   1.880931]

  Transition density matrix analysis:
  -----------------------------------
  
  CT numbers (Mulliken)
    omega =     0.9132
    <Phe> =    -0.0006
  
  Exciton analysis of the transition density matrix
    Trans. dipole moment [D]:             0.000000
      Cartesian components [D]:         [  0.000000,   0.000000,  -0.000000]
    <r_h> [Ang]:                        [  0.000000,   0.000000,   1.021288]
    <r_e> [Ang]:                        [ -0.000000,  -0.000000,   0.956624]
    |<r_e - r_h>| [Ang]:                  0.064664
    Hole size [Ang]:                      1.306295
      Cartesian components [Ang]:       [  0.767591,   0.893495,   0.564693]
    Electron size [Ang]:                  3.830269
      Cartesian components [Ang]:       [  2.826637,   1.410375,   2.166085]
    RMS electron-hole separation [Ang]:   4.043016
      Cartesian components [Ang]:       [  2.924472,   1.669163,   2.237707]
    Covariance(r_h, r_e) [Ang^2]:         0.017786
    Correlation coefficient:              0.003555
    Center-of-mass size [Ang]:            2.025644
      Cartesian components [Ang]:       [  1.466766,   0.834996,   1.120095]

  Decomposition into state-averaged NTOs
    H- 1 -> L+ 0:  0.5887 ( 69.3%)
    H- 1 -> L+ 1:  0.3285 ( 21.6%)
                   omega =  91.3%
  ----------------------------------------------------------------------------


  Excited state 10 (singlet, A2)                                    [converged]
  ----------------------------------------------------------------------------
  Term symbol:  10 (1) A2                                   R^2 =  6.67176e-06

  Total energy:                                           -153.6239352636 a.u.
  Excitation energy:                                               9.459414 eV

  Osc. strength:                                                      0.000000
  Trans. dip. moment [a.u.]:           [   0.000000,   -0.000000,   -0.000000]
  <i|r^2|0> [a.u.]:                    [  -0.000000,   -0.000000,    0.000000]

  Dip. moment [a.u.]:                  [  -0.000000,   -0.000000,    0.874738]
  Total dipole [Debye]:                                               2.223362
  <r^2> [a.u.]:                        [  61.641042,   27.225733,  207.861082]
  Total <r^2> [a.u.]:                                               296.727856

  V1^2 = 0.9345, V2^2 = 0.0655

  Important amplitudes:
      occ i      occ j       vir a       vir b          v   
    ---------------------------------------------------------
     6 (A1) A               2 (A2) A                 -0.4080
     6 (A1) A               1 (A2) A                  0.4050
    ---------------------------------------------------------

  Density matrix analysis:
  ------------------------
  NOs
    Occupation of frontier NOs:
       0.7722   1.2248
    Number of electrons: 26.000000
    Number of unpaired electrons: n_u =  2.72252, n_u,nl =  2.26916
    NO participation ratio (PR_NO):  5.508835
  
  
  Mulliken Population Analysis
  Atom      Charge (e)              h+              e-           Del q
  --------------------------------------------------------------------
   1 C       -0.461150        0.345183       -0.545420       -0.200237
   2 C       -0.461150        0.345183       -0.545420       -0.200237
   3 H        0.258389        0.046753       -0.010295        0.036459
   4 H        0.258389        0.046753       -0.010295        0.036459
   5 H        0.099019        0.051675       -0.005455        0.046219
   6 H        0.099019        0.051675       -0.005455        0.046219
   7 O       -0.909625        0.287336       -0.121910        0.165426
   8 H        0.117110        0.073731       -0.004040        0.069690
  --------------------------------------------------------------------
  Sum:       -1.000000        1.248290       -1.248290        0.000000
  
  Multipole moment analysis of the density matrix
    Molecular charge:                      -1.000000
    Number of electrons:                   26.000000
      Center of electronic charge [Ang]: [  0.000000,   0.000000,  -0.017804]
    Total nuclear charge:                  25.000000
      Center of nuclear charge [Ang]:    [  0.000000,   0.000000,  -0.000000]
    Dipole moment [D]:                     2.223361
      Cartesian components [D]:          [ -0.000000,  -0.000000,   2.223361]
    RMS size of the density [Ang]:         1.787607
      Cartesian components [Ang]:        [  0.814797,   0.541507,   1.496133]
  
  Exciton analysis of the difference density matrix
    <r_h> [Ang]:                  [  0.000000,   0.000000,   0.213977]
    <r_e> [Ang]:                  [  0.000000,   0.000000,   0.751945]
    |<r_e - r_h>| [Ang]:            0.537967
    Hole size [Ang]:                1.928416
      Cartesian components [Ang]: [  1.034855,   0.620249,   1.504379]
    Electron size [Ang]:            2.354895
      Cartesian components [Ang]: [  1.482557,   1.386199,   1.194156]

  Transition density matrix analysis:
  -----------------------------------
  
  CT numbers (Mulliken)
    omega =     0.9049
    <Phe> =    -0.0127
  
  Exciton analysis of the transition density matrix
    Trans. dipole moment [D]:             0.000000
      Cartesian components [D]:         [  0.000000,  -0.000000,  -0.000000]
    <r_h> [Ang]:                        [  0.000000,   0.000000,   0.360864]
    <r_e> [Ang]:                        [  0.000000,   0.000000,   1.034340]
    |<r_e - r_h>| [Ang]:                  0.673475
    Hole size [Ang]:                      1.693681
      Cartesian components [Ang]:       [  0.972998,   0.409568,   1.324419]
    Electron size [Ang]:                  2.343910
      Cartesian components [Ang]:       [  1.587905,   1.487207,   0.872175]
    RMS electron-hole separation [Ang]:   2.956755
      Cartesian components [Ang]:       [  1.846554,   1.541062,   1.719816]
    Covariance(r_h, r_e) [Ang^2]:         0.036819
    Correlation coefficient:              0.009275
    Center-of-mass size [Ang]:            1.452249
      Cartesian components [Ang]:       [  0.938958,   0.772041,   0.794568]

  Decomposition into state-averaged NTOs
    H- 4 -> L+ 2:  0.5178 ( 53.6%)
    H- 3 -> L+ 7:  0.3597 ( 25.9%)
    H- 3 -> L+ 2: -0.2253 ( 10.2%)
                   omega =  90.5%
  ----------------------------------------------------------------------------


--------------------------------------------------------------------------------
  Time of ADC calculation:  CPU 201.89 s  wall 54.86 s
================================================================================
 
 --------------------------------------------------------------
             Orbital Energies (a.u.) and Symmetries
 --------------------------------------------------------------
 
 Alpha MOs, Restricted
 -- Occupied --                  
-20.213 -11.049 -11.047  -0.930  -0.854  -0.598  -0.473  -0.384
  1 A1    2 A1    1 B1    3 A1    4 A1    2 B1    5 A1    6 A1                 
 -0.328  -0.271  -0.194  -0.130  -0.128
  3 B1    7 A1    1 B2    4 B1    2 B2                                         
 -- Virtual --                   
  0.202   0.204   0.240   0.241   0.241   0.269   0.300   0.336
  8 A1    5 B1    3 B2    9 A1    1 A2    6 B1   10 A1   11 A1                 
  0.358   0.366   0.444   0.459   0.463   0.502   0.505   0.535
  2 A2    7 B1    4 B2   12 A1    8 B1   13 A1    9 B1   14 A1                 
  0.536   0.561   0.577   0.607   0.612   0.643   0.714   0.715
 10 B1    5 B2   15 A1   11 B1   16 A1    3 A2   12 B1   17 A1                 
  0.805   1.001   1.039   1.122   1.137   1.200   1.202   1.222
 13 B1   18 A1   19 A1   14 B1   20 A1    6 B2   15 B1   21 A1                 
  1.291   1.304   1.322   1.336   1.346   1.348   1.354   1.375
  4 A2   22 A1   16 B1   23 A1   17 B1   24 A1    7 B2    8 B2                 
  1.407   1.482   1.483   1.510   1.668   1.678   1.719   1.806
  5 A2    9 B2    6 A2   18 B1   19 B1   25 A1   10 B2   20 B1                 
  1.880   1.977   2.042   2.070   2.132   2.137   2.188   2.213
 26 A1   21 B1   27 A1    7 A2   11 B2   28 A1   22 B1   12 B2                 
  2.277   2.352   2.370   2.395   2.439   2.534   2.583   2.604
 29 A1   30 A1    8 A2   13 B2   23 B1   24 B1   31 A1    9 A2                 
  2.753   2.771   2.856   3.049   3.086   3.136   3.478   3.576
 25 B1   32 A1   26 B1   33 A1   34 A1   35 A1   27 B1   28 B1                 
  3.923   3.946   3.972   4.089   4.547
 14 B2   10 A2   36 A1   29 B1   37 A1                                         
 
 Beta MOs, Restricted
 -- Occupied --                  
-20.213 -11.049 -11.047  -0.930  -0.854  -0.598  -0.473  -0.384
  1 A1    2 A1    1 B1    3 A1    4 A1    2 B1    5 A1    6 A1                 
 -0.328  -0.271  -0.194  -0.130  -0.128
  3 B1    7 A1    1 B2    4 B1    2 B2                                         
 -- Virtual --                   
  0.202   0.204   0.240   0.241   0.241   0.269   0.300   0.336
  8 A1    5 B1    3 B2    9 A1    1 A2    6 B1   10 A1   11 A1                 
  0.358   0.366   0.444   0.459   0.463   0.502   0.505   0.535
  2 A2    7 B1    4 B2   12 A1    8 B1   13 A1    9 B1   14 A1                 
  0.536   0.561   0.577   0.607   0.612   0.643   0.714   0.715
 10 B1    5 B2   15 A1   11 B1   16 A1    3 A2   12 B1   17 A1                 
  0.805   1.001   1.039   1.122   1.137   1.200   1.202   1.222
 13 B1   18 A1   19 A1   14 B1   20 A1    6 B2   15 B1   21 A1                 
  1.291   1.304   1.322   1.336   1.346   1.348   1.354   1.375
  4 A2   22 A1   16 B1   23 A1   17 B1   24 A1    7 B2    8 B2                 
  1.407   1.482   1.483   1.510   1.668   1.678   1.719   1.806
  5 A2    9 B2    6 A2   18 B1   19 B1   25 A1   10 B2   20 B1                 
  1.880   1.977   2.042   2.070   2.132   2.137   2.188   2.213
 26 A1   21 B1   27 A1    7 A2   11 B2   28 A1   22 B1   12 B2                 
  2.277   2.352   2.370   2.395   2.439   2.534   2.583   2.604
 29 A1   30 A1    8 A2   13 B2   23 B1   24 B1   31 A1    9 A2                 
  2.753   2.771   2.856   3.049   3.086   3.136   3.478   3.576
 25 B1   32 A1   26 B1   33 A1   34 A1   35 A1   27 B1   28 B1                 
  3.923   3.946   3.972   4.089   4.547
 14 B2   10 A2   36 A1   29 B1   37 A1                                         
 --------------------------------------------------------------
 
          Ground-State Mulliken Net Atomic Charges

     Atom                 Charge (a.u.)
  ----------------------------------------
      1 C                    -0.257421
      2 C                    -0.257421
      3 H                     0.216092
      4 H                     0.216092
      5 H                     0.045531
      6 H                     0.045531
      7 O                    -1.072248
      8 H                     0.063844
  ----------------------------------------
  Sum of atomic charges =    -1.000000

 -----------------------------------------------------------------
                    Cartesian Multipole Moments
 -----------------------------------------------------------------
    Charge (ESU x 10^10)
                -4.8032
    Dipole Moment (Debye)
         X      -0.0000      Y      -0.0000      Z       5.2806
       Tot       5.2806
    Quadrupole Moments (Debye-Ang)
        XX     -23.6204     XY       0.0000     YY     -26.5213
        XZ       0.0000     YZ      -0.0000     ZZ     -32.8658
    Octopole Moments (Debye-Ang^2)
       XXX      -0.0000    XXY      -0.0000    XYY       0.0000
       YYY      -0.0000    XXZ       1.0347    XYZ       0.0000
       YYZ      -0.1815    XZZ      -0.0000    YZZ       0.0000
       ZZZ       6.3578
    Hexadecapole Moments (Debye-Ang^3)
      XXXX     -87.2665   XXXY      -0.0000   XXYY     -21.7405
      XYYY       0.0000   YYYY     -39.9452   XXXZ      -0.0000
      XXYZ      -0.0000   XYYZ       0.0000   YYYZ      -0.0000
      XXZZ     -70.1806   XYZZ       0.0000   YYZZ     -65.3815
      XZZZ       0.0000   YZZZ      -0.0000   ZZZZ    -292.2211
 -----------------------------------------------------------------
 Total job time:  163.56s(wall), 249.11s(cpu) 
 Wed Mar  2 22:37:59 2022

        *************************************************************
        *                                                           *
        *  Thank you very much for using Q-Chem.  Have a nice day.  *
        *                                                           *
        *************************************************************


