/src/tsommerfeld/qchem/exe/qcprog.exe .input0.806061.27567.qcin.1 /src/jdavis/qchem.scratch/qchem27567/

                  Welcome to Q-Chem
     A Quantum Leap Into The Future Of Chemistry


 Q-Chem 5.4 (devel), Q-Chem, Inc., Pleasanton, CA (2021)

 E. Epifanovsky,  A. T. B. Gilbert,  Xintian Feng,  Joonho Lee,  Yuezhi Mao,  
 N. Mardirossian,  P. Pokhilko,  A. White,  M. Wormit,  M. P. Coons,  
 A. L. Dempwolff,  Zhengting Gan,  D. Hait,  P. R. Horn,  L. D. Jacobson,  
 I. Kaliman,  J. Kussmann,  A. W. Lange,  Ka Un Lao,  D. S. Levine,  Jie Liu,  
 S. C. McKenzie,  A. F. Morrison,  K. Nanda,  F. Plasser,  D. R. Rehn,  
 M. L. Vidal,  Zhi-Qiang You,  Ying Zhu,  B. Alam,  B. Albrecht,  
 A. Aldossary,  E. Alguire,  J. H. Andersen,  D. Barton,  K. Begam,  A. Behn,  
 Y. A. Bernard,  E. J. Berquist,  H. Burton,  A. Carreras,  K. Carter-Fenk,  
 R. Chakraborty,  A. D. Chien,  K. D. Closser,  V. Cofer-Shabica,  
 S. Dasgupta,  Jia Deng,  M. de Wergifosse,  M. Diedenhofen,  Hainam Do,  
 S. Ehlert,  Po-Tung Fang,  S. Fatehi,  Qingguo Feng,  T. Friedhoff,  
 J. Gayvert,  Qinghui Ge,  G. Gidofalvi,  M. Goldey,  J. Gomes,  
 C. Gonzalez-Espinoza,  S. Gulania,  A. Gunina,  M. W. D. Hanson-Heine,  
 P. H. P. Harbach,  A. W. Hauser,  M. F. Herbst,  M. Hernandez Vera,  
 M. Hodecker,  Z. C. Holden,  S. Houck,  Xunkun Huang,  Kerwin Hui,  
 B. C. Huynh,  M. Ivanov,  Hyunjun Ji,  Hanjie Jiang,  B. Kaduk,  S. Kaehler,  
 K. Khistyaev,  Jaehoon Kim,  P. Klunzinger,  Z. Koczor-Benda,  
 Joong Hoon Koh,  D. Kosenkov,  L. Koulias,  T. Kowalczyk,  C. M. Krauter,  
 K. Kue,  A. Kunitsa,  T. Kus,  A. Landau,  K. V. Lawler,  D. Lefrancois,  
 S. Lehtola,  Rain Li,  Yi-Pei Li,  Jiashu Liang,  M. Liebenthal,  
 Hung-Hsuan Lin,  You-Sheng Lin,  Fenglai Liu,  Kuan-Yu Liu,  
 M. Loipersberger,  A. Luenser,  A. Manjanath,  P. Manohar,  E. Mansoor,  
 S. F. Manzer,  Shan-Ping Mao,  A. V. Marenich,  T. Markovich,  S. Mason,  
 S. A. Maurer,  P. F. McLaughlin,  M. F. S. J. Menger,  J.-M. Mewes,  
 S. A. Mewes,  P. Morgante,  J. W. Mullinax,  K. J. Oosterbaan,  G. Paran,  
 Alexander C. Paul,  Suranjan K. Paul,  F. Pavosevic,  Zheng Pei,  S. Prager,  
 E. I. Proynov,  E. Ramos,  B. Rana,  A. E. Rask,  A. Rettig,  R. M. Richard,  
 F. Rob,  E. Rossomme,  T. Scheele,  M. Scheurer,  M. Schneider,  
 N. Sergueev,  S. M. Sharada,  W. Skomorowski,  D. W. Small,  C. J. Stein,  
 Yu-Chuan Su,  E. J. Sundstrom,  Zhen Tao,  J. Thirman,  T. Tsuchimochi,  
 N. M. Tubman,  S. P. Veccham,  O. Vydrov,  J. Wenzel,  J. Witte,  A. Yamada,  
 Kun Yao,  S. Yeganeh,  S. R. Yost,  A. Zech,  Igor Ying Zhang,  Xing Zhang,  
 Yu Zhang,  D. Zuev,  A. Aspuru-Guzik,  A. T. Bell,  N. A. Besley,  
 K. B. Bravaya,  B. R. Brooks,  D. Casanova,  Jeng-Da Chai,  S. Coriani,  
 C. J. Cramer,  A. E. DePrince, III,  R. A. DiStasio Jr.,  A. Dreuw,  
 B. D. Dunietz,  T. R. Furlani,  W. A. Goddard III,  S. Grimme,  
 S. Hammes-Schiffer,  T. Head-Gordon,  W. J. Hehre,  Chao-Ping Hsu,  
 T.-C. Jagau,  Yousung Jung,  A. Klamt,  Jing Kong,  D. S. Lambrecht,  
 WanZhen Liang,  N. J. Mayhall,  C. W. McCurdy,  J. B. Neaton,  
 C. Ochsenfeld,  J. A. Parkhill,  R. Peverati,  V. A. Rassolov,  Yihan Shao,  
 L. V. Slipchenko,  T. Stauch,  R. P. Steele,  J. E. Subotnik,  
 A. J. W. Thom,  A. Tkatchenko,  D. G. Truhlar,  T. Van Voorhis,  
 T. A. Wesolowski,  K. B. Whaley,  H. L. Woodcock III,  P. M. Zimmerman,  
 S. Faraji,  P. M. W. Gill,  M. Head-Gordon,  J. M. Herbert,  A. I. Krylov

 Additional authors for Version 5.4.1: 
 S. Kotaru,  Shaozhi Li,  Xiangyuan Li,  F. Matz,  A. Molle,  Haisheng Ren,  
 Yingli Su,  Hung-Yi Tsai,  C. Utku,  Fang Wang

 Contributors to earlier versions of Q-Chem not listed above: 
 R. D. Adamson,  B. Austin,  R. Baer,  J. Baker,  G. J. O. Beran,  
 K. Brandhorst,  S. T. Brown,  E. F. C. Byrd,  A. K. Chakraborty,  
 G. K. L. Chan,  Chun-Min Chang,  Yunqing Chen,  C.-L. Cheng,  
 Siu Hung Chien,  D. M. Chipman,  D. L. Crittenden,  H. Dachsel,  
 R. J. Doerksen,  A. D. Dutoi,  R. G. Edgar,  J. Fosso-Tande,  
 L. Fusti-Molnar,  D. Ghosh,  A. Ghysels,  A. Golubeva-Zadorozhnaya,  
 J. Gonthier,  M. S. Gordon,  S. R. Gwaltney,  G. Hawkins,  J. E. Herr,  
 A. Heyden,  S. Hirata,  E. G. Hohenstein,  G. Kedziora,  F. J. Keil,  
 C. Kelley,  Jihan Kim,  R. A. King,  R. Z. Khaliullin,  P. P. Korambath,  
 W. Kurlancheek,  A. Laurent,  A. M. Lee,  M. S. Lee,  S. V. Levchenko,  
 Ching Yeh Lin,  D. Liotard,  E. Livshits,  R. C. Lochan,  I. Lotan,  
 L. A. Martinez-Martinez,  P. E. Maslen,  N. Nair,  D. P. O'Neill,  
 D. Neuhauser,  E. Neuscamman,  C. M. Oana,  R. Olivares-Amaya,  R. Olson,  
 T. M. Perrine,  B. Peters,  P. A. Pieniazek,  A. Prociuk,  Y. M. Rhee,  
 J. Ritchie,  M. A. Rohrdanz,  E. Rosta,  N. J. Russ,  H. F. Schaefer III,  
 M. W. Schmidt,  N. E. Schultz,  S. Sharma,  N. Shenvi,  C. D. Sherrill,  
 A. C. Simmonett,  A. Sodt,  T. Stein,  D. Stuck,  K. S. Thanthiriwatte,  
 V. Vanovschi,  L. Vogt,  Tao Wang,  A. Warshel,  M. A. Watson,  
 C. F. Williams,  Q. Wu,  X. Xu,  Jun Yang,  W. Zhang,  Yan Zhao

 Please cite Q-Chem as follows:
 Y. Shao et al., Mol. Phys. 113, 184-215 (2015)
 DOI: 10.1080/00268976.2014.952696

 Q-Chem 5.4.1 for Intel X86 EM64T Linux

 Parts of Q-Chem use Armadillo 9.900.5 (Nocturnal Misbehaviour).
 http://arma.sourceforge.net/

 Q-Chem begins on Wed Mar  2 21:09:17 2022  

 Host: node01
0

     Scratch files written to /src/jdavis/qchem.scratch/qchem27567//
 Processing $rem in /src/tsommerfeld/qchem/config/preferences:
 Processing $rem in /home/jdavis/.qchemrc:

 Checking the input file for inconsistencies... 	...done.

--------------------------------------------------------------
User input:
--------------------------------------------------------------
$molecule
-1 1
C        -0.6645000000    0.0000000000    1.1619088658
C         0.6645000000    0.0000000000    1.1619088658
H        -1.1590800000    0.0000000000    0.1995598658
H         1.1590800000    0.0000000000    0.1995598658
H        -1.1590800000    0.0000000000    2.1242568658
H         1.1590800000    0.0000000000    2.1242568658
O         0.0000000000    0.0000000000   -1.5841414040
H         0.0000000000    0.0000000000   -2.5471307683
$end
$rem
   METHOD adc(2)
   BASIS gen
   PURECART 11
   EE_STATES [0,10,0,0]
   scf_convergence 8
   ADC_DAVIDSON_MAXITER 120
   ADC_DAVIDSON_MAXSUBSPACE 200
   adc_nguess_singles 100
   THRESH 14
   S2THRESH 14
   adc_davidson_conv 5
   adc_davidson_thresh 14
   THREADS 10
   MEM_TOTAL 95000
   STATE_ANALYSIS TRUE
$end
$basis
C 1
S   9   1.00
      6.665000D+03           6.920000D-04
      1.000000D+03           5.329000D-03
      2.280000D+02           2.707700D-02
      6.471000D+01           1.017180D-01
      2.106000D+01           2.747400D-01
      7.495000D+00           4.485640D-01
      2.797000D+00           2.850740D-01
      5.215000D-01           1.520400D-02
      1.596000D-01          -3.191000D-03
S   9   1.00
      6.665000D+03          -1.460000D-04
      1.000000D+03          -1.154000D-03
      2.280000D+02          -5.725000D-03
      6.471000D+01          -2.331200D-02
      2.106000D+01          -6.395500D-02
      7.495000D+00          -1.499810D-01
      2.797000D+00          -1.272620D-01
      5.215000D-01           5.445290D-01
      1.596000D-01           5.804960D-01
S   1   1.00
      1.596000D-01           1.000000D+00
S   1   1.00
      0.0469000              1.0000000
P   4   1.00
      9.439000D+00           3.810900D-02
      2.002000D+00           2.094800D-01
      5.456000D-01           5.085570D-01
      1.517000D-01           4.688420D-01
P   1   1.00
      1.517000D-01           1.000000D+00
P   1   1.00
      0.034937      1.0000000
P   1   1.00
      0.0174685      1.0000000
D   1   1.00
      5.500000D-01           1.0000000
****
C 2
S   9   1.00
      6.665000D+03           6.920000D-04
      1.000000D+03           5.329000D-03
      2.280000D+02           2.707700D-02
      6.471000D+01           1.017180D-01
      2.106000D+01           2.747400D-01
      7.495000D+00           4.485640D-01
      2.797000D+00           2.850740D-01
      5.215000D-01           1.520400D-02
      1.596000D-01          -3.191000D-03
S   9   1.00
      6.665000D+03          -1.460000D-04
      1.000000D+03          -1.154000D-03
      2.280000D+02          -5.725000D-03
      6.471000D+01          -2.331200D-02
      2.106000D+01          -6.395500D-02
      7.495000D+00          -1.499810D-01
      2.797000D+00          -1.272620D-01
      5.215000D-01           5.445290D-01
      1.596000D-01           5.804960D-01
S   1   1.00
      1.596000D-01           1.000000D+00
S   1   1.00
      0.0469000              1.0000000
P   4   1.00
      9.439000D+00           3.810900D-02
      2.002000D+00           2.094800D-01
      5.456000D-01           5.085570D-01
      1.517000D-01           4.688420D-01
P   1   1.00
      1.517000D-01           1.000000D+00
P   1   1.00
      0.034937      1.0000000
P   1   1.00
      0.0174685      1.0000000
D   1   1.00
      5.500000D-01           1.0000000
****
H 3
cc-pVDZ
****
H 4
cc-pVDZ
****
H 5
cc-pVDZ
****
H 6
cc-pVDZ
****
O 7
aug-cc-pVDZ
****
H 8
cc-pVDZ
****
$end
--------------------------------------------------------------
 ----------------------------------------------------------------
             Standard Nuclear Orientation (Angstroms)
    I     Atom           X                Y                Z
 ----------------------------------------------------------------
    1      C      -0.6645000000    -0.0000000000     1.0270977517
    2      C       0.6645000000     0.0000000000     1.0270977517
    3      H      -1.1590800000    -0.0000000000     0.0647487517
    4      H       1.1590800000     0.0000000000     0.0647487517
    5      H      -1.1590800000    -0.0000000000     1.9894457517
    6      H       1.1590800000     0.0000000000     1.9894457517
    7      O       0.0000000000    -0.0000000000    -1.7189525181
    8      H       0.0000000000    -0.0000000000    -2.6819418824
 ----------------------------------------------------------------
 Molecular Point Group                 C2v   NOp =  4
 Largest Abelian Subgroup              C2v   NOp =  4
 Nuclear Repulsion Energy =          64.38561153 hartrees
 There are       13 alpha and       13 beta electrons
 Requested basis set is non-standard
 There are 42 shells and 90 basis functions
 Total memory of 95000 MB is distributed as follows: 
   MEM_STATIC is set to 192 MB
   QALLOC/CCMAN JOB total memory use is  94808 MB
 Warning: actual memory use might exceed 95000 MB

 Total QAlloc Memory Limit  95000 MB
 Mega-Array Size       188 MB
 MEM_STATIC part       192 MB

                       Distance Matrix (Angstroms)
             C (  1)   C (  2)   H (  3)   H (  4)   H (  5)   H (  6)
   C (  2)  1.329000
   H (  3)  1.082000  2.061931
   H (  4)  2.061931  1.082000  2.318160
   H (  5)  1.082000  2.061931  1.924697  3.013026
   H (  6)  2.061931  1.082000  3.013026  1.924697  2.318160
   O (  7)  2.825306  2.825306  2.127218  2.127218  3.885316  3.885316
   H (  8)  3.768094  3.768094  2.981237  2.981237  4.813037  4.813037
             O (  7)
   H (  8)  0.962989
 
 A cutoff of  1.0D-14 yielded    903 shell pairs
 There are      4183 function pairs (      4573 Cartesian)
 Smallest overlap matrix eigenvalue = 5.62E-04

 Scale SEOQF with 1.000000e-01/1.000000e-01/1.000000e-01

 Standard Electronic Orientation quadrupole field applied
 Nucleus-field energy     =    -0.0000000051 hartrees
 ================ Generating on-the-fly SAD Guess ================
Attempting to make child job directory: /src/jdavis/qchem.scratch/qchem27567//Frg1/
Attempting to make child job directory: /src/jdavis/qchem.scratch/qchem27567//Frg2/
Attempting to make child job directory: /src/jdavis/qchem.scratch/qchem27567//Frg3/
Creating input file /src/jdavis/qchem.scratch/qchem27567/Frg1.input
using default PutDataFrgm: nothing
calling putenv with: QCSCRATCH=/src/jdavis/qchem.scratch/qchem27567/ 
Spawning Job For Fragment 0
Done Job For Fragment 0
calling putenv with: QCSCRATCH=/src/jdavis/qchem.scratch 
calling putenv with: QCTHREADS=1 
Creating input file /src/jdavis/qchem.scratch/qchem27567/Frg2.input
using default PutDataFrgm: nothing
calling putenv with: QCSCRATCH=/src/jdavis/qchem.scratch/qchem27567/ 
Spawning Job For Fragment 1
Done Job For Fragment 1
calling putenv with: QCSCRATCH=/src/jdavis/qchem.scratch 
calling putenv with: QCTHREADS=1 
Creating input file /src/jdavis/qchem.scratch/qchem27567/Frg3.input
using default PutDataFrgm: nothing
calling putenv with: QCSCRATCH=/src/jdavis/qchem.scratch/qchem27567/ 
Spawning Job For Fragment 2
Done Job For Fragment 2
calling putenv with: QCSCRATCH=/src/jdavis/qchem.scratch 
calling putenv with: QCTHREADS=1 
 Time for running child jobs:  CPU 1.81 s  wall 80.61 s
 ============= Method Specific SAD Guess Constructed =============
 Guess from on-the-fly superposition of atomic densities
 Warning: Energy on first SCF cycle will be non-variational
 A restricted Hartree-Fock SCF calculation will be
 performed using Pulay DIIS extrapolation
 SCF converges when DIIS error is below 1.0E-08
 using 10 threads for integral computing
 -------------------------------------------------------
 OpenMP Integral computing Module                
 Release: version 1.0, May 2013, Q-Chem Inc. Pittsburgh 
 -------------------------------------------------------
 ---------------------------------------
  Cycle       Energy         DIIS Error
 ---------------------------------------
    1    -153.5741147407      5.98E-02
    2    -153.2897238820      1.22E-02
    3    -153.3538915366      1.03E-02
    4    -153.4401156259      7.76E-04
    5    -153.4410749847      2.13E-04
    6    -153.4411503591      4.61E-05
    7    -153.4411557672      1.22E-05
    8    -153.4411563375      3.67E-06
    9    -153.4411563861      7.17E-07
   10    -153.4411563878      1.36E-07
   11    -153.4411563879      4.52E-08
   12    -153.4411563879      1.44E-08
   13    -153.4411563879      2.67E-09 Convergence criterion met
 ---------------------------------------
 SCF time:  CPU 14.69 s  wall 1.48 s
 SCF   energy in the final basis set = -153.44115639
 Total energy in the final basis set = -153.44115639
================================================================================
|                                                                              |
|                                 A D C  M A N                                 |
|                                                                              |
 ------------------------------------------------------------------------------ 
|                                                                              |
| Components:                                                                  |
|                                                                              |
| - libvmm - 1.3-trunk                                                         |
|   Authors:                                                                   |
|   Evgeny Epifanovsky, Ilya Kaliman                                           |
|                                                                              |
| - libtensor - 2.5-trunk                                                      |
|   Authors:                                                                   |
|   Evgeny Epifanovsky, Michael Wormit, Dmitry Zuev, Sam Manzer,               |
|   Ilya Kaliman                                                               |
|                                                                              |
| - libwfa - 1.1-trunk                                                         |
|   Authors:                                                                   |
|   Felix Plasser, Stefanie Mewes (Baeppler), Benjamin Thomitzni,              |
|   Michael Wormit, Feng Chen, Anna I. Krylov, Pavel Pokhilko                  |
|                                                                              |
| - libadc - 1.1-trunk                                                         |
|   Authors:                                                                   |
|   Michael Wormit, Adrian L. Dempwolff, Philipp H. P. Harbach,                |
|   Caroline Krauter, Dirk Rehn, Matthias Schneider, Jan Wenzel                |
|                                                                              |
| - adcman - 2.6-trunk                                                         |
|   Authors:                                                                   |
|   Michael Wormit, Adrian L. Dempwolff, Philipp H. P. Harbach,                |
|   Caroline Krauter, Daniel Lefrancois, Jan-Michael Mewes, Dirk Rehn,         |
|   Matthias Schneider, Jan Wenzel, Andreas Dreuw                              |
|                                                                              |
| Authors of earlier versions of ADCMAN:                                       |
| Andreas Dreuw, Jan Hendrik Starcke, Dirk Rehn, Michael Wormit                |
|                                                                              |
================================================================================

 
 Alpha MOs, Restricted
 -- Occupied --                  
-20.213 -11.049 -11.047  -0.930  -0.854  -0.598  -0.473  -0.384
  1 A1    2 A1    1 B1    3 A1    4 A1    2 B1    5 A1    6 A1                 
 -0.328  -0.271  -0.194  -0.130  -0.128
  3 B1    7 A1    1 B2    4 B1    2 B2                                         
 -- Virtual --                   
  0.117   0.131   0.138   0.141   0.147   0.150   0.218   0.227
  5 B1    8 A1    3 B2    1 A2    9 A1    6 B1   10 A1    7 B1                 
  0.266   0.277   0.291   0.301   0.331   0.359   0.403   0.431
  2 A2   11 A1    8 B1    4 B2   12 A1   13 A1    3 A2    9 B1                 
  0.449   0.472   0.475   0.528   0.541   0.578   0.629   0.657
  5 B2   10 B1   14 A1   15 A1   11 B1   16 A1   12 B1   17 A1                 
  0.684   0.840   0.961   1.007   1.057   1.074   1.082   1.131
 13 B1   18 A1   19 A1    6 B2   20 A1    4 A2   21 A1   14 B1                 
  1.183   1.203   1.206   1.215   1.291   1.299   1.332   1.332
 15 B1    7 B2   16 B1   22 A1    5 A2   23 A1   24 A1   17 B1                 
  1.370   1.467   1.481   1.483   1.561   1.642   1.691   1.719
  8 B2    9 B2   18 B1    6 A2   19 B1   25 A1   20 B1   10 B2                 
  1.851   1.927   1.966   2.033   2.124   2.130   2.139   2.191
 26 A1   21 B1   27 A1    7 A2   11 B2   28 A1   22 B1   29 A1                 
  2.212   2.287   2.356   2.393   2.437   2.474   2.553   2.604
 12 B2   30 A1    8 A2   13 B2   23 B1   24 B1   31 A1    9 A2                 
  2.730   2.750   2.846   3.007   3.036   3.087   3.458   3.562
 25 B1   32 A1   26 B1   33 A1   34 A1   35 A1   27 B1   28 B1                 
  3.921   3.945   3.970   4.087   4.537
 14 B2   10 A2   36 A1   29 B1   37 A1                                         
 
 Beta MOs, Restricted
 -- Occupied --                  
-20.213 -11.049 -11.047  -0.930  -0.854  -0.598  -0.473  -0.384
  1 A1    2 A1    1 B1    3 A1    4 A1    2 B1    5 A1    6 A1                 
 -0.328  -0.271  -0.194  -0.130  -0.128
  3 B1    7 A1    1 B2    4 B1    2 B2                                         
 -- Virtual --                   
  0.117   0.131   0.138   0.141   0.147   0.150   0.218   0.227
  5 B1    8 A1    3 B2    1 A2    9 A1    6 B1   10 A1    7 B1                 
  0.266   0.277   0.291   0.301   0.331   0.359   0.403   0.431
  2 A2   11 A1    8 B1    4 B2   12 A1   13 A1    3 A2    9 B1                 
  0.449   0.472   0.475   0.528   0.541   0.578   0.629   0.657
  5 B2   10 B1   14 A1   15 A1   11 B1   16 A1   12 B1   17 A1                 
  0.684   0.840   0.961   1.007   1.057   1.074   1.082   1.131
 13 B1   18 A1   19 A1    6 B2   20 A1    4 A2   21 A1   14 B1                 
  1.183   1.203   1.206   1.215   1.291   1.299   1.332   1.332
 15 B1    7 B2   16 B1   22 A1    5 A2   23 A1   24 A1   17 B1                 
  1.370   1.467   1.481   1.483   1.561   1.642   1.691   1.719
  8 B2    9 B2   18 B1    6 A2   19 B1   25 A1   20 B1   10 B2                 
  1.851   1.927   1.966   2.033   2.124   2.130   2.139   2.191
 26 A1   21 B1   27 A1    7 A2   11 B2   28 A1   22 B1   29 A1                 
  2.212   2.287   2.356   2.393   2.437   2.474   2.553   2.604
 12 B2   30 A1    8 A2   13 B2   23 B1   24 B1   31 A1    9 A2                 
  2.730   2.750   2.846   3.007   3.036   3.087   3.458   3.562
 25 B1   32 A1   26 B1   33 A1   34 A1   35 A1   27 B1   28 B1                 
  3.921   3.945   3.970   4.087   4.537
 14 B2   10 A2   36 A1   29 B1   37 A1                                         

--------------------------------------------------------------------------------
                                   HF Summary                                   
--------------------------------------------------------------------------------
  Energy:                                                 -153.4411563879 a.u.
  Dip. moment [a.u.]:                  [   0.000000,   -0.000000,    2.075358]
  Total dipole [Debye]:                                               5.275036
  <r^2> [a.u.]:                        [  55.715002,   19.706056,  208.028053]
  Total <r^2> [a.u.]:                                               283.449111
--------------------------------------------------------------------------------

--------------------------------------------------------------------------------
                                 MP(2) Summary                                  
--------------------------------------------------------------------------------
  MP energy contribution:                                   -0.5276792090 a.u.
  Total energy:                                           -153.9688355969 a.u.
  Dip. moment [a.u.]:                  [   0.000000,   -0.000000,    2.142641]
  Total dipole [Debye]:                                               5.446052
  <r^2> [a.u.]:                        [  56.710552,   20.416396,  209.293606]
  Total <r^2> [a.u.]:                                               286.420554

  Density matrix analysis:
  ------------------------
  NOs
    Occupation of frontier NOs:
       0.0446   1.9359
    Number of electrons: 26.000000
    Number of unpaired electrons: n_u =  0.71406, n_u,nl =  0.08515
    NO participation ratio (PR_NO): 22.996023
  
  
  Mulliken Population Analysis
  Atom      Charge (e)              h+              e-           Del q
  --------------------------------------------------------------------
   1 C       -0.185816        0.094802       -0.100429       -0.005627
   2 C       -0.185816        0.094802       -0.100429       -0.005627
   3 H        0.180564        0.017360       -0.010409        0.006952
   4 H        0.180564        0.017360       -0.010409        0.006952
   5 H        0.007242        0.018343       -0.012873        0.005470
   6 H        0.007242        0.018343       -0.012873        0.005470
   7 O       -1.055257        0.277494       -0.273668        0.003826
   8 H        0.051275        0.015483       -0.032897       -0.017414
  --------------------------------------------------------------------
  Sum:       -1.000000        0.553987       -0.553987       -0.000000
  
  Multipole moment analysis of the density matrix
    Molecular charge:                      -1.000000
    Number of electrons:                   26.000000
      Center of electronic charge [Ang]: [ -0.000000,   0.000000,  -0.043609]
    Total nuclear charge:                  25.000000
      Center of nuclear charge [Ang]:    [  0.000000,   0.000000,  -0.000000]
    Dipole moment [D]:                     5.446050
      Cartesian components [D]:          [  0.000000,  -0.000000,   5.446050]
    RMS size of the density [Ang]:         1.755831
      Cartesian components [Ang]:        [  0.781531,   0.468926,   1.500753]
  
  Exciton analysis of the difference density matrix
    <r_h> [Ang]:                  [ -0.000000,  -0.000000,  -0.481352]
    <r_e> [Ang]:                  [ -0.000000,  -0.000000,  -0.545622]
    |<r_e - r_h>| [Ang]:            0.064270
    Hole size [Ang]:                1.980558
      Cartesian components [Ang]: [  0.901473,   0.769996,   1.586525]
    Electron size [Ang]:            2.314866
      Cartesian components [Ang]: [  1.147119,   0.975682,   1.758058]
--------------------------------------------------------------------------------
  Starting Davidson for singlet states of irrep A2 ... 
--------------------------------------------------------------------------------
   It NVec Conv  Avg. Norm  Max. Norm  Conv. states           Remark
--------------------------------------------------------------------------------
       100    0  1.499e-01  5.410e-01  0.2305 n n n n n n n n Guess.
    1  110    0  1.339e-02  5.978e-02  0.0581 n n n n n n n n 
    2  120    0  5.615e-03  5.144e-02  0.0568 n n n n n n n n 
    3  130    0  5.626e-03  5.450e-02  0.0568 n n n n n n n n 
    4  140    1  6.322e-04  6.069e-03  0.0568 n y n n n n n n 
    5  150    4  1.471e-04  1.389e-03  0.0568 y y y n n n y n 
    6  160    8  1.954e-05  1.856e-04  0.0568 y y y y y y y n 
    7  170    9  2.048e-06  1.933e-05  0.0568 y y y y y y y n 
    8  180   10  1.831e-07  1.656e-06  0.0568 y y y y y y y y Converged.
--------------------------------------------------------------------------------
  Davidson Summary: 
 ------------------------------------------------------------
  State  0: excitation energy =   0.0568 a.u.   (converged)
  State  1: excitation energy =   0.0666 a.u.   (converged)
  State  2: excitation energy =   0.0743 a.u.   (converged)
  State  3: excitation energy =   0.1409 a.u.   (converged)
  State  4: excitation energy =   0.1930 a.u.   (converged)
  State  5: excitation energy =   0.1945 a.u.   (converged)
  State  6: excitation energy =   0.2056 a.u.   (converged)
  State  7: excitation energy =   0.2261 a.u.   (converged)
  State  8: excitation energy =   0.2465 a.u.   (converged)
  State  9: excitation energy =   0.2718 a.u.   (converged)
 ------------------------------------------------------------


--------------------------------------------------------------------------------
                   State-averaged natural transition orbitals
--------------------------------------------------------------------------------
--------------------------------------------------------------------------------

--------------------------------------------------------------------------------
                             Excited State Summary
--------------------------------------------------------------------------------
--------------------------------------------------------------------------------

  Excited state 1 (singlet, A2)                                    [converged]
  ----------------------------------------------------------------------------
  Term symbol:  1 (1) A2                                    R^2 =  8.67608e-10

  Total energy:                                           -153.9119998764 a.u.
  Excitation energy:                                               1.546579 eV

  Osc. strength:                                                      0.000000
  Trans. dip. moment [a.u.]:           [   0.000000,   -0.000000,    0.000000]
  <i|r^2|0> [a.u.]:                    [  -0.000000,   -0.000000,   -0.000000]

  Dip. moment [a.u.]:                  [  -0.000000,    0.000000,   -3.478454]
  Total dipole [Debye]:                                               8.841350
  <r^2> [a.u.]:                        [ 126.442718,   41.754470,  223.865034]
  Total <r^2> [a.u.]:                                               392.062222

  V1^2 = 0.8661, V2^2 = 0.1339

  Important amplitudes:
      occ i      occ j       vir a       vir b          v   
    ---------------------------------------------------------
     2 (B2) A               5 (B1) A                 -0.5874
     2 (B2) A               6 (B1) A                 -0.2717
    ---------------------------------------------------------

  Density matrix analysis:
  ------------------------
  NOs
    Occupation of frontier NOs:
       0.9610   0.9995
    Number of electrons: 26.000000
    Number of unpaired electrons: n_u =  2.74940, n_u,nl =  2.11512
    NO participation ratio (PR_NO):  3.868940
  
  
  Mulliken Population Analysis
  Atom      Charge (e)              h+              e-           Del q
  --------------------------------------------------------------------
   1 C       -0.694368        0.040419       -0.548972       -0.508553
   2 C       -0.694368        0.040419       -0.548972       -0.508553
   3 H        0.146088       -0.000816       -0.033660       -0.034476
   4 H        0.146088       -0.000816       -0.033660       -0.034476
   5 H        0.044804        0.037081        0.000480        0.037561
   6 H        0.044804        0.037081        0.000480        0.037561
   7 O       -0.159670        1.404006       -0.508419        0.895587
   8 H        0.166622        0.140571       -0.025224        0.115347
  --------------------------------------------------------------------
  Sum:       -1.000000        1.697946       -1.697946       -0.000000
  
  Multipole moment analysis of the density matrix
    Molecular charge:                      -1.000000
    Number of electrons:                   26.000000
      Center of electronic charge [Ang]: [  0.000000,  -0.000000,   0.070797]
    Total nuclear charge:                  25.000000
      Center of nuclear charge [Ang]:    [  0.000000,   0.000000,  -0.000000]
    Dipole moment [D]:                     8.841347
      Cartesian components [D]:          [ -0.000000,   0.000000,  -8.841347]
    RMS size of the density [Ang]:         2.053686
      Cartesian components [Ang]:        [  1.166975,   0.670604,   1.551157]
  
  Exciton analysis of the difference density matrix
    <r_h> [Ang]:                  [ -0.000000,   0.000000,  -1.469843]
    <r_e> [Ang]:                  [  0.000000,  -0.000000,   0.282013]
    |<r_e - r_h>| [Ang]:            1.751855
    Hole size [Ang]:                1.804405
      Cartesian components [Ang]: [  0.860068,   0.890459,   1.312723]
    Electron size [Ang]:            4.770683
      Cartesian components [Ang]: [  3.498583,   2.076544,   2.491445]

  Transition density matrix analysis:
  -----------------------------------
  
  CT numbers (Mulliken)
    omega =     0.8514
    <Phe> =     0.0002
  
  Exciton analysis of the transition density matrix
    Trans. dipole moment [D]:             0.000000
      Cartesian components [D]:         [  0.000000,  -0.000000,   0.000000]
    <r_h> [Ang]:                        [ -0.000000,  -0.000000,  -1.743735]
    <r_e> [Ang]:                        [  0.000000,  -0.000000,   1.306920]
    |<r_e - r_h>| [Ang]:                  3.050655
    Hole size [Ang]:                      1.100498
      Cartesian components [Ang]:       [  0.479505,   0.827002,   0.545196]
    Electron size [Ang]:                  5.812887
      Cartesian components [Ang]:       [  4.492515,   2.632503,   2.583969]
    RMS electron-hole separation [Ang]:   6.654506
      Cartesian components [Ang]:       [  4.517792,   2.757293,   4.033526]
    Covariance(r_h, r_e) [Ang^2]:         0.012402
    Correlation coefficient:              0.001939
    Center-of-mass size [Ang]:            2.959120
      Cartesian components [Ang]:       [  2.259136,   1.380701,   1.321498]

  Decomposition into state-averaged NTOs
    H- 0 -> L+ 0: -0.4661 ( 43.4%)
    H- 0 -> L+ 1:  0.4413 ( 39.0%)
    H- 0 -> L+ 7:  0.1089 (  2.4%)
                   omega =  85.1%
  ----------------------------------------------------------------------------


  Excited state 2 (singlet, A2)                                    [converged]
  ----------------------------------------------------------------------------
  Term symbol:  2 (1) A2                                    R^2 =  5.51834e-10

  Total energy:                                           -153.9022631684 a.u.
  Excitation energy:                                               1.811528 eV

  Osc. strength:                                                      0.000000
  Trans. dip. moment [a.u.]:           [   0.000000,   -0.000000,    0.000000]
  <i|r^2|0> [a.u.]:                    [  -0.000000,   -0.000000,   -0.000000]

  Dip. moment [a.u.]:                  [   0.000000,    0.000000,   -3.005742]
  Total dipole [Debye]:                                               7.639836
  <r^2> [a.u.]:                        [  74.497620,   80.016306,  218.114529]
  Total <r^2> [a.u.]:                                               372.628455

  V1^2 = 0.8684, V2^2 = 0.1316

  Important amplitudes:
      occ i      occ j       vir a       vir b          v   
    ---------------------------------------------------------
     4 (B1) A               3 (B2) A                  0.6553
     4 (B1) A   4 (B1) B   10 (B1) A    3 (B2) B      0.0524
    ---------------------------------------------------------

  Density matrix analysis:
  ------------------------
  NOs
    Occupation of frontier NOs:
       0.9622   0.9997
    Number of electrons: 26.000000
    Number of unpaired electrons: n_u =  2.74687, n_u,nl =  2.11362
    NO participation ratio (PR_NO):  3.857473
  
  
  Mulliken Population Analysis
  Atom      Charge (e)              h+              e-           Del q
  --------------------------------------------------------------------
   1 C       -0.672549        0.049894       -0.536627       -0.486733
   2 C       -0.672549        0.049894       -0.536627       -0.486733
   3 H        0.131035       -0.006521       -0.043008       -0.049530
   4 H        0.131035       -0.006521       -0.043008       -0.049530
   5 H        0.038799        0.033787       -0.002230        0.031557
   6 H        0.038799        0.033787       -0.002230        0.031557
   7 O       -0.158613        1.400112       -0.503468        0.896644
   8 H        0.164042        0.137433       -0.024666        0.112767
  --------------------------------------------------------------------
  Sum:       -1.000000        1.691864       -1.691864       -0.000000
  
  Multipole moment analysis of the density matrix
    Molecular charge:                      -1.000000
    Number of electrons:                   26.000000
      Center of electronic charge [Ang]: [ -0.000000,  -0.000000,   0.061176]
    Total nuclear charge:                  25.000000
      Center of nuclear charge [Ang]:    [  0.000000,   0.000000,  -0.000000]
    Dipole moment [D]:                     7.639834
      Cartesian components [D]:          [  0.000000,   0.000000,  -7.639834]
    RMS size of the density [Ang]:         2.002396
      Cartesian components [Ang]:        [  0.895748,   0.928333,   1.531477]
  
  Exciton analysis of the difference density matrix
    <r_h> [Ang]:                  [ -0.000000,   0.000000,  -1.461834]
    <r_e> [Ang]:                  [ -0.000000,  -0.000000,   0.148466]
    |<r_e - r_h>| [Ang]:            1.610300
    Hole size [Ang]:                1.800287
      Cartesian components [Ang]: [  0.935959,   0.796896,   1.315283]
    Electron size [Ang]:            4.429970
      Cartesian components [Ang]: [  1.954493,   3.240326,   2.303232]

  Transition density matrix analysis:
  -----------------------------------
  
  CT numbers (Mulliken)
    omega =     0.8535
    <Phe> =     0.0001
  
  Exciton analysis of the transition density matrix
    Trans. dipole moment [D]:             0.000000
      Cartesian components [D]:         [  0.000000,  -0.000000,   0.000000]
    <r_h> [Ang]:                        [  0.000000,  -0.000000,  -1.724714]
    <r_e> [Ang]:                        [ -0.000000,  -0.000000,   1.088926]
    |<r_e - r_h>| [Ang]:                  2.813639
    Hole size [Ang]:                      1.142918
      Cartesian components [Ang]:       [  0.825937,   0.474667,   0.631491]
    Electron size [Ang]:                  5.374999
      Cartesian components [Ang]:       [  2.442082,   4.159107,   2.372484]
    RMS electron-hole separation [Ang]:   6.172378
      Cartesian components [Ang]:       [  2.575689,   4.186053,   3.733770]
    Covariance(r_h, r_e) [Ang^2]:         0.007596
    Correlation coefficient:              0.001237
    Center-of-mass size [Ang]:            2.748275
      Cartesian components [Ang]:       [  1.290126,   2.093079,   1.227849]

  Decomposition into state-averaged NTOs
    H- 1 -> L+ 5:  0.5764 ( 66.4%)
    H- 1 -> L+ 4:  0.2806 ( 15.7%)
    H- 1 -> L+ 2: -0.1231 (  3.0%)
                   omega =  85.3%
  ----------------------------------------------------------------------------


  Excited state 3 (singlet, A2)                                    [converged]
  ----------------------------------------------------------------------------
  Term symbol:  3 (1) A2                                    R^2 =  8.05415e-10

  Total energy:                                           -153.8945609456 a.u.
  Excitation energy:                                               2.021116 eV

  Osc. strength:                                                      0.000000
  Trans. dip. moment [a.u.]:           [   0.000000,    0.000000,    0.000000]
  <i|r^2|0> [a.u.]:                    [   0.000000,    0.000000,    0.000000]

  Dip. moment [a.u.]:                  [  -0.000000,    0.000000,   -2.315734]
  Total dipole [Debye]:                                               5.886011
  <r^2> [a.u.]:                        [ 112.724068,   36.202805,  252.196625]
  Total <r^2> [a.u.]:                                               401.123497

  V1^2 = 0.8678, V2^2 = 0.1322

  Important amplitudes:
      occ i      occ j       vir a       vir b          v   
    ---------------------------------------------------------
     2 (B2) A               6 (B1) A                  0.5928
     2 (B2) A               5 (B1) A                 -0.2711
    ---------------------------------------------------------

  Density matrix analysis:
  ------------------------
  NOs
    Occupation of frontier NOs:
       0.9613   1.0009
    Number of electrons: 26.000000
    Number of unpaired electrons: n_u =  2.74464, n_u,nl =  2.11376
    NO participation ratio (PR_NO):  3.856933
  
  
  Mulliken Population Analysis
  Atom      Charge (e)              h+              e-           Del q
  --------------------------------------------------------------------
   1 C       -0.678305        0.037952       -0.530441       -0.492489
   2 C       -0.678305        0.037952       -0.530441       -0.492489
   3 H        0.141801       -0.003520       -0.035243       -0.038764
   4 H        0.141801       -0.003520       -0.035243       -0.038764
   5 H        0.033968        0.036893       -0.010167        0.026726
   6 H        0.033968        0.036893       -0.010167        0.026726
   7 O       -0.165020        1.402390       -0.512152        0.890237
   8 H        0.170091        0.144673       -0.025856        0.118817
  --------------------------------------------------------------------
  Sum:       -1.000000        1.689711       -1.689711       -0.000000
  
  Multipole moment analysis of the density matrix
    Molecular charge:                      -1.000000
    Number of electrons:                   26.000000
      Center of electronic charge [Ang]: [  0.000000,  -0.000000,   0.047132]
    Total nuclear charge:                  25.000000
      Center of nuclear charge [Ang]:    [  0.000000,   0.000000,  -0.000000]
    Dipole moment [D]:                     5.886009
      Cartesian components [D]:          [ -0.000000,   0.000000,  -5.886009]
    RMS size of the density [Ang]:         2.077982
      Cartesian components [Ang]:        [  1.101851,   0.624433,   1.647428]
  
  Exciton analysis of the difference density matrix
    <r_h> [Ang]:                  [ -0.000000,  -0.000000,  -1.476429]
    <r_e> [Ang]:                  [ -0.000000,  -0.000000,  -0.080172]
    |<r_e - r_h>| [Ang]:            1.396257
    Hole size [Ang]:                1.801136
      Cartesian components [Ang]: [  0.850515,   0.889513,   1.315097]
    Electron size [Ang]:            4.942340
      Cartesian components [Ang]: [  3.163266,   1.845927,   3.318588]

  Transition density matrix analysis:
  -----------------------------------
  
  CT numbers (Mulliken)
    omega =     0.8530
    <Phe> =    -0.0000
  
  Exciton analysis of the transition density matrix
    Trans. dipole moment [D]:             0.000000
      Cartesian components [D]:         [  0.000000,   0.000000,   0.000000]
    <r_h> [Ang]:                        [ -0.000000,  -0.000000,  -1.745578]
    <r_e> [Ang]:                        [  0.000000,  -0.000000,   0.673188]
    |<r_e - r_h>| [Ang]:                  2.418765
    Hole size [Ang]:                      1.097644
      Cartesian components [Ang]:       [  0.479317,   0.826956,   0.539650]
    Electron size [Ang]:                  6.129715
      Cartesian components [Ang]:       [  4.041539,   2.318566,   3.982916]
    RMS electron-hole separation [Ang]:   6.679196
      Cartesian components [Ang]:       [  4.069731,   2.461550,   4.689319]
    Covariance(r_h, r_e) [Ang^2]:         0.008498
    Correlation coefficient:              0.001263
    Center-of-mass size [Ang]:            3.114290
      Cartesian components [Ang]:       [  2.034997,   1.230851,   2.010621]

  Decomposition into state-averaged NTOs
    H- 0 -> L+ 1:  0.4692 ( 44.0%)
    H- 0 -> L+ 0:  0.4501 ( 40.5%)
                   omega =  85.3%
  ----------------------------------------------------------------------------


  Excited state 4 (singlet, A2)                                    [converged]
  ----------------------------------------------------------------------------
  Term symbol:  4 (1) A2                                    R^2 =  1.32272e-08

  Total energy:                                           -153.8279469109 a.u.
  Excitation energy:                                               3.833776 eV

  Osc. strength:                                                      0.000000
  Trans. dip. moment [a.u.]:           [   0.000000,    0.000000,   -0.000000]
  <i|r^2|0> [a.u.]:                    [   0.000000,    0.000000,    0.000000]

  Dip. moment [a.u.]:                  [   0.000000,    0.000000,   -3.519980]
  Total dipole [Debye]:                                               8.946898
  <r^2> [a.u.]:                        [ 107.884812,   32.238921,  216.254358]
  Total <r^2> [a.u.]:                                               356.378091

  V1^2 = 0.8681, V2^2 = 0.1319

  Important amplitudes:
      occ i      occ j       vir a       vir b          v   
    ---------------------------------------------------------
     2 (B2) A               7 (B1) A                  0.6299
     2 (B2) A               8 (B1) A                 -0.1369
    ---------------------------------------------------------

  Density matrix analysis:
  ------------------------
  NOs
    Occupation of frontier NOs:
       0.9618   0.9956
    Number of electrons: 26.000000
    Number of unpaired electrons: n_u =  2.75021, n_u,nl =  2.11505
    NO participation ratio (PR_NO):  3.883928
  
  
  Mulliken Population Analysis
  Atom      Charge (e)              h+              e-           Del q
  --------------------------------------------------------------------
   1 C       -0.628460        0.042934       -0.485578       -0.442644
   2 C       -0.628460        0.042934       -0.485578       -0.442644
   3 H        0.109482        0.000583       -0.071665       -0.071082
   4 H        0.109482        0.000583       -0.071665       -0.071082
   5 H        0.016590        0.035194       -0.025846        0.009348
   6 H        0.016590        0.035194       -0.025846        0.009348
   7 O       -0.156075        1.389468       -0.490287        0.899181
   8 H        0.160851        0.133708       -0.024132        0.109576
  --------------------------------------------------------------------
  Sum:       -1.000000        1.680598       -1.680598        0.000000
  
  Multipole moment analysis of the density matrix
    Molecular charge:                      -1.000000
    Number of electrons:                   26.000000
      Center of electronic charge [Ang]: [ -0.000000,  -0.000000,   0.071642]
    Total nuclear charge:                  25.000000
      Center of nuclear charge [Ang]:    [  0.000000,   0.000000,  -0.000000]
    Dipole moment [D]:                     8.946895
      Cartesian components [D]:          [  0.000000,   0.000000,  -8.946895]
    RMS size of the density [Ang]:         1.957850
      Cartesian components [Ang]:        [  1.077940,   0.589257,   1.524466]
  
  Exciton analysis of the difference density matrix
    <r_h> [Ang]:                  [ -0.000000,  -0.000000,  -1.476950]
    <r_e> [Ang]:                  [ -0.000000,  -0.000000,   0.306064]
    |<r_e - r_h>| [Ang]:            1.783014
    Hole size [Ang]:                1.777350
      Cartesian components [Ang]: [  0.865504,   0.881297,   1.277963]
    Electron size [Ang]:            4.111363
      Cartesian components [Ang]: [  3.045649,   1.657289,   2.209237]

  Transition density matrix analysis:
  -----------------------------------
  
  CT numbers (Mulliken)
    omega =     0.8526
    <Phe> =    -0.0001
  
  Exciton analysis of the transition density matrix
    Trans. dipole moment [D]:             0.000000
      Cartesian components [D]:         [  0.000000,   0.000000,  -0.000000]
    <r_h> [Ang]:                        [ -0.000000,  -0.000000,  -1.738620]
    <r_e> [Ang]:                        [ -0.000000,  -0.000000,   1.346383]
    |<r_e - r_h>| [Ang]:                  3.085003
    Hole size [Ang]:                      1.105931
      Cartesian components [Ang]:       [  0.478954,   0.825628,   0.558592]
    Electron size [Ang]:                  4.857129
      Cartesian components [Ang]:       [  3.871185,   2.058389,   2.090137]
    RMS electron-hole separation [Ang]:   5.857733
      Cartesian components [Ang]:       [  3.900286,   2.216064,   3.766944]
    Covariance(r_h, r_e) [Ang^2]:         0.009501
    Correlation coefficient:              0.001769
    Center-of-mass size [Ang]:            2.491676
      Cartesian components [Ang]:       [  1.950558,   1.109765,   1.082679]

  Decomposition into state-averaged NTOs
    H- 0 -> L+ 7:  0.5064 ( 51.3%)
    H- 0 -> L+ 3: -0.3964 ( 31.4%)
    H- 0 -> L+ 0:  0.0917 (  1.7%)
                   omega =  85.3%
  ----------------------------------------------------------------------------


  Excited state 5 (singlet, A2)                                    [converged]
  ----------------------------------------------------------------------------
  Term symbol:  5 (1) A2                                    R^2 =  3.32866e-08

  Total energy:                                           -153.7758699320 a.u.
  Excitation energy:                                               5.250863 eV

  Osc. strength:                                                      0.000000
  Trans. dip. moment [a.u.]:           [   0.000000,   -0.000000,    0.000000]
  <i|r^2|0> [a.u.]:                    [   0.000000,    0.000000,   -0.000000]

  Dip. moment [a.u.]:                  [  -0.000000,    0.000000,   -3.173891]
  Total dipole [Debye]:                                               8.067229
  <r^2> [a.u.]:                        [  86.233869,   28.858516,  227.426404]
  Total <r^2> [a.u.]:                                               342.518790

  V1^2 = 0.8721, V2^2 = 0.1279

  Important amplitudes:
      occ i      occ j       vir a       vir b          v   
    ---------------------------------------------------------
     2 (B2) A               8 (B1) A                 -0.6266
     2 (B2) A               7 (B1) A                 -0.1386
    ---------------------------------------------------------

  Density matrix analysis:
  ------------------------
  NOs
    Occupation of frontier NOs:
       0.9668   0.9918
    Number of electrons: 26.000000
    Number of unpaired electrons: n_u =  2.80306, n_u,nl =  2.13482
    NO participation ratio (PR_NO):  4.019117
  
  
  Mulliken Population Analysis
  Atom      Charge (e)              h+              e-           Del q
  --------------------------------------------------------------------
   1 C       -0.877334        0.027163       -0.718682       -0.691518
   2 C       -0.877334        0.027163       -0.718682       -0.691518
   3 H        0.205567        0.005446        0.019557        0.025003
   4 H        0.205567        0.005446        0.019557        0.025003
   5 H        0.122017        0.041387        0.073388        0.114775
   6 H        0.122017        0.041387        0.073388        0.114775
   7 O       -0.060147        1.377715       -0.382605        0.995110
   8 H        0.159646        0.131945       -0.023574        0.108371
  --------------------------------------------------------------------
  Sum:       -1.000000        1.657652       -1.657652        0.000000
  
  Multipole moment analysis of the density matrix
    Molecular charge:                      -1.000000
    Number of electrons:                   26.000000
      Center of electronic charge [Ang]: [  0.000000,  -0.000000,   0.064598]
    Total nuclear charge:                  25.000000
      Center of nuclear charge [Ang]:    [  0.000000,   0.000000,  -0.000000]
    Dipole moment [D]:                     8.067226
      Cartesian components [D]:          [ -0.000000,   0.000000,  -8.067226]
    RMS size of the density [Ang]:         1.919601
      Cartesian components [Ang]:        [  0.963726,   0.557508,   1.563740]
  
  Exciton analysis of the difference density matrix
    <r_h> [Ang]:                  [ -0.000000,  -0.000000,  -1.458972]
    <r_e> [Ang]:                  [ -0.000000,  -0.000000,   0.238240]
    |<r_e - r_h>| [Ang]:            1.697212
    Hole size [Ang]:                1.805993
      Cartesian components [Ang]: [  0.857901,   0.877011,   1.325318]
    Electron size [Ang]:            3.848399
      Cartesian components [Ang]: [  2.392361,   1.481648,   2.625166]

  Transition density matrix analysis:
  -----------------------------------
  
  CT numbers (Mulliken)
    omega =     0.8561
    <Phe> =     0.0002
  
  Exciton analysis of the transition density matrix
    Trans. dipole moment [D]:             0.000000
      Cartesian components [D]:         [  0.000000,  -0.000000,   0.000000]
    <r_h> [Ang]:                        [ -0.000000,  -0.000000,  -1.723552]
    <r_e> [Ang]:                        [  0.000000,  -0.000000,   1.179409]
    |<r_e - r_h>| [Ang]:                  2.902961
    Hole size [Ang]:                      1.125675
      Cartesian components [Ang]:       [  0.492784,   0.817973,   0.596010]
    Electron size [Ang]:                  4.489455
      Cartesian components [Ang]:       [  2.989337,   1.814364,   2.815520]
    RMS electron-hole separation [Ang]:   5.455362
      Cartesian components [Ang]:       [  3.029187,   1.989907,   4.077410]
    Covariance(r_h, r_e) [Ang^2]:         0.044275
    Correlation coefficient:              0.008761
    Center-of-mass size [Ang]:            2.318992
      Cartesian components [Ang]:       [  1.515088,   0.995272,   1.446260]

  Decomposition into state-averaged NTOs
    H- 0 -> L+ 3: -0.5104 ( 52.1%)
    H- 0 -> L+ 7: -0.3874 ( 30.0%)
    H- 1 -> L+ 4:  0.0939 (  1.8%)
                   omega =  85.6%
  ----------------------------------------------------------------------------


  Excited state 6 (singlet, A2)                                    [converged]
  ----------------------------------------------------------------------------
  Term symbol:  6 (1) A2                                    R^2 =  1.54686e-08

  Total energy:                                           -153.7743707063 a.u.
  Excitation energy:                                               5.291659 eV

  Osc. strength:                                                      0.000000
  Trans. dip. moment [a.u.]:           [   0.000000,    0.000000,   -0.000000]
  <i|r^2|0> [a.u.]:                    [  -0.000000,   -0.000000,   -0.000000]

  Dip. moment [a.u.]:                  [  -0.000000,   -0.000000,   -3.073327]
  Total dipole [Debye]:                                               7.811619
  <r^2> [a.u.]:                        [  64.961636,   49.328369,  210.255811]
  Total <r^2> [a.u.]:                                               324.545816

  V1^2 = 0.8717, V2^2 = 0.1283

  Important amplitudes:
      occ i      occ j       vir a       vir b          v   
    ---------------------------------------------------------
     4 (B1) A               4 (B2) A                 -0.6482
     2 (B2) A               8 (B1) A                 -0.1037
    ---------------------------------------------------------

  Density matrix analysis:
  ------------------------
  NOs
    Occupation of frontier NOs:
       0.9686   0.9884
    Number of electrons: 26.000000
    Number of unpaired electrons: n_u =  2.79469, n_u,nl =  2.13232
    NO participation ratio (PR_NO):  4.003204
  
  
  Mulliken Population Analysis
  Atom      Charge (e)              h+              e-           Del q
  --------------------------------------------------------------------
   1 C       -0.660483        0.060828       -0.535496       -0.474668
   2 C       -0.660483        0.060828       -0.535496       -0.474668
   3 H        0.119450       -0.005655       -0.055459       -0.061115
   4 H        0.119450       -0.005655       -0.055459       -0.061115
   5 H        0.026854        0.020177       -0.000566        0.019612
   6 H        0.026854        0.020177       -0.000566        0.019612
   7 O       -0.127476        1.371995       -0.444214        0.927781
   8 H        0.155835        0.127037       -0.022477        0.104560
  --------------------------------------------------------------------
  Sum:       -1.000000        1.649732       -1.649732       -0.000000
  
  Multipole moment analysis of the density matrix
    Molecular charge:                      -1.000000
    Number of electrons:                   26.000000
      Center of electronic charge [Ang]: [  0.000000,   0.000000,   0.062551]
    Total nuclear charge:                  25.000000
      Center of nuclear charge [Ang]:    [  0.000000,   0.000000,  -0.000000]
    Dipole moment [D]:                     7.811616
      Cartesian components [D]:          [ -0.000000,  -0.000000,  -7.811616]
    RMS size of the density [Ang]:         1.868570
      Cartesian components [Ang]:        [  0.836456,   0.728891,   1.503533]
  
  Exciton analysis of the difference density matrix
    <r_h> [Ang]:                  [ -0.000000,  -0.000000,  -1.478081]
    <r_e> [Ang]:                  [  0.000000,   0.000000,   0.195022]
    |<r_e - r_h>| [Ang]:            1.673103
    Hole size [Ang]:                1.737751
      Cartesian components [Ang]: [  0.909886,   0.785198,   1.255129]
    Electron size [Ang]:            3.411439
      Cartesian components [Ang]: [  1.492798,   2.350342,   1.971133]

  Transition density matrix analysis:
  -----------------------------------
  
  CT numbers (Mulliken)
    omega =     0.8548
    <Phe> =    -0.0002
  
  Exciton analysis of the transition density matrix
    Trans. dipole moment [D]:             0.000000
      Cartesian components [D]:         [  0.000000,   0.000000,  -0.000000]
    <r_h> [Ang]:                        [  0.000000,  -0.000000,  -1.712914]
    <r_e> [Ang]:                        [  0.000000,   0.000000,   1.160107]
    |<r_e - r_h>| [Ang]:                  2.873021
    Hole size [Ang]:                      1.155899
      Cartesian components [Ang]:       [  0.817995,   0.485219,   0.656923]
    Electron size [Ang]:                  3.880011
      Cartesian components [Ang]:       [  1.790258,   2.951988,   1.770657]
    RMS electron-hole separation [Ang]:   4.962535
      Cartesian components [Ang]:       [  1.965359,   2.991346,   3.437436]
    Covariance(r_h, r_e) [Ang^2]:         0.009044
    Correlation coefficient:              0.002016
    Center-of-mass size [Ang]:            2.025381
      Cartesian components [Ang]:       [  0.985602,   1.495927,   0.944965]

  Decomposition into state-averaged NTOs
    H- 1 -> L+ 4: -0.5752 ( 66.2%)
    H- 1 -> L+ 5:  0.2881 ( 16.6%)
    H- 0 -> L+ 3: -0.0854 (  1.5%)
                   omega =  85.5%
  ----------------------------------------------------------------------------


  Excited state 7 (singlet, A2)                                    [converged]
  ----------------------------------------------------------------------------
  Term symbol:  7 (1) A2                                    R^2 =  7.55418e-09

  Total energy:                                           -153.7632082164 a.u.
  Excitation energy:                                               5.595406 eV

  Osc. strength:                                                      0.000000
  Trans. dip. moment [a.u.]:           [   0.000000,    0.000000,    0.000000]
  <i|r^2|0> [a.u.]:                    [  -0.000000,   -0.000000,   -0.000000]

  Dip. moment [a.u.]:                  [   0.000000,    0.000000,   -1.429221]
  Total dipole [Debye]:                                               3.632718
  <r^2> [a.u.]:                        [ 112.463941,   36.865851,  244.476350]
  Total <r^2> [a.u.]:                                               393.806142

  V1^2 = 0.9405, V2^2 = 0.0595

  Important amplitudes:
      occ i      occ j       vir a       vir b          v   
    ---------------------------------------------------------
     1 (B2) A               5 (B1) A                  0.6495
     1 (B2) A               7 (B1) A                  0.1970
    ---------------------------------------------------------

  Density matrix analysis:
  ------------------------
  NOs
    Occupation of frontier NOs:
       0.9882   0.9932
    Number of electrons: 26.000000
    Number of unpaired electrons: n_u =  2.61955, n_u,nl =  2.06789
    NO participation ratio (PR_NO):  3.464439
  
  
  Mulliken Population Analysis
  Atom      Charge (e)              h+              e-           Del q
  --------------------------------------------------------------------
   1 C       -0.374158        0.541307       -0.729650       -0.188343
   2 C       -0.374158        0.541307       -0.729650       -0.188343
   3 H        0.254228        0.079172       -0.005508        0.073663
   4 H        0.254228        0.079172       -0.005508        0.073663
   5 H        0.119163        0.122690       -0.010769        0.111921
   6 H        0.119163        0.122690       -0.010769        0.111921
   7 O       -1.073929        0.056227       -0.074899       -0.018672
   8 H        0.075463        0.030626       -0.006438        0.024189
  --------------------------------------------------------------------
  Sum:       -1.000000        1.573192       -1.573192       -0.000000
  
  Multipole moment analysis of the density matrix
    Molecular charge:                      -1.000000
    Number of electrons:                   26.000000
      Center of electronic charge [Ang]: [ -0.000000,  -0.000000,   0.029089]
    Total nuclear charge:                  25.000000
      Center of nuclear charge [Ang]:    [  0.000000,   0.000000,  -0.000000]
    Dipole moment [D]:                     3.632717
      Cartesian components [D]:          [  0.000000,   0.000000,  -3.632717]
    RMS size of the density [Ang]:         2.059266
      Cartesian components [Ang]:        [  1.100579,   0.630125,   1.622419]
  
  Exciton analysis of the difference density matrix
    <r_h> [Ang]:                  [  0.000000,   0.000000,   0.870990]
    <r_e> [Ang]:                  [ -0.000000,  -0.000000,   2.072463]
    |<r_e - r_h>| [Ang]:            1.201473
    Hole size [Ang]:                1.869532
      Cartesian components [Ang]: [  1.097372,   0.918788,   1.202811]
    Electron size [Ang]:            4.367302
      Cartesian components [Ang]: [  3.335917,   1.942210,   2.042746]

  Transition density matrix analysis:
  -----------------------------------
  
  CT numbers (Mulliken)
    omega =     0.9106
    <Phe> =    -0.0007
  
  Exciton analysis of the transition density matrix
    Trans. dipole moment [D]:             0.000000
      Cartesian components [D]:         [  0.000000,   0.000000,   0.000000]
    <r_h> [Ang]:                        [ -0.000000,  -0.000000,   1.015237]
    <r_e> [Ang]:                        [ -0.000000,  -0.000000,   2.879156]
    |<r_e - r_h>| [Ang]:                  1.863919
    Hole size [Ang]:                      1.313027
      Cartesian components [Ang]:       [  0.767139,   0.893937,   0.580012]
    Electron size [Ang]:                  5.139636
      Cartesian components [Ang]:       [  4.107050,   2.379584,   1.971187]
    RMS electron-hole separation [Ang]:   5.616751
      Cartesian components [Ang]:       [  4.175347,   2.537748,   2.770235]
    Covariance(r_h, r_e) [Ang^2]:         0.033101
    Correlation coefficient:              0.004905
    Center-of-mass size [Ang]:            2.655471
      Cartesian components [Ang]:       [  2.090407,   1.273079,   1.030046]

  Decomposition into state-averaged NTOs
    H- 2 -> L+ 1: -0.6127 ( 75.1%)
    H- 2 -> L+ 0:  0.2788 ( 15.5%)
                   omega =  91.1%
  ----------------------------------------------------------------------------


  Excited state 8 (singlet, A2)                                    [converged]
  ----------------------------------------------------------------------------
  Term symbol:  8 (1) A2                                    R^2 =  1.65571e-06

  Total energy:                                           -153.7427476082 a.u.
  Excitation energy:                                               6.152167 eV

  Osc. strength:                                                      0.000000
  Trans. dip. moment [a.u.]:           [  -0.000000,   -0.000000,    0.000000]
  <i|r^2|0> [a.u.]:                    [  -0.000000,   -0.000000,   -0.000000]

  Dip. moment [a.u.]:                  [  -0.000000,   -0.000000,   -2.752481]
  Total dipole [Debye]:                                               6.996109
  <r^2> [a.u.]:                        [ 107.261982,   70.598748,  213.924429]
  Total <r^2> [a.u.]:                                               391.785159

  V1^2 = 0.8690, V2^2 = 0.1310

  Important amplitudes:
      occ i      occ j       vir a       vir b          v   
    ---------------------------------------------------------
     7 (A1) A               1 (A2) A                 -0.6500
     7 (A1) A               2 (A2) A                  0.0963
    ---------------------------------------------------------

  Density matrix analysis:
  ------------------------
  NOs
    Occupation of frontier NOs:
       0.9795   0.9990
    Number of electrons: 26.000000
    Number of unpaired electrons: n_u =  2.80155, n_u,nl =  2.13255
    NO participation ratio (PR_NO):  3.938519
  
  
  Mulliken Population Analysis
  Atom      Charge (e)              h+              e-           Del q
  --------------------------------------------------------------------
   1 C       -0.672645        0.064592       -0.551421       -0.486829
   2 C       -0.672645        0.064592       -0.551421       -0.486829
   3 H        0.145261        0.001692       -0.036995       -0.035303
   4 H        0.145261        0.001692       -0.036995       -0.035303
   5 H        0.043525        0.038775       -0.002492        0.036283
   6 H        0.043525        0.038775       -0.002492        0.036283
   7 O       -0.366198        1.205950       -0.516892        0.689059
   8 H        0.333916        0.299598       -0.016957        0.282641
  --------------------------------------------------------------------
  Sum:       -1.000000        1.715665       -1.715665       -0.000000
  
  Multipole moment analysis of the density matrix
    Molecular charge:                      -1.000000
    Number of electrons:                   26.000000
      Center of electronic charge [Ang]: [  0.000000,   0.000000,   0.056021]
    Total nuclear charge:                  25.000000
      Center of nuclear charge [Ang]:    [  0.000000,   0.000000,  -0.000000]
    Dipole moment [D]:                     6.996107
      Cartesian components [D]:          [ -0.000000,  -0.000000,  -6.996107]
    RMS size of the density [Ang]:         2.053416
      Cartesian components [Ang]:        [  1.074824,   0.871993,   1.516871]
  
  Exciton analysis of the difference density matrix
    <r_h> [Ang]:                  [ -0.000000,  -0.000000,  -1.390980]
    <r_e> [Ang]:                  [  0.000000,   0.000000,   0.118864]
    |<r_e - r_h>| [Ang]:            1.509844
    Hole size [Ang]:                1.845981
      Cartesian components [Ang]: [  0.864774,   0.787454,   1.428191]
    Electron size [Ang]:            4.746136
      Cartesian components [Ang]: [  2.999795,   2.968295,   2.171696]

  Transition density matrix analysis:
  -----------------------------------
  
  CT numbers (Mulliken)
    omega =     0.8520
    <Phe> =    -0.0000
  
  Exciton analysis of the transition density matrix
    Trans. dipole moment [D]:             0.000000
      Cartesian components [D]:         [ -0.000000,  -0.000000,   0.000000]
    <r_h> [Ang]:                        [  0.000000,  -0.000000,  -1.705191]
    <r_e> [Ang]:                        [  0.000000,   0.000000,   1.026741]
    |<r_e - r_h>| [Ang]:                  2.731932
    Hole size [Ang]:                      1.152475
      Cartesian components [Ang]:       [  0.456132,   0.406088,   0.977361]
    Electron size [Ang]:                  5.861551
      Cartesian components [Ang]:       [  3.852158,   3.825928,   2.209285]
    RMS electron-hole separation [Ang]:   6.568429
      Cartesian components [Ang]:       [  3.878338,   3.847535,   3.646811]
    Covariance(r_h, r_e) [Ang^2]:         0.002587
    Correlation coefficient:              0.000383
    Center-of-mass size [Ang]:            2.987104
      Cartesian components [Ang]:       [  1.939900,   1.923651,   1.207950]

  Decomposition into state-averaged NTOs
    H- 3 -> L+ 6:  0.6526 ( 85.2%)
                   omega =  85.2%
  ----------------------------------------------------------------------------


  Excited state 9 (singlet, A2)                                    [converged]
  ----------------------------------------------------------------------------
  Term symbol:  9 (1) A2                                    R^2 =  2.22648e-08

  Total energy:                                           -153.7222868734 a.u.
  Excitation energy:                                               6.708932 eV

  Osc. strength:                                                      0.000000
  Trans. dip. moment [a.u.]:           [  -0.000000,   -0.000000,   -0.000000]
  <i|r^2|0> [a.u.]:                    [   0.000000,    0.000000,   -0.000000]

  Dip. moment [a.u.]:                  [  -0.000000,    0.000000,    5.271050]
  Total dipole [Debye]:                                              13.397674
  <r^2> [a.u.]:                        [ 112.257235,   36.429028,  240.705308]
  Total <r^2> [a.u.]:                                               389.391572

  V1^2 = 0.9400, V2^2 = 0.0600

  Important amplitudes:
      occ i      occ j       vir a       vir b          v   
    ---------------------------------------------------------
     1 (B2) A               6 (B1) A                 -0.6688
     1 (B2) A               8 (B1) A                  0.1002
    ---------------------------------------------------------

  Density matrix analysis:
  ------------------------
  NOs
    Occupation of frontier NOs:
       0.9841   0.9988
    Number of electrons: 26.000000
    Number of unpaired electrons: n_u =  2.60681, n_u,nl =  2.06480
    NO participation ratio (PR_NO):  3.426727
  
  
  Mulliken Population Analysis
  Atom      Charge (e)              h+              e-           Del q
  --------------------------------------------------------------------
   1 C       -0.382714        0.546682       -0.743580       -0.196898
   2 C       -0.382714        0.546682       -0.743580       -0.196898
   3 H        0.254876        0.095597       -0.021285        0.074311
   4 H        0.254876        0.095597       -0.021285        0.074311
   5 H        0.108943        0.109256       -0.007555        0.101701
   6 H        0.108943        0.109256       -0.007555        0.101701
   7 O       -1.042684        0.064811       -0.052238        0.012573
   8 H        0.080474        0.037153       -0.007954        0.029199
  --------------------------------------------------------------------
  Sum:       -1.000000        1.605033       -1.605033       -0.000000
  
  Multipole moment analysis of the density matrix
    Molecular charge:                      -1.000000
    Number of electrons:                   26.000000
      Center of electronic charge [Ang]: [  0.000000,  -0.000000,  -0.107282]
    Total nuclear charge:                  25.000000
      Center of nuclear charge [Ang]:    [  0.000000,   0.000000,  -0.000000]
    Dipole moment [D]:                     13.397670
      Cartesian components [D]:          [ -0.000000,   0.000000,  13.397670]
    RMS size of the density [Ang]:         2.045083
      Cartesian components [Ang]:        [  1.099567,   0.626381,   1.606538]
  
  Exciton analysis of the difference density matrix
    <r_h> [Ang]:                  [  0.000000,  -0.000000,   0.810286]
    <r_e> [Ang]:                  [  0.000000,  -0.000000,  -0.221146]
    |<r_e - r_h>| [Ang]:            1.031432
    Hole size [Ang]:                1.874654
      Cartesian components [Ang]: [  1.086535,   0.908809,   1.227939]
    Electron size [Ang]:            4.699706
      Cartesian components [Ang]: [  3.297231,   1.902536,   2.756059]

  Transition density matrix analysis:
  -----------------------------------
  
  CT numbers (Mulliken)
    omega =     0.9100
    <Phe> =    -0.0001
  
  Exciton analysis of the transition density matrix
    Trans. dipole moment [D]:             0.000000
      Cartesian components [D]:         [ -0.000000,  -0.000000,  -0.000000]
    <r_h> [Ang]:                        [  0.000000,  -0.000000,   1.033611]
    <r_e> [Ang]:                        [  0.000000,  -0.000000,  -0.720111]
    |<r_e - r_h>| [Ang]:                  1.753722
    Hole size [Ang]:                      1.295342
      Cartesian components [Ang]:       [  0.768386,   0.893666,   0.537451]
    Electron size [Ang]:                  5.738962
      Cartesian components [Ang]:       [  4.101749,   2.354399,   3.250868]
    RMS electron-hole separation [Ang]:   6.137437
      Cartesian components [Ang]:       [  4.171535,   2.517246,   3.732278]
    Covariance(r_h, r_e) [Ang^2]:         0.010504
    Correlation coefficient:              0.001413
    Center-of-mass size [Ang]:            2.942558
      Cartesian components [Ang]:       [  2.087332,   1.259677,   1.647698]

  Decomposition into state-averaged NTOs
    H- 2 -> L+ 0: -0.6135 ( 75.3%)
    H- 2 -> L+ 1: -0.2789 ( 15.6%)
                   omega =  91.0%
  ----------------------------------------------------------------------------


  Excited state 10 (singlet, A2)                                    [converged]
  ----------------------------------------------------------------------------
  Term symbol:  10 (1) A2                                   R^2 =  7.79862e-07

  Total energy:                                           -153.6969912050 a.u.
  Excitation energy:                                               7.397262 eV

  Osc. strength:                                                      0.000000
  Trans. dip. moment [a.u.]:           [   0.000000,   -0.000000,   -0.000000]
  <i|r^2|0> [a.u.]:                    [   0.000000,    0.000000,    0.000000]

  Dip. moment [a.u.]:                  [  -0.000000,   -0.000000,    1.957382]
  Total dipole [Debye]:                                               4.975169
  <r^2> [a.u.]:                        [  57.867388,   31.214232,  211.486805]
  Total <r^2> [a.u.]:                                               300.568424

  V1^2 = 0.9241, V2^2 = 0.0759

  Important amplitudes:
      occ i      occ j       vir a       vir b          v   
    ---------------------------------------------------------
     4 (B1) A               5 (B2) A                 -0.6755
     4 (B1) A   2 (B2) B    5 (B2) A    5 (B2) B     -0.0418
    ---------------------------------------------------------

  Density matrix analysis:
  ------------------------
  NOs
    Occupation of frontier NOs:
       0.9773   1.0070
    Number of electrons: 26.000000
    Number of unpaired electrons: n_u =  2.65392, n_u,nl =  2.08039
    NO participation ratio (PR_NO):  3.588881
  
  
  Mulliken Population Analysis
  Atom      Charge (e)              h+              e-           Del q
  --------------------------------------------------------------------
   1 C       -0.159794        0.027587       -0.001566        0.026021
   2 C       -0.159794        0.027587       -0.001566        0.026021
   3 H        0.156241       -0.004522       -0.019802       -0.024324
   4 H        0.156241       -0.004522       -0.019802       -0.024324
   5 H        0.018079        0.011889       -0.001052        0.010837
   6 H        0.018079        0.011889       -0.001052        0.010837
   7 O       -1.179763        1.203265       -1.327771       -0.124506
   8 H        0.150711        0.119135       -0.019698        0.099437
  --------------------------------------------------------------------
  Sum:       -1.000000        1.392307       -1.392307       -0.000000
  
  Multipole moment analysis of the density matrix
    Molecular charge:                      -1.000000
    Number of electrons:                   26.000000
      Center of electronic charge [Ang]: [  0.000000,   0.000000,  -0.039839]
    Total nuclear charge:                  25.000000
      Center of nuclear charge [Ang]:    [  0.000000,   0.000000,  -0.000000]
    Dipole moment [D]:                     4.975167
      Cartesian components [D]:          [ -0.000000,  -0.000000,   4.975167]
    RMS size of the density [Ang]:         1.798787
      Cartesian components [Ang]:        [  0.789462,   0.579817,   1.508706]
  
  Exciton analysis of the difference density matrix
    <r_h> [Ang]:                  [ -0.000000,  -0.000000,  -1.611910]
    <r_e> [Ang]:                  [ -0.000000,   0.000000,  -1.541498]
    |<r_e - r_h>| [Ang]:            0.070412
    Hole size [Ang]:                1.582295
      Cartesian components [Ang]: [  0.902629,   0.698654,   1.095810]
    Electron size [Ang]:            2.360337
      Cartesian components [Ang]: [  1.023430,   1.630901,   1.365264]

  Transition density matrix analysis:
  -----------------------------------
  
  CT numbers (Mulliken)
    omega =     0.9004
    <Phe> =    -0.0052
  
  Exciton analysis of the transition density matrix
    Trans. dipole moment [D]:             0.000000
      Cartesian components [D]:         [  0.000000,  -0.000000,  -0.000000]
    <r_h> [Ang]:                        [  0.000000,  -0.000000,  -1.730784]
    <r_e> [Ang]:                        [ -0.000000,   0.000000,  -1.645114]
    |<r_e - r_h>| [Ang]:                  0.085670
    Hole size [Ang]:                      1.112659
      Cartesian components [Ang]:       [  0.811217,   0.467970,   0.600784]
    Electron size [Ang]:                  2.578308
      Cartesian components [Ang]:       [  1.099700,   1.868600,   1.395229]
    RMS electron-hole separation [Ang]:   2.798958
      Cartesian components [Ang]:       [  1.364634,   1.925381,   1.504942]
    Covariance(r_h, r_e) [Ang^2]:         0.029428
    Correlation coefficient:              0.010258
    Center-of-mass size [Ang]:            1.409303
      Cartesian components [Ang]:       [  0.684215,   0.963617,   0.767741]

  Decomposition into state-averaged NTOs
    H- 1 -> L+ 2:  0.6565 ( 86.2%)
    H- 1 -> L+ 4:  0.0928 (  1.7%)
    H- 1 -> L+ 5:  0.0884 (  1.6%)
                   omega =  90.0%
  ----------------------------------------------------------------------------


--------------------------------------------------------------------------------
  Time of ADC calculation:  CPU 205.78 s  wall 55.60 s
================================================================================
 
 --------------------------------------------------------------
             Orbital Energies (a.u.) and Symmetries
 --------------------------------------------------------------
 
 Alpha MOs, Restricted
 -- Occupied --                  
-20.213 -11.049 -11.047  -0.930  -0.854  -0.598  -0.473  -0.384
  1 A1    2 A1    1 B1    3 A1    4 A1    2 B1    5 A1    6 A1                 
 -0.328  -0.271  -0.194  -0.130  -0.128
  3 B1    7 A1    1 B2    4 B1    2 B2                                         
 -- Virtual --                   
  0.117   0.131   0.138   0.141   0.147   0.150   0.218   0.227
  5 B1    8 A1    3 B2    1 A2    9 A1    6 B1   10 A1    7 B1                 
  0.266   0.277   0.291   0.301   0.331   0.359   0.403   0.431
  2 A2   11 A1    8 B1    4 B2   12 A1   13 A1    3 A2    9 B1                 
  0.449   0.472   0.475   0.528   0.541   0.578   0.629   0.657
  5 B2   10 B1   14 A1   15 A1   11 B1   16 A1   12 B1   17 A1                 
  0.684   0.840   0.961   1.007   1.057   1.074   1.082   1.131
 13 B1   18 A1   19 A1    6 B2   20 A1    4 A2   21 A1   14 B1                 
  1.183   1.203   1.206   1.215   1.291   1.299   1.332   1.332
 15 B1    7 B2   16 B1   22 A1    5 A2   23 A1   24 A1   17 B1                 
  1.370   1.467   1.481   1.483   1.561   1.642   1.691   1.719
  8 B2    9 B2   18 B1    6 A2   19 B1   25 A1   20 B1   10 B2                 
  1.851   1.927   1.966   2.033   2.124   2.130   2.139   2.191
 26 A1   21 B1   27 A1    7 A2   11 B2   28 A1   22 B1   29 A1                 
  2.212   2.287   2.356   2.393   2.437   2.474   2.553   2.604
 12 B2   30 A1    8 A2   13 B2   23 B1   24 B1   31 A1    9 A2                 
  2.730   2.750   2.846   3.007   3.036   3.087   3.458   3.562
 25 B1   32 A1   26 B1   33 A1   34 A1   35 A1   27 B1   28 B1                 
  3.921   3.945   3.970   4.087   4.537
 14 B2   10 A2   36 A1   29 B1   37 A1                                         
 
 Beta MOs, Restricted
 -- Occupied --                  
-20.213 -11.049 -11.047  -0.930  -0.854  -0.598  -0.473  -0.384
  1 A1    2 A1    1 B1    3 A1    4 A1    2 B1    5 A1    6 A1                 
 -0.328  -0.271  -0.194  -0.130  -0.128
  3 B1    7 A1    1 B2    4 B1    2 B2                                         
 -- Virtual --                   
  0.117   0.131   0.138   0.141   0.147   0.150   0.218   0.227
  5 B1    8 A1    3 B2    1 A2    9 A1    6 B1   10 A1    7 B1                 
  0.266   0.277   0.291   0.301   0.331   0.359   0.403   0.431
  2 A2   11 A1    8 B1    4 B2   12 A1   13 A1    3 A2    9 B1                 
  0.449   0.472   0.475   0.528   0.541   0.578   0.629   0.657
  5 B2   10 B1   14 A1   15 A1   11 B1   16 A1   12 B1   17 A1                 
  0.684   0.840   0.961   1.007   1.057   1.074   1.082   1.131
 13 B1   18 A1   19 A1    6 B2   20 A1    4 A2   21 A1   14 B1                 
  1.183   1.203   1.206   1.215   1.291   1.299   1.332   1.332
 15 B1    7 B2   16 B1   22 A1    5 A2   23 A1   24 A1   17 B1                 
  1.370   1.467   1.481   1.483   1.561   1.642   1.691   1.719
  8 B2    9 B2   18 B1    6 A2   19 B1   25 A1   20 B1   10 B2                 
  1.851   1.927   1.966   2.033   2.124   2.130   2.139   2.191
 26 A1   21 B1   27 A1    7 A2   11 B2   28 A1   22 B1   29 A1                 
  2.212   2.287   2.356   2.393   2.437   2.474   2.553   2.604
 12 B2   30 A1    8 A2   13 B2   23 B1   24 B1   31 A1    9 A2                 
  2.730   2.750   2.846   3.007   3.036   3.087   3.458   3.562
 25 B1   32 A1   26 B1   33 A1   34 A1   35 A1   27 B1   28 B1                 
  3.921   3.945   3.970   4.087   4.537
 14 B2   10 A2   36 A1   29 B1   37 A1                                         
 --------------------------------------------------------------
 
          Ground-State Mulliken Net Atomic Charges

     Atom                 Charge (a.u.)
  ----------------------------------------
      1 C                    -0.180188
      2 C                    -0.180188
      3 H                     0.173613
      4 H                     0.173613
      5 H                     0.001772
      6 H                     0.001772
      7 O                    -1.059083
      8 H                     0.068689
  ----------------------------------------
  Sum of atomic charges =    -1.000000

 -----------------------------------------------------------------
                    Cartesian Multipole Moments
 -----------------------------------------------------------------
    Charge (ESU x 10^10)
                -4.8032
    Dipole Moment (Debye)
         X       0.0000      Y      -0.0000      Z       5.2750
       Tot       5.2750
    Quadrupole Moments (Debye-Ang)
        XX     -23.6760     XY       0.0000     YY     -26.5053
        XZ       0.0000     YZ       0.0000     ZZ     -32.8504
    Octopole Moments (Debye-Ang^2)
       XXX       0.0000    XXY      -0.0000    XYY      -0.0000
       YYY       0.0000    XXZ       1.0262    XYZ       0.0000
       YYZ      -0.0583    XZZ       0.0000    YZZ      -0.0000
       ZZZ       6.1479
    Hexadecapole Moments (Debye-Ang^3)
      XXXX     -88.2231   XXXY       0.0000   XXYY     -21.8481
      XYYY       0.0000   YYYY     -40.1007   XXXZ       0.0000
      XXYZ      -0.0000   XYYZ       0.0000   YYYZ      -0.0000
      XXZZ     -70.7236   XYZZ       0.0000   YYZZ     -65.4188
      XZZZ       0.0000   YZZZ      -0.0000   ZZZZ    -292.3639
 -----------------------------------------------------------------
 Total job time:  164.56s(wall), 254.35s(cpu) 
 Wed Mar  2 21:12:01 2022

        *************************************************************
        *                                                           *
        *  Thank you very much for using Q-Chem.  Have a nice day.  *
        *                                                           *
        *************************************************************


