/src/tsommerfeld/qchem/exe/qcprog.exe .input1.305556.20580.qcin.1 /src/jdavis/qchem.scratch/qchem20580/

                  Welcome to Q-Chem
     A Quantum Leap Into The Future Of Chemistry


 Q-Chem 5.4 (devel), Q-Chem, Inc., Pleasanton, CA (2021)

 E. Epifanovsky,  A. T. B. Gilbert,  Xintian Feng,  Joonho Lee,  Yuezhi Mao,  
 N. Mardirossian,  P. Pokhilko,  A. White,  M. Wormit,  M. P. Coons,  
 A. L. Dempwolff,  Zhengting Gan,  D. Hait,  P. R. Horn,  L. D. Jacobson,  
 I. Kaliman,  J. Kussmann,  A. W. Lange,  Ka Un Lao,  D. S. Levine,  Jie Liu,  
 S. C. McKenzie,  A. F. Morrison,  K. Nanda,  F. Plasser,  D. R. Rehn,  
 M. L. Vidal,  Zhi-Qiang You,  Ying Zhu,  B. Alam,  B. Albrecht,  
 A. Aldossary,  E. Alguire,  J. H. Andersen,  D. Barton,  K. Begam,  A. Behn,  
 Y. A. Bernard,  E. J. Berquist,  H. Burton,  A. Carreras,  K. Carter-Fenk,  
 R. Chakraborty,  A. D. Chien,  K. D. Closser,  V. Cofer-Shabica,  
 S. Dasgupta,  Jia Deng,  M. de Wergifosse,  M. Diedenhofen,  Hainam Do,  
 S. Ehlert,  Po-Tung Fang,  S. Fatehi,  Qingguo Feng,  T. Friedhoff,  
 J. Gayvert,  Qinghui Ge,  G. Gidofalvi,  M. Goldey,  J. Gomes,  
 C. Gonzalez-Espinoza,  S. Gulania,  A. Gunina,  M. W. D. Hanson-Heine,  
 P. H. P. Harbach,  A. W. Hauser,  M. F. Herbst,  M. Hernandez Vera,  
 M. Hodecker,  Z. C. Holden,  S. Houck,  Xunkun Huang,  Kerwin Hui,  
 B. C. Huynh,  M. Ivanov,  Hyunjun Ji,  Hanjie Jiang,  B. Kaduk,  S. Kaehler,  
 K. Khistyaev,  Jaehoon Kim,  P. Klunzinger,  Z. Koczor-Benda,  
 Joong Hoon Koh,  D. Kosenkov,  L. Koulias,  T. Kowalczyk,  C. M. Krauter,  
 K. Kue,  A. Kunitsa,  T. Kus,  A. Landau,  K. V. Lawler,  D. Lefrancois,  
 S. Lehtola,  Rain Li,  Yi-Pei Li,  Jiashu Liang,  M. Liebenthal,  
 Hung-Hsuan Lin,  You-Sheng Lin,  Fenglai Liu,  Kuan-Yu Liu,  
 M. Loipersberger,  A. Luenser,  A. Manjanath,  P. Manohar,  E. Mansoor,  
 S. F. Manzer,  Shan-Ping Mao,  A. V. Marenich,  T. Markovich,  S. Mason,  
 S. A. Maurer,  P. F. McLaughlin,  M. F. S. J. Menger,  J.-M. Mewes,  
 S. A. Mewes,  P. Morgante,  J. W. Mullinax,  K. J. Oosterbaan,  G. Paran,  
 Alexander C. Paul,  Suranjan K. Paul,  F. Pavosevic,  Zheng Pei,  S. Prager,  
 E. I. Proynov,  E. Ramos,  B. Rana,  A. E. Rask,  A. Rettig,  R. M. Richard,  
 F. Rob,  E. Rossomme,  T. Scheele,  M. Scheurer,  M. Schneider,  
 N. Sergueev,  S. M. Sharada,  W. Skomorowski,  D. W. Small,  C. J. Stein,  
 Yu-Chuan Su,  E. J. Sundstrom,  Zhen Tao,  J. Thirman,  T. Tsuchimochi,  
 N. M. Tubman,  S. P. Veccham,  O. Vydrov,  J. Wenzel,  J. Witte,  A. Yamada,  
 Kun Yao,  S. Yeganeh,  S. R. Yost,  A. Zech,  Igor Ying Zhang,  Xing Zhang,  
 Yu Zhang,  D. Zuev,  A. Aspuru-Guzik,  A. T. Bell,  N. A. Besley,  
 K. B. Bravaya,  B. R. Brooks,  D. Casanova,  Jeng-Da Chai,  S. Coriani,  
 C. J. Cramer,  A. E. DePrince, III,  R. A. DiStasio Jr.,  A. Dreuw,  
 B. D. Dunietz,  T. R. Furlani,  W. A. Goddard III,  S. Grimme,  
 S. Hammes-Schiffer,  T. Head-Gordon,  W. J. Hehre,  Chao-Ping Hsu,  
 T.-C. Jagau,  Yousung Jung,  A. Klamt,  Jing Kong,  D. S. Lambrecht,  
 WanZhen Liang,  N. J. Mayhall,  C. W. McCurdy,  J. B. Neaton,  
 C. Ochsenfeld,  J. A. Parkhill,  R. Peverati,  V. A. Rassolov,  Yihan Shao,  
 L. V. Slipchenko,  T. Stauch,  R. P. Steele,  J. E. Subotnik,  
 A. J. W. Thom,  A. Tkatchenko,  D. G. Truhlar,  T. Van Voorhis,  
 T. A. Wesolowski,  K. B. Whaley,  H. L. Woodcock III,  P. M. Zimmerman,  
 S. Faraji,  P. M. W. Gill,  M. Head-Gordon,  J. M. Herbert,  A. I. Krylov

 Additional authors for Version 5.4.1: 
 S. Kotaru,  Shaozhi Li,  Xiangyuan Li,  F. Matz,  A. Molle,  Haisheng Ren,  
 Yingli Su,  Hung-Yi Tsai,  C. Utku,  Fang Wang

 Contributors to earlier versions of Q-Chem not listed above: 
 R. D. Adamson,  B. Austin,  R. Baer,  J. Baker,  G. J. O. Beran,  
 K. Brandhorst,  S. T. Brown,  E. F. C. Byrd,  A. K. Chakraborty,  
 G. K. L. Chan,  Chun-Min Chang,  Yunqing Chen,  C.-L. Cheng,  
 Siu Hung Chien,  D. M. Chipman,  D. L. Crittenden,  H. Dachsel,  
 R. J. Doerksen,  A. D. Dutoi,  R. G. Edgar,  J. Fosso-Tande,  
 L. Fusti-Molnar,  D. Ghosh,  A. Ghysels,  A. Golubeva-Zadorozhnaya,  
 J. Gonthier,  M. S. Gordon,  S. R. Gwaltney,  G. Hawkins,  J. E. Herr,  
 A. Heyden,  S. Hirata,  E. G. Hohenstein,  G. Kedziora,  F. J. Keil,  
 C. Kelley,  Jihan Kim,  R. A. King,  R. Z. Khaliullin,  P. P. Korambath,  
 W. Kurlancheek,  A. Laurent,  A. M. Lee,  M. S. Lee,  S. V. Levchenko,  
 Ching Yeh Lin,  D. Liotard,  E. Livshits,  R. C. Lochan,  I. Lotan,  
 L. A. Martinez-Martinez,  P. E. Maslen,  N. Nair,  D. P. O'Neill,  
 D. Neuhauser,  E. Neuscamman,  C. M. Oana,  R. Olivares-Amaya,  R. Olson,  
 T. M. Perrine,  B. Peters,  P. A. Pieniazek,  A. Prociuk,  Y. M. Rhee,  
 J. Ritchie,  M. A. Rohrdanz,  E. Rosta,  N. J. Russ,  H. F. Schaefer III,  
 M. W. Schmidt,  N. E. Schultz,  S. Sharma,  N. Shenvi,  C. D. Sherrill,  
 A. C. Simmonett,  A. Sodt,  T. Stein,  D. Stuck,  K. S. Thanthiriwatte,  
 V. Vanovschi,  L. Vogt,  Tao Wang,  A. Warshel,  M. A. Watson,  
 C. F. Williams,  Q. Wu,  X. Xu,  Jun Yang,  W. Zhang,  Yan Zhao

 Please cite Q-Chem as follows:
 Y. Shao et al., Mol. Phys. 113, 184-215 (2015)
 DOI: 10.1080/00268976.2014.952696

 Q-Chem 5.4.1 for Intel X86 EM64T Linux

 Parts of Q-Chem use Armadillo 9.900.5 (Nocturnal Misbehaviour).
 http://arma.sourceforge.net/

 Q-Chem begins on Thu Feb 17 19:26:01 2022  

 Host: node01
0

     Scratch files written to /src/jdavis/qchem.scratch/qchem20580//
 Processing $rem in /src/tsommerfeld/qchem/config/preferences:
 Processing $rem in /home/jdavis/.qchemrc:

 Checking the input file for inconsistencies... 	...done.

--------------------------------------------------------------
User input:
--------------------------------------------------------------
$molecule
-1 1
C        -0.6645000000    0.0000000000   -0.2082049804
C         0.6645000000    0.0000000000   -0.2082049804
H        -1.1590800000    0.0000000000    0.7541440196
H         1.1590800000    0.0000000000    0.7541440196
H        -1.1590800000    0.0000000000   -1.1705529804
H         1.1590800000    0.0000000000   -1.1705529804
H         0.0000000000    0.0000000000    9.792
$end

$rem
   METHOD adc(2)
   BASIS gen
   PURECART 11
   EE_STATES [0,10,0,0]
   scf_convergence 8
   ADC_DAVIDSON_MAXITER 120
   ADC_DAVIDSON_MAXSUBSPACE 200
   adc_nguess_singles 100
   THRESH 14
   S2THRESH 14
   adc_davidson_conv 5
   adc_davidson_thresh 14
   THREADS 10
   MEM_TOTAL 95000
   STATE_ANALYSIS TRUE
$end
$basis
C 1
S   9   1.00
      6.665000D+03           6.920000D-04
      1.000000D+03           5.329000D-03
      2.280000D+02           2.707700D-02
      6.471000D+01           1.017180D-01
      2.106000D+01           2.747400D-01
      7.495000D+00           4.485640D-01
      2.797000D+00           2.850740D-01
      5.215000D-01           1.520400D-02
      1.596000D-01          -3.191000D-03
S   9   1.00
      6.665000D+03          -1.460000D-04
      1.000000D+03          -1.154000D-03
      2.280000D+02          -5.725000D-03
      6.471000D+01          -2.331200D-02
      2.106000D+01          -6.395500D-02
      7.495000D+00          -1.499810D-01
      2.797000D+00          -1.272620D-01
      5.215000D-01           5.445290D-01
      1.596000D-01           5.804960D-01
S   1   1.00
      1.596000D-01           1.000000D+00
S   1   1.00
      0.0469000              1.0000000
P   4   1.00
      9.439000D+00           3.810900D-02
      2.002000D+00           2.094800D-01
      5.456000D-01           5.085570D-01
      1.517000D-01           4.688420D-01
P   1   1.00
      1.517000D-01           1.000000D+00
P   1   1.00
      0.0792211      1.0000000
P   1   1.00
      0.0396106      1.0000000
D   1   1.00
      5.500000D-01           1.0000000
****
C 2
S   9   1.00
      6.665000D+03           6.920000D-04
      1.000000D+03           5.329000D-03
      2.280000D+02           2.707700D-02
      6.471000D+01           1.017180D-01
      2.106000D+01           2.747400D-01
      7.495000D+00           4.485640D-01
      2.797000D+00           2.850740D-01
      5.215000D-01           1.520400D-02
      1.596000D-01          -3.191000D-03
S   9   1.00
      6.665000D+03          -1.460000D-04
      1.000000D+03          -1.154000D-03
      2.280000D+02          -5.725000D-03
      6.471000D+01          -2.331200D-02
      2.106000D+01          -6.395500D-02
      7.495000D+00          -1.499810D-01
      2.797000D+00          -1.272620D-01
      5.215000D-01           5.445290D-01
      1.596000D-01           5.804960D-01
S   1   1.00
      1.596000D-01           1.000000D+00
S   1   1.00
      0.0469000              1.0000000
P   4   1.00
      9.439000D+00           3.810900D-02
      2.002000D+00           2.094800D-01
      5.456000D-01           5.085570D-01
      1.517000D-01           4.688420D-01
P   1   1.00
      1.517000D-01           1.000000D+00
P   1   1.00
      0.0792211      1.0000000
P   1   1.00
      0.0396106      1.0000000
D   1   1.00
      5.500000D-01           1.0000000
****
H 3
cc-pVDZ
****
H 4
cc-pVDZ
****
H 5
cc-pVDZ
****
H 6
cc-pVDZ
****
H 7
aug-cc-pVDZ
****
$end
--------------------------------------------------------------
 ----------------------------------------------------------------
             Standard Nuclear Orientation (Angstroms)
    I     Atom           X                Y                Z
 ----------------------------------------------------------------
    1      C      -0.6645000000    -0.0000000000    -0.5882474694
    2      C       0.6645000000     0.0000000000    -0.5882474694
    3      H      -1.1590800000    -0.0000000000     0.3741015306
    4      H       1.1590800000     0.0000000000     0.3741015306
    5      H      -1.1590800000    -0.0000000000    -1.5505954694
    6      H       1.1590800000     0.0000000000    -1.5505954694
    7      H       0.0000000000     0.0000000000     9.4119575110
 ----------------------------------------------------------------
 Molecular Point Group                 C2v   NOp =  4
 Largest Abelian Subgroup              C2v   NOp =  4
 Nuclear Repulsion Energy =          34.43497767 hartrees
 There are        9 alpha and        9 beta electrons
 Requested basis set is non-standard
 There are 33 shells and 67 basis functions
 Total memory of 95000 MB is distributed as follows: 
   MEM_STATIC is set to 192 MB
   QALLOC/CCMAN JOB total memory use is  94808 MB
 Warning: actual memory use might exceed 95000 MB

 Total QAlloc Memory Limit  95000 MB
 Mega-Array Size       188 MB
 MEM_STATIC part       192 MB

                       Distance Matrix (Angstroms)
             C (  1)   C (  2)   H (  3)   H (  4)   H (  5)   H (  6)
   C (  2)  1.329000
   H (  3)  1.082000  2.061931
   H (  4)  2.061931  1.082000  2.318160
   H (  5)  1.082000  2.061931  1.924697  3.013026
   H (  6)  2.061931  1.082000  3.013026  1.924697  2.318160
   H (  7) 10.022258 10.022258  9.111877  9.111877 11.023658 11.023658

 
 A cutoff of  1.0D-14 yielded    505 shell pairs
 There are      2121 function pairs (      2258 Cartesian)
 Smallest overlap matrix eigenvalue = 2.41E-04

 Scale SEOQF with 1.000000e-01/1.000000e-01/1.000000e-02

 Standard Electronic Orientation quadrupole field applied
 Nucleus-field energy     =    -0.0000000007 hartrees
 ================ Generating on-the-fly SAD Guess ================
Attempting to make child job directory: /src/jdavis/qchem.scratch/qchem20580//Frg1/
Attempting to make child job directory: /src/jdavis/qchem.scratch/qchem20580//Frg2/
Creating input file /src/jdavis/qchem.scratch/qchem20580/Frg1.input
using default PutDataFrgm: nothing
calling putenv with: QCSCRATCH=/src/jdavis/qchem.scratch/qchem20580/ 
Spawning Job For Fragment 0
Done Job For Fragment 0
calling putenv with: QCSCRATCH=/src/jdavis/qchem.scratch 
calling putenv with: QCTHREADS=1 
Creating input file /src/jdavis/qchem.scratch/qchem20580/Frg2.input
using default PutDataFrgm: nothing
calling putenv with: QCSCRATCH=/src/jdavis/qchem.scratch/qchem20580/ 
Spawning Job For Fragment 1
Done Job For Fragment 1
calling putenv with: QCSCRATCH=/src/jdavis/qchem.scratch 
calling putenv with: QCTHREADS=1 
 Time for running child jobs:  CPU 1.81 s  wall 53.18 s
 ============= Method Specific SAD Guess Constructed =============
 Guess from on-the-fly superposition of atomic densities
 Warning: Energy on first SCF cycle will be non-variational
 A restricted Hartree-Fock SCF calculation will be
 performed using Pulay DIIS extrapolation
 SCF converges when DIIS error is below 1.0E-08
 using 10 threads for integral computing
 -------------------------------------------------------
 OpenMP Integral computing Module                
 Release: version 1.0, May 2013, Q-Chem Inc. Pittsburgh 
 -------------------------------------------------------
 ---------------------------------------
  Cycle       Energy         DIIS Error
 ---------------------------------------
    1     -78.8012784789      7.36E-02
    2     -78.4468786325      6.48E-03
    3     -78.4848414805      1.48E-03
    4     -78.4867731478      4.76E-04
    5     -78.4869460829      7.27E-05
    6     -78.4869538678      1.23E-05
    7     -78.4869541856      3.41E-06
    8     -78.4869542100      3.02E-07
    9     -78.4869542101      6.47E-08
   10     -78.4869542101      1.01E-08
   11     -78.4869542101      1.08E-09 Convergence criterion met
 ---------------------------------------
 SCF time:  CPU 10.35 s  wall 1.04 s
 SCF   energy in the final basis set = -78.48695421
 Total energy in the final basis set = -78.48695421
================================================================================
|                                                                              |
|                                 A D C  M A N                                 |
|                                                                              |
 ------------------------------------------------------------------------------ 
|                                                                              |
| Components:                                                                  |
|                                                                              |
| - libvmm - 1.3-trunk                                                         |
|   Authors:                                                                   |
|   Evgeny Epifanovsky, Ilya Kaliman                                           |
|                                                                              |
| - libtensor - 2.5-trunk                                                      |
|   Authors:                                                                   |
|   Evgeny Epifanovsky, Michael Wormit, Dmitry Zuev, Sam Manzer,               |
|   Ilya Kaliman                                                               |
|                                                                              |
| - libwfa - 1.1-trunk                                                         |
|   Authors:                                                                   |
|   Felix Plasser, Stefanie Mewes (Baeppler), Benjamin Thomitzni,              |
|   Michael Wormit, Feng Chen, Anna I. Krylov, Pavel Pokhilko                  |
|                                                                              |
| - libadc - 1.1-trunk                                                         |
|   Authors:                                                                   |
|   Michael Wormit, Adrian L. Dempwolff, Philipp H. P. Harbach,                |
|   Caroline Krauter, Dirk Rehn, Matthias Schneider, Jan Wenzel                |
|                                                                              |
| - adcman - 2.6-trunk                                                         |
|   Authors:                                                                   |
|   Michael Wormit, Adrian L. Dempwolff, Philipp H. P. Harbach,                |
|   Caroline Krauter, Daniel Lefrancois, Jan-Michael Mewes, Dirk Rehn,         |
|   Matthias Schneider, Jan Wenzel, Andreas Dreuw                              |
|                                                                              |
| Authors of earlier versions of ADCMAN:                                       |
| Andreas Dreuw, Jan Hendrik Starcke, Dirk Rehn, Michael Wormit                |
|                                                                              |
================================================================================

 
 Alpha MOs, Restricted
 -- Occupied --                  
-11.184 -11.182  -0.989  -0.729  -0.607  -0.514  -0.462  -0.324
  1 A1    1 B1    2 A1    2 B1    3 A1    4 A1    3 B1    1 B2                 
  0.022
  5 A1                                                                         
 -- Virtual --                   
  0.119   0.133   0.142   0.144   0.148   0.167   0.189   0.233
  4 B1    6 A1    7 A1    2 B2    1 A2    5 B1    8 A1    2 A2                 
  0.264   0.315   0.368   0.369   0.392   0.402   0.404   0.412
  6 B1    9 A1   10 A1    7 B1   11 A1   12 A1    3 B2    8 B1                 
  0.423   0.487   0.605   0.668   0.886   0.905   0.988   1.003
  9 B1    3 A2   10 B1   11 B1   13 A1   14 A1   12 B1   15 A1                 
  1.058   1.078   1.094   1.108   1.165   1.167   1.188   1.208
 16 A1   13 B1   17 A1   18 A1    4 B2    5 B2   14 B1    4 A2                 
  1.336   1.337   1.343   1.499   1.674   1.727   1.783   1.927
 15 B1    5 A2    6 B2   16 B1   19 A1   17 B1   20 A1    6 A2                 
  1.967   1.967   1.967   1.997   2.013   2.070   2.123   2.148
 21 A1   18 B1    7 B2    8 B2   19 B1    9 B2   22 A1   23 A1                 
  2.234   2.383   2.465   2.525   2.625   2.632   2.888   2.894
  7 A2   20 B1    8 A2   24 A1   21 B1   22 B1   25 A1   26 A1                 
  3.316   3.395
 23 B1   24 B1                                                                 
 
 Beta MOs, Restricted
 -- Occupied --                  
-11.184 -11.182  -0.989  -0.729  -0.607  -0.514  -0.462  -0.324
  1 A1    1 B1    2 A1    2 B1    3 A1    4 A1    3 B1    1 B2                 
  0.022
  5 A1                                                                         
 -- Virtual --                   
  0.119   0.133   0.142   0.144   0.148   0.167   0.189   0.233
  4 B1    6 A1    7 A1    2 B2    1 A2    5 B1    8 A1    2 A2                 
  0.264   0.315   0.368   0.369   0.392   0.402   0.404   0.412
  6 B1    9 A1   10 A1    7 B1   11 A1   12 A1    3 B2    8 B1                 
  0.423   0.487   0.605   0.668   0.886   0.905   0.988   1.003
  9 B1    3 A2   10 B1   11 B1   13 A1   14 A1   12 B1   15 A1                 
  1.058   1.078   1.094   1.108   1.165   1.167   1.188   1.208
 16 A1   13 B1   17 A1   18 A1    4 B2    5 B2   14 B1    4 A2                 
  1.336   1.337   1.343   1.499   1.674   1.727   1.783   1.927
 15 B1    5 A2    6 B2   16 B1   19 A1   17 B1   20 A1    6 A2                 
  1.967   1.967   1.967   1.997   2.013   2.070   2.123   2.148
 21 A1   18 B1    7 B2    8 B2   19 B1    9 B2   22 A1   23 A1                 
  2.234   2.383   2.465   2.525   2.625   2.632   2.888   2.894
  7 A2   20 B1    8 A2   24 A1   21 B1   22 B1   25 A1   26 A1                 
  3.316   3.395
 23 B1   24 B1                                                                 

--------------------------------------------------------------------------------
                                   HF Summary                                   
--------------------------------------------------------------------------------
  Energy:                                                  -78.4869542101 a.u.
  Dip. moment [a.u.]:                  [   0.000000,    0.000000,  -17.727033]
  Total dipole [Debye]:                                              45.057631
  <r^2> [a.u.]:                        [  50.663788,   14.946353,  677.632252]
  Total <r^2> [a.u.]:                                               743.242393
--------------------------------------------------------------------------------

--------------------------------------------------------------------------------
                                 MP(2) Summary                                  
--------------------------------------------------------------------------------
  MP energy contribution:                                   -0.2992014476 a.u.
  Total energy:                                            -78.7861556577 a.u.
  Dip. moment [a.u.]:                  [  -0.000000,    0.000000,  -17.726342]
  Total dipole [Debye]:                                              45.055877
  <r^2> [a.u.]:                        [  50.729059,   14.754121,  677.621194]
  Total <r^2> [a.u.]:                                               743.104374

  Density matrix analysis:
  ------------------------
  NOs
    Occupation of frontier NOs:
       0.0447   1.9370
    Number of electrons: 18.000000
    Number of unpaired electrons: n_u =  0.43237, n_u,nl =  0.04681
    NO participation ratio (PR_NO): 15.330159
  
  
  Mulliken Population Analysis
  Atom      Charge (e)              h+              e-           Del q
  --------------------------------------------------------------------
   1 C       -0.215834        0.087478       -0.102571       -0.015094
   2 C       -0.215834        0.087478       -0.102571       -0.015094
   3 H        0.118806        0.017882       -0.010348        0.007534
   4 H        0.118806        0.017882       -0.010348        0.007534
   5 H        0.097026        0.018202       -0.010642        0.007559
   6 H        0.097026        0.018202       -0.010642        0.007559
   7 H       -0.999995        0.021953       -0.021953        0.000000
  --------------------------------------------------------------------
  Sum:       -1.000000        0.269076       -0.269076       -0.000000
  
  Multipole moment analysis of the density matrix
    Molecular charge:                      -1.000000
    Number of electrons:                   18.000000
      Center of electronic charge [Ang]: [  0.000000,  -0.000000,   0.521132]
    Total nuclear charge:                  17.000000
      Center of nuclear charge [Ang]:    [  0.000000,   0.000000,  -0.000000]
    Dipole moment [D]:                     45.055863
      Cartesian components [D]:          [ -0.000000,   0.000000, -45.055863]
    RMS size of the density [Ang]:         3.359911
      Cartesian components [Ang]:        [  0.888369,   0.479095,   3.204726]
  
  Exciton analysis of the difference density matrix
    <r_h> [Ang]:                  [ -0.000000,   0.000000,   0.225123]
    <r_e> [Ang]:                  [  0.000000,   0.000000,   0.223766]
    |<r_e - r_h>| [Ang]:            0.001358
    Hole size [Ang]:                3.083983
      Cartesian components [Ang]: [  0.952796,   0.754056,   2.834525]
    Electron size [Ang]:            3.060706
      Cartesian components [Ang]: [  0.987799,   0.607078,   2.832602]
--------------------------------------------------------------------------------
Less singles guess vectors found than requested: 85 (found), 100 (requested).
Adjusting number of doubles guess vectors to 15.
  Starting Davidson for singlet states of irrep A2 ... 
--------------------------------------------------------------------------------
   It NVec Conv  Avg. Norm  Max. Norm  Conv. states           Remark
--------------------------------------------------------------------------------
       100    0  5.300e-02  3.606e-01  0.0961 n n n n n n n n Guess.
    1  110    3  1.861e-03  1.182e-02  0.0566 n n y n n y y n 
    2  120    8  2.277e-04  2.277e-03  0.0565 y n y y y y y n 
    3  130    9  1.985e-05  1.985e-04  0.0565 y y y y y y y n 
    4  140   10  8.084e-07  8.084e-06  0.0565 y y y y y y y y Converged.
--------------------------------------------------------------------------------
  Davidson Summary: 
 ------------------------------------------------------------
  State  0: excitation energy =   0.0565 a.u.   (converged)
  State  1: excitation energy =   0.1248 a.u.   (converged)
  State  2: excitation energy =   0.2202 a.u.   (converged)
  State  3: excitation energy =   0.2375 a.u.   (converged)
  State  4: excitation energy =   0.2459 a.u.   (converged)
  State  5: excitation energy =   0.2680 a.u.   (converged)
  State  6: excitation energy =   0.2936 a.u.   (converged)
  State  7: excitation energy =   0.2941 a.u.   (converged)
  State  8: excitation energy =   0.3234 a.u.   (converged)
  State  9: excitation energy =   0.3318 a.u.   (converged)
 ------------------------------------------------------------


--------------------------------------------------------------------------------
                   State-averaged natural transition orbitals
--------------------------------------------------------------------------------
--------------------------------------------------------------------------------

--------------------------------------------------------------------------------
                             Excited State Summary
--------------------------------------------------------------------------------
--------------------------------------------------------------------------------

  Excited state 1 (singlet, A2)                                    [converged]
  ----------------------------------------------------------------------------
  Term symbol:  1 (1) A2                                    R^2 =  4.49816e-09

  Total energy:                                            -78.7296154510 a.u.
  Excitation energy:                                               1.538537 eV

  Osc. strength:                                                      0.000000
  Trans. dip. moment [a.u.]:           [   0.000000,    0.000000,    0.000000]
  <i|r^2|0> [a.u.]:                    [   0.000000,    0.000000,   -0.000000]

  Dip. moment [a.u.]:                  [  -0.000000,   -0.000000,    1.132899]
  Total dipole [Debye]:                                               2.879543
  <r^2> [a.u.]:                        [  63.451628,   26.160331,  365.868976]
  Total <r^2> [a.u.]:                                               455.480935

  V1^2 = 0.9595, V2^2 = 0.0405

  Important amplitudes:
      occ i      occ j       vir a       vir b          v   
    ---------------------------------------------------------
     5 (A1) A               1 (A2) A                 -0.6632
     5 (A1) A               2 (A2) A                 -0.1952
    ---------------------------------------------------------

  Density matrix analysis:
  ------------------------
  NOs
    Occupation of frontier NOs:
       0.9911   1.0014
    Number of electrons: 18.000000
    Number of unpaired electrons: n_u =  2.41264, n_u,nl =  2.04427
    NO participation ratio (PR_NO):  2.923354
  
  
  Mulliken Population Analysis
  Atom      Charge (e)              h+              e-           Del q
  --------------------------------------------------------------------
   1 C       -0.641510        0.112346       -0.538022       -0.425676
   2 C       -0.641510        0.112346       -0.538022       -0.425676
   3 H        0.075386        0.003862       -0.047281       -0.043420
   4 H        0.075386        0.003862       -0.047281       -0.043420
   5 H        0.066121        0.004563       -0.035468       -0.030905
   6 H        0.066121        0.004563       -0.035468       -0.030905
   7 H        0.000006        1.019138       -0.019137        1.000002
  --------------------------------------------------------------------
  Sum:       -1.000000        1.260680       -1.260680       -0.000000
  
  Multipole moment analysis of the density matrix
    Molecular charge:                      -1.000000
    Number of electrons:                   18.000000
      Center of electronic charge [Ang]: [  0.000000,   0.000000,  -0.033306]
    Total nuclear charge:                  17.000000
      Center of nuclear charge [Ang]:    [  0.000000,   0.000000,  -0.000000]
    Dipole moment [D]:                     2.879542
      Cartesian components [D]:          [ -0.000000,  -0.000000,   2.879542]
    RMS size of the density [Ang]:         2.661742
      Cartesian components [Ang]:        [  0.993542,   0.637950,   2.385533]
  
  Exciton analysis of the difference density matrix
    <r_h> [Ang]:                  [  0.000000,  -0.000000,   7.498648]
    <r_e> [Ang]:                  [  0.000000,   0.000000,  -0.417621]
    |<r_e - r_h>| [Ang]:            7.916269
    Hole size [Ang]:                4.129229
      Cartesian components [Ang]: [  0.776422,   0.710391,   3.992874]
    Electron size [Ang]:            3.036031
      Cartesian components [Ang]: [  1.851710,   1.743061,   1.658431]

  Transition density matrix analysis:
  -----------------------------------
  
  CT numbers (Mulliken)
    omega =     0.9449
    <Phe> =     0.0000
  
  Exciton analysis of the transition density matrix
    Trans. dipole moment [D]:             0.000000
      Cartesian components [D]:         [  0.000000,   0.000000,   0.000000]
    <r_h> [Ang]:                        [  0.000000,   0.000000,   9.411905]
    <r_e> [Ang]:                        [  0.000000,   0.000000,  -0.588149]
    |<r_e - r_h>| [Ang]:                 10.000055
    Hole size [Ang]:                      1.110005
      Cartesian components [Ang]:       [  0.640805,   0.640804,   0.640976]
    Electron size [Ang]:                  2.949426
      Cartesian components [Ang]:       [  1.972386,   1.896651,   1.100691]
    RMS electron-hole separation [Ang]:  10.484858
      Cartesian components [Ang]:       [  2.073857,   2.001972,  10.080846]
    Covariance(r_h, r_e) [Ang^2]:         0.000038
    Correlation coefficient:              0.000012
    Center-of-mass size [Ang]:            1.575698
      Cartesian components [Ang]:       [  1.036941,   1.000992,   0.636861]

  Decomposition into state-averaged NTOs
    H- 0 -> L+ 0: -0.5059 ( 51.2%)
    H- 0 -> L+ 2: -0.4653 ( 43.3%)
                   omega =  94.5%
  ----------------------------------------------------------------------------


  Excited state 2 (singlet, A2)                                    [converged]
  ----------------------------------------------------------------------------
  Term symbol:  2 (1) A2                                    R^2 =  9.19172e-09

  Total energy:                                            -78.6613684503 a.u.
  Excitation energy:                                               3.395633 eV

  Osc. strength:                                                      0.000000
  Trans. dip. moment [a.u.]:           [   0.000000,    0.000000,   -0.000000]
  <i|r^2|0> [a.u.]:                    [   0.000000,    0.000000,    0.000000]

  Dip. moment [a.u.]:                  [  -0.000000,    0.000000,    1.133184]
  Total dipole [Debye]:                                               2.880266
  <r^2> [a.u.]:                        [  68.304499,   31.140349,  367.541587]
  Total <r^2> [a.u.]:                                               466.986435

  V1^2 = 0.9564, V2^2 = 0.0436

  Important amplitudes:
      occ i      occ j       vir a       vir b          v   
    ---------------------------------------------------------
     5 (A1) A               2 (A2) A                  0.6532
     5 (A1) A               1 (A2) A                 -0.2148
    ---------------------------------------------------------

  Density matrix analysis:
  ------------------------
  NOs
    Occupation of frontier NOs:
       0.9872   1.0013
    Number of electrons: 18.000000
    Number of unpaired electrons: n_u =  2.42531, n_u,nl =  2.04829
    NO participation ratio (PR_NO):  2.963799
  
  
  Mulliken Population Analysis
  Atom      Charge (e)              h+              e-           Del q
  --------------------------------------------------------------------
   1 C       -0.625309        0.109317       -0.518792       -0.409475
   2 C       -0.625309        0.109317       -0.518792       -0.409475
   3 H        0.067381        0.001857       -0.053282       -0.051425
   4 H        0.067381        0.001857       -0.053282       -0.051425
   5 H        0.057925        0.002644       -0.041745       -0.039101
   6 H        0.057925        0.002644       -0.041745       -0.039101
   7 H        0.000006        1.018864       -0.018862        1.000002
  --------------------------------------------------------------------
  Sum:       -1.000000        1.246500       -1.246500       -0.000000
  
  Multipole moment analysis of the density matrix
    Molecular charge:                      -1.000000
    Number of electrons:                   18.000000
      Center of electronic charge [Ang]: [  0.000000,  -0.000000,  -0.033314]
    Total nuclear charge:                  17.000000
      Center of nuclear charge [Ang]:    [  0.000000,   0.000000,  -0.000000]
    Dipole moment [D]:                     2.880265
      Cartesian components [D]:          [ -0.000000,   0.000000,   2.880265]
    RMS size of the density [Ang]:         2.695156
      Cartesian components [Ang]:        [  1.030836,   0.696028,   2.390980]
  
  Exciton analysis of the difference density matrix
    <r_h> [Ang]:                  [  0.000000,  -0.000000,   7.588573]
    <r_e> [Ang]:                  [  0.000000,  -0.000000,  -0.417872]
    |<r_e - r_h>| [Ang]:            8.006445
    Hole size [Ang]:                4.046220
      Cartesian components [Ang]: [  0.752334,   0.672810,   3.918318]
    Electron size [Ang]:            3.428308
      Cartesian components [Ang]: [  2.124703,   2.033192,   1.762119]

  Transition density matrix analysis:
  -----------------------------------
  
  CT numbers (Mulliken)
    omega =     0.9428
    <Phe> =     0.0000
  
  Exciton analysis of the transition density matrix
    Trans. dipole moment [D]:             0.000000
      Cartesian components [D]:         [  0.000000,   0.000000,  -0.000000]
    <r_h> [Ang]:                        [  0.000000,   0.000000,   9.411906]
    <r_e> [Ang]:                        [  0.000000,  -0.000000,  -0.588161]
    |<r_e - r_h>| [Ang]:                 10.000067
    Hole size [Ang]:                      1.109982
      Cartesian components [Ang]:       [  0.640792,   0.640791,   0.640963]
    Electron size [Ang]:                  3.480450
      Cartesian components [Ang]:       [  2.305315,   2.256327,   1.306921]
    RMS electron-hole separation [Ang]:  10.646450
      Cartesian components [Ang]:       [  2.392710,   2.345550,  10.105455]
    Covariance(r_h, r_e) [Ang^2]:         0.000022
    Correlation coefficient:              0.000006
    Center-of-mass size [Ang]:            1.826584
      Cartesian components [Ang]:       [  1.196361,   1.172779,   0.727818]

  Decomposition into state-averaged NTOs
    H- 0 -> L+ 2:  0.4892 ( 47.9%)
    H- 0 -> L+ 0: -0.4817 ( 46.4%)
                   omega =  94.3%
  ----------------------------------------------------------------------------


  Excited state 3 (singlet, A2)                                    [converged]
  ----------------------------------------------------------------------------
  Term symbol:  3 (1) A2                                    R^2 =  4.79588e-13

  Total energy:                                            -78.5659983924 a.u.
  Excitation energy:                                               5.990784 eV

  Osc. strength:                                                      0.000000
  Trans. dip. moment [a.u.]:           [   0.000000,   -0.000000,   -0.000000]
  <i|r^2|0> [a.u.]:                    [   0.000000,   -0.000000,    0.000000]

  Dip. moment [a.u.]:                  [   0.000000,   -0.000000,   21.006200]
  Total dipole [Debye]:                                              53.392445
  <r^2> [a.u.]:                        [ 101.142876,   51.417891,   67.139220]
  Total <r^2> [a.u.]:                                               219.699987

  V1^2 = 0.0000, V2^2 = 1.0000

  Important amplitudes:
      occ i      occ j       vir a       vir b          v   
    ---------------------------------------------------------
     5 (A1) A   5 (A1) B    4 (B1) A    2 (B2) B     -0.3536
     5 (A1) A               1 (A2) A                 -0.0000
    ---------------------------------------------------------

  Density matrix analysis:
  ------------------------
  NOs
    Occupation of frontier NOs:
       1.0008   1.0018
    Number of electrons: 18.000000
    Number of unpaired electrons: n_u =  2.40438, n_u,nl =  2.04904
    NO participation ratio (PR_NO):  2.879432
  
  
  Mulliken Population Analysis
  Atom      Charge (e)              h+              e-           Del q
  --------------------------------------------------------------------
   1 C       -1.166940        0.000002       -0.951108       -0.951106
   2 C       -1.166940        0.000002       -0.951108       -0.951106
   3 H        0.110350        0.000000       -0.008456       -0.008456
   4 H        0.110350        0.000000       -0.008456       -0.008456
   5 H        0.056590        0.000000       -0.040436       -0.040436
   6 H        0.056590        0.000000       -0.040436       -0.040436
   7 H        1.000000        1.999996       -0.000000        1.999996
  --------------------------------------------------------------------
  Sum:       -1.000000        2.000000       -2.000000       -0.000000
  
  Multipole moment analysis of the density matrix
    Molecular charge:                      -1.000000
    Number of electrons:                   18.000000
      Center of electronic charge [Ang]: [ -0.000000,   0.000000,  -0.617556]
    Total nuclear charge:                  17.000000
      Center of nuclear charge [Ang]:    [  0.000000,   0.000000,  -0.000000]
    Dipole moment [D]:                     53.392429
      Cartesian components [D]:          [  0.000000,  -0.000000,  53.392429]
    RMS size of the density [Ang]:         1.742564
      Cartesian components [Ang]:        [  1.254390,   0.894380,   0.814321]
  
  Exciton analysis of the difference density matrix
    <r_h> [Ang]:                  [  0.000000,   0.000000,   9.411922]
    <r_e> [Ang]:                  [ -0.000000,   0.000000,  -0.836268]
    |<r_e - r_h>| [Ang]:           10.248189
    Hole size [Ang]:                1.111310
      Cartesian components [Ang]: [  0.641563,   0.641563,   0.641719]
    Electron size [Ang]:            3.979429
      Cartesian components [Ang]: [  2.733177,   2.354794,   1.679448]

  Transition density matrix analysis:
  -----------------------------------
  
  CT numbers (Mulliken)
    omega =     0.0000
    <Phe> =     0.0000
  
  Exciton analysis of the transition density matrix
    ... vanishing.

  Decomposition into state-averaged NTOs
                   omega =   0.0%
  ----------------------------------------------------------------------------


  Excited state 4 (singlet, A2)                                    [converged]
  ----------------------------------------------------------------------------
  Term symbol:  4 (1) A2                                    R^2 =  3.58847e-11

  Total energy:                                            -78.5486835755 a.u.
  Excitation energy:                                               6.461944 eV

  Osc. strength:                                                      0.000000
  Trans. dip. moment [a.u.]:           [  -0.000000,   -0.000000,   -0.000000]
  <i|r^2|0> [a.u.]:                    [  -0.000000,   -0.000000,    0.000000]

  Dip. moment [a.u.]:                  [  -0.000000,   -0.000000,   22.061114]
  Total dipole [Debye]:                                              56.073769
  <r^2> [a.u.]:                        [  88.586501,   40.284588,   75.382749]
  Total <r^2> [a.u.]:                                               204.253838

  V1^2 = 0.0000, V2^2 = 1.0000

  Important amplitudes:
      occ i      occ j       vir a       vir b          v   
    ---------------------------------------------------------
     5 (A1) A   5 (A1) B    6 (A1) A    1 (A2) B     -0.3536
     5 (A1) A               1 (A2) A                  0.0023
    ---------------------------------------------------------

  Density matrix analysis:
  ------------------------
  NOs
    Occupation of frontier NOs:
       1.0017   1.0087
    Number of electrons: 18.000000
    Number of unpaired electrons: n_u =  2.38860, n_u,nl =  2.04637
    NO participation ratio (PR_NO):  2.865292
  
  
  Mulliken Population Analysis
  Atom      Charge (e)              h+              e-           Del q
  --------------------------------------------------------------------
   1 C       -1.228951        0.000002       -1.013118       -1.013117
   2 C       -1.228951        0.000002       -1.013118       -1.013117
   3 H        0.118879       -0.000000        0.000073        0.000073
   4 H        0.118879       -0.000000        0.000073        0.000073
   5 H        0.110075       -0.000000        0.013049        0.013049
   6 H        0.110075       -0.000000        0.013049        0.013049
   7 H        0.999995        1.999991       -0.000000        1.999990
  --------------------------------------------------------------------
  Sum:       -1.000000        1.999994       -1.999994       -0.000000
  
  Multipole moment analysis of the density matrix
    Molecular charge:                      -1.000000
    Number of electrons:                   18.000000
      Center of electronic charge [Ang]: [  0.000000,   0.000000,  -0.648569]
    Total nuclear charge:                  17.000000
      Center of nuclear charge [Ang]:    [  0.000000,   0.000000,  -0.000000]
    Dipole moment [D]:                     56.073753
      Cartesian components [D]:          [ -0.000000,  -0.000000,  56.073753]
    RMS size of the density [Ang]:         1.660411
      Cartesian components [Ang]:        [  1.173947,   0.791652,   0.867236]
  
  Exciton analysis of the difference density matrix
    <r_h> [Ang]:                  [ -0.000000,   0.000000,   9.411927]
    <r_e> [Ang]:                  [  0.000000,   0.000000,  -1.115414]
    |<r_e - r_h>| [Ang]:           10.527341
    Hole size [Ang]:                1.111275
      Cartesian components [Ang]: [  0.641563,   0.641561,   0.641661]
    Electron size [Ang]:            3.623281
      Cartesian components [Ang]: [  2.390021,   1.996557,   1.851951]

  Transition density matrix analysis:
  -----------------------------------
  
  CT numbers (Mulliken)
    omega =     0.0000
    <Phe> =     0.0000
  
  Exciton analysis of the transition density matrix
    Trans. dipole moment [D]:             0.000000
      Cartesian components [D]:         [ -0.000000,  -0.000000,  -0.000000]
    <r_h> [Ang]:                        [  0.000000,   0.000000,   9.412527]
    <r_e> [Ang]:                        [  0.000000,   0.000000,  -0.587870]
    |<r_e - r_h>| [Ang]:                 10.000397
    Hole size [Ang]:                      1.070860
      Cartesian components [Ang]:       [  0.618257,   0.618257,   0.618270]
    Electron size [Ang]:                  3.926996
      Cartesian components [Ang]:       [  2.593889,   2.553055,   1.474771]
    RMS electron-hole separation [Ang]:  10.797033
      Cartesian components [Ang]:       [  2.666545,   2.626843,  10.127445]
    Covariance(r_h, r_e) [Ang^2]:         0.000031
    Correlation coefficient:              0.000007
    Center-of-mass size [Ang]:            2.035197
      Cartesian components [Ang]:       [  1.333280,   1.313426,   0.799563]

  Decomposition into state-averaged NTOs
                   omega =   0.0%
  ----------------------------------------------------------------------------


  Excited state 5 (singlet, A2)                                    [converged]
  ----------------------------------------------------------------------------
  Term symbol:  5 (1) A2                                    R^2 =  3.08363e-11

  Total energy:                                            -78.5402840987 a.u.
  Excitation energy:                                               6.690505 eV

  Osc. strength:                                                      0.000000
  Trans. dip. moment [a.u.]:           [  -0.000000,   -0.000000,   -0.000000]
  <i|r^2|0> [a.u.]:                    [  -0.000000,   -0.000000,    0.000000]

  Dip. moment [a.u.]:                  [  -0.000000,    0.000000,   18.547305]
  Total dipole [Debye]:                                              47.142555
  <r^2> [a.u.]:                        [  96.838373,   39.768359,   63.826699]
  Total <r^2> [a.u.]:                                               200.433431

  V1^2 = 0.0000, V2^2 = 1.0000

  Important amplitudes:
      occ i      occ j       vir a       vir b          v   
    ---------------------------------------------------------
     5 (A1) A   5 (A1) B    7 (A1) A    1 (A2) B     -0.3536
     5 (A1) A               1 (A2) A                  0.0017
    ---------------------------------------------------------

  Density matrix analysis:
  ------------------------
  NOs
    Occupation of frontier NOs:
       1.0014   1.0087
    Number of electrons: 18.000000
    Number of unpaired electrons: n_u =  2.38924, n_u,nl =  2.04640
    NO participation ratio (PR_NO):  2.865892
  
  
  Mulliken Population Analysis
  Atom      Charge (e)              h+              e-           Del q
  --------------------------------------------------------------------
   1 C       -1.232367        0.000002       -1.016535       -1.016533
   2 C       -1.232367        0.000002       -1.016535       -1.016533
   3 H        0.133567        0.000000        0.014761        0.014761
   4 H        0.133567        0.000000        0.014761        0.014761
   5 H        0.098802        0.000000        0.001776        0.001776
   6 H        0.098802        0.000000        0.001776        0.001776
   7 H        0.999998        1.999993       -0.000000        1.999993
  --------------------------------------------------------------------
  Sum:       -1.000000        1.999997       -1.999997       -0.000000
  
  Multipole moment analysis of the density matrix
    Molecular charge:                      -1.000000
    Number of electrons:                   18.000000
      Center of electronic charge [Ang]: [  0.000000,  -0.000000,  -0.545267]
    Total nuclear charge:                  17.000000
      Center of nuclear charge [Ang]:    [  0.000000,   0.000000,  -0.000000]
    Dipole moment [D]:                     47.142541
      Cartesian components [D]:          [ -0.000000,   0.000000,  47.142541]
    RMS size of the density [Ang]:         1.679540
      Cartesian components [Ang]:        [  1.227407,   0.786563,   0.834053]
  
  Exciton analysis of the difference density matrix
    <r_h> [Ang]:                  [  0.000000,   0.000000,   9.411924]
    <r_e> [Ang]:                  [  0.000000,  -0.000000,  -0.185685]
    |<r_e - r_h>| [Ang]:            9.597609
    Hole size [Ang]:                1.111300
      Cartesian components [Ang]: [  0.641566,   0.641562,   0.641702]
    Electron size [Ang]:            3.715243
      Cartesian components [Ang]: [  2.620606,   1.978372,   1.738245]

  Transition density matrix analysis:
  -----------------------------------
  
  CT numbers (Mulliken)
    omega =     0.0000
    <Phe> =     0.0000
  
  Exciton analysis of the transition density matrix
    Trans. dipole moment [D]:             0.000000
      Cartesian components [D]:         [ -0.000000,  -0.000000,  -0.000000]
    <r_h> [Ang]:                        [  0.000000,   0.000000,   9.412606]
    <r_e> [Ang]:                        [  0.000000,   0.000000,  -0.588436]
    |<r_e - r_h>| [Ang]:                 10.001042
    Hole size [Ang]:                      1.068361
      Cartesian components [Ang]:       [  0.616815,   0.616815,   0.616826]
    Electron size [Ang]:                  3.911012
      Cartesian components [Ang]:       [  2.583666,   2.542376,   1.468675]
    RMS electron-hole separation [Ang]:  10.791579
      Cartesian components [Ang]:       [  2.656267,   2.616125,  10.127108]
    Covariance(r_h, r_e) [Ang^2]:         0.000032
    Correlation coefficient:              0.000008
    Center-of-mass size [Ang]:            2.027158
      Cartesian components [Ang]:       [  1.328141,   1.308067,   0.796474]

  Decomposition into state-averaged NTOs
                   omega =   0.0%
  ----------------------------------------------------------------------------


  Excited state 6 (singlet, A2)                                    [converged]
  ----------------------------------------------------------------------------
  Term symbol:  6 (1) A2                                    R^2 =  1.05922e-12

  Total energy:                                            -78.5181930676 a.u.
  Excitation energy:                                               7.291633 eV

  Osc. strength:                                                      0.000000
  Trans. dip. moment [a.u.]:           [   0.000000,    0.000000,   -0.000000]
  <i|r^2|0> [a.u.]:                    [   0.000000,    0.000000,    0.000000]

  Dip. moment [a.u.]:                  [   0.000000,   -0.000000,   19.308883]
  Total dipole [Debye]:                                              49.078294
  <r^2> [a.u.]:                        [  86.401039,   50.404976,   79.206697]
  Total <r^2> [a.u.]:                                               216.012711

  V1^2 = 0.0000, V2^2 = 1.0000

  Important amplitudes:
      occ i      occ j       vir a       vir b          v   
    ---------------------------------------------------------
     5 (A1) A   5 (A1) B    5 (B1) A    2 (B2) B     -0.3536
     5 (A1) A               1 (A2) A                 -0.0001
    ---------------------------------------------------------

  Density matrix analysis:
  ------------------------
  NOs
    Occupation of frontier NOs:
       1.0010   1.0018
    Number of electrons: 18.000000
    Number of unpaired electrons: n_u =  2.40396, n_u,nl =  2.04900
    NO participation ratio (PR_NO):  2.879012
  
  
  Mulliken Population Analysis
  Atom      Charge (e)              h+              e-           Del q
  --------------------------------------------------------------------
   1 C       -1.096681        0.000002       -0.880848       -0.880846
   2 C       -1.096681        0.000002       -0.880848       -0.880846
   3 H        0.048204        0.000000       -0.070602       -0.070602
   4 H        0.048204        0.000000       -0.070602       -0.070602
   5 H        0.048476        0.000000       -0.048550       -0.048550
   6 H        0.048476        0.000000       -0.048550       -0.048550
   7 H        1.000000        1.999996       -0.000000        1.999996
  --------------------------------------------------------------------
  Sum:       -1.000000        2.000000       -2.000000        0.000000
  
  Multipole moment analysis of the density matrix
    Molecular charge:                      -1.000000
    Number of electrons:                   18.000000
      Center of electronic charge [Ang]: [ -0.000000,   0.000000,  -0.567657]
    Total nuclear charge:                  17.000000
      Center of nuclear charge [Ang]:    [  0.000000,   0.000000,  -0.000000]
    Dipole moment [D]:                     49.078280
      Cartesian components [D]:          [  0.000000,  -0.000000,  49.078280]
    RMS size of the density [Ang]:         1.743074
      Cartesian components [Ang]:        [  1.159376,   0.885527,   0.953937]
  
  Exciton analysis of the difference density matrix
    <r_h> [Ang]:                  [  0.000000,   0.000000,   9.411922]
    <r_e> [Ang]:                  [ -0.000000,   0.000000,  -0.387177]
    |<r_e - r_h>| [Ang]:            9.799099
    Hole size [Ang]:                1.111310
      Cartesian components [Ang]: [  0.641563,   0.641563,   0.641719]
    Electron size [Ang]:            3.983594
      Cartesian components [Ang]: [  2.325121,   2.324485,   2.249356]

  Transition density matrix analysis:
  -----------------------------------
  
  CT numbers (Mulliken)
    omega =     0.0000
    <Phe> =     0.0000
  
  Exciton analysis of the transition density matrix
    ... vanishing.

  Decomposition into state-averaged NTOs
                   omega =   0.0%
  ----------------------------------------------------------------------------


  Excited state 7 (singlet, A2)                                    [converged]
  ----------------------------------------------------------------------------
  Term symbol:  7 (1) A2                                    R^2 =  2.00101e-11

  Total energy:                                            -78.4925505962 a.u.
  Excitation energy:                                               7.989400 eV

  Osc. strength:                                                      0.000000
  Trans. dip. moment [a.u.]:           [  -0.000000,   -0.000000,   -0.000000]
  <i|r^2|0> [a.u.]:                    [  -0.000000,   -0.000000,    0.000000]

  Dip. moment [a.u.]:                  [  -0.000000,   -0.000000,   19.661122]
  Total dipole [Debye]:                                              49.973597
  <r^2> [a.u.]:                        [  80.505076,   44.066830,   60.598544]
  Total <r^2> [a.u.]:                                               185.170451

  V1^2 = 0.0000, V2^2 = 1.0000

  Important amplitudes:
      occ i      occ j       vir a       vir b          v   
    ---------------------------------------------------------
     5 (A1) A   5 (A1) B    8 (A1) A    1 (A2) B     -0.3536
     5 (A1) A               1 (A2) A                  0.0004
    ---------------------------------------------------------

  Density matrix analysis:
  ------------------------
  NOs
    Occupation of frontier NOs:
       1.0022   1.0087
    Number of electrons: 18.000000
    Number of unpaired electrons: n_u =  2.38765, n_u,nl =  2.04636
    NO participation ratio (PR_NO):  2.864408
  
  
  Mulliken Population Analysis
  Atom      Charge (e)              h+              e-           Del q
  --------------------------------------------------------------------
   1 C       -1.319416        0.000002       -1.103584       -1.103582
   2 C       -1.319416        0.000002       -1.103584       -1.103582
   3 H        0.166360        0.000000        0.047554        0.047554
   4 H        0.166360        0.000000        0.047554        0.047554
   5 H        0.153056        0.000000        0.056030        0.056030
   6 H        0.153056        0.000000        0.056030        0.056030
   7 H        1.000000        1.999996       -0.000000        1.999996
  --------------------------------------------------------------------
  Sum:       -1.000000        2.000000       -2.000000       -0.000000
  
  Multipole moment analysis of the density matrix
    Molecular charge:                      -1.000000
    Number of electrons:                   18.000000
      Center of electronic charge [Ang]: [  0.000000,   0.000000,  -0.578012]
    Total nuclear charge:                  17.000000
      Center of nuclear charge [Ang]:    [  0.000000,   0.000000,  -0.000000]
    Dipole moment [D]:                     49.973582
      Cartesian components [D]:          [ -0.000000,  -0.000000,  49.973582]
    RMS size of the density [Ang]:         1.595815
      Cartesian components [Ang]:        [  1.119120,   0.827982,   0.780155]
  
  Exciton analysis of the difference density matrix
    <r_h> [Ang]:                  [ -0.000000,   0.000000,   9.411921]
    <r_e> [Ang]:                  [  0.000000,   0.000000,  -0.480377]
    |<r_e - r_h>| [Ang]:            9.892298
    Hole size [Ang]:                1.111313
      Cartesian components [Ang]: [  0.641563,   0.641563,   0.641724]
    Electron size [Ang]:            3.386710
      Cartesian components [Ang]: [  2.140250,   2.125041,   1.540563]

  Transition density matrix analysis:
  -----------------------------------
  
  CT numbers (Mulliken)
    omega =     0.0000
    <Phe> =     0.0000
  
  Exciton analysis of the transition density matrix
    ... vanishing.

  Decomposition into state-averaged NTOs
                   omega =   0.0%
  ----------------------------------------------------------------------------


  Excited state 8 (singlet, A2)                                    [converged]
  ----------------------------------------------------------------------------
  Term symbol:  8 (1) A2                                    R^2 =  8.08374e-06

  Total energy:                                            -78.4920544859 a.u.
  Excitation energy:                                               8.002900 eV

  Osc. strength:                                                      0.000000
  Trans. dip. moment [a.u.]:           [   0.000000,    0.000000,   -0.000000]
  <i|r^2|0> [a.u.]:                    [   0.000000,    0.000000,   -0.000000]

  Dip. moment [a.u.]:                  [   0.000000,    0.000000,  -17.003258]
  Total dipole [Debye]:                                              43.217979
  <r^2> [a.u.]:                        [  79.900740,   19.521363,  686.061802]
  Total <r^2> [a.u.]:                                               785.483904

  V1^2 = 0.9486, V2^2 = 0.0514

  Important amplitudes:
      occ i      occ j       vir a       vir b          v   
    ---------------------------------------------------------
     1 (B2) A               4 (B1) A                  0.6651
     1 (B2) A               6 (B1) A                 -0.1417
    ---------------------------------------------------------

  Density matrix analysis:
  ------------------------
  NOs
    Occupation of frontier NOs:
       0.9835   0.9915
    Number of electrons: 18.000000
    Number of unpaired electrons: n_u =  2.31912, n_u,nl =  2.02602
    NO participation ratio (PR_NO):  2.747903
  
  
  Mulliken Population Analysis
  Atom      Charge (e)              h+              e-           Del q
  --------------------------------------------------------------------
   1 C       -0.328488        0.523625       -0.636279       -0.112654
   2 C       -0.328488        0.523625       -0.636279       -0.112654
   3 H        0.184653        0.088184       -0.022337        0.065847
   4 H        0.184653        0.088184       -0.022337        0.065847
   5 H        0.143832        0.099739       -0.052933        0.046806
   6 H        0.143832        0.099739       -0.052933        0.046806
   7 H       -0.999995        0.000249       -0.000248        0.000001
  --------------------------------------------------------------------
  Sum:       -1.000000        1.423346       -1.423346        0.000000
  
  Multipole moment analysis of the density matrix
    Molecular charge:                      -1.000000
    Number of electrons:                   18.000000
      Center of electronic charge [Ang]: [ -0.000000,  -0.000000,   0.499874]
    Total nuclear charge:                  17.000000
      Center of nuclear charge [Ang]:    [  0.000000,   0.000000,  -0.000000]
    Dipole moment [D]:                     43.217966
      Cartesian components [D]:          [  0.000000,   0.000000, -43.217966]
    RMS size of the density [Ang]:         3.459770
      Cartesian components [Ang]:        [  1.114911,   0.551087,   3.228511]
  
  Exciton analysis of the difference density matrix
    <r_h> [Ang]:                  [  0.000000,  -0.000000,  -0.602693]
    <r_e> [Ang]:                  [ -0.000000,  -0.000000,  -0.871525]
    |<r_e - r_h>| [Ang]:            0.268831
    Hole size [Ang]:                1.580400
      Cartesian components [Ang]: [  1.056648,   0.860192,   0.800769]
    Electron size [Ang]:            3.230957
      Cartesian components [Ang]: [  2.618345,   1.295313,   1.380405]

  Transition density matrix analysis:
  -----------------------------------
  
  CT numbers (Mulliken)
    omega =     0.9180
    <Phe> =    -0.0033
  
  Exciton analysis of the transition density matrix
    Trans. dipole moment [D]:             0.000000
      Cartesian components [D]:         [  0.000000,   0.000000,  -0.000000]
    <r_h> [Ang]:                        [  0.000000,  -0.000000,  -0.589286]
    <r_e> [Ang]:                        [ -0.000000,  -0.000000,  -0.992382]
    |<r_e - r_h>| [Ang]:                  0.403097
    Hole size [Ang]:                      1.255740
      Cartesian components [Ang]:       [  0.757275,   0.862324,   0.509718]
    Electron size [Ang]:                  3.744715
      Cartesian components [Ang]:       [  3.054142,   1.503663,   1.560162]
    RMS electron-hole separation [Ang]:   3.961163
      Cartesian components [Ang]:       [  3.139807,   1.725717,   1.689474]
    Covariance(r_h, r_e) [Ang^2]:         0.035725
    Correlation coefficient:              0.007597
    Center-of-mass size [Ang]:            1.979345
      Cartesian components [Ang]:       [  1.576714,   0.870504,   0.820975]

  Decomposition into state-averaged NTOs
    H- 1 -> L+ 1: -0.6769 ( 91.6%)
                   omega =  91.8%
  ----------------------------------------------------------------------------


  Excited state 9 (singlet, A2)                                    [converged]
  ----------------------------------------------------------------------------
  Term symbol:  9 (1) A2                                    R^2 =  4.19226e-10

  Total energy:                                            -78.4627465530 a.u.
  Excitation energy:                                               8.800409 eV

  Osc. strength:                                                      0.000000
  Trans. dip. moment [a.u.]:           [  -0.000000,   -0.000000,    0.000000]
  <i|r^2|0> [a.u.]:                    [  -0.000000,   -0.000000,   -0.000000]

  Dip. moment [a.u.]:                  [  -0.000000,    0.000000,   22.061907]
  Total dipole [Debye]:                                              56.075786
  <r^2> [a.u.]:                        [  82.006177,   33.659402,   73.227967]
  Total <r^2> [a.u.]:                                               188.893546

  V1^2 = 0.0000, V2^2 = 1.0000

  Important amplitudes:
      occ i      occ j       vir a       vir b          v   
    ---------------------------------------------------------
     5 (A1) A   5 (A1) B    6 (A1) A    2 (A2) B      0.3536
     5 (A1) A               2 (A2) A                 -0.0017
    ---------------------------------------------------------

  Density matrix analysis:
  ------------------------
  NOs
    Occupation of frontier NOs:
       1.0017   1.0249
    Number of electrons: 18.000000
    Number of unpaired electrons: n_u =  2.35630, n_u,nl =  2.04181
    NO participation ratio (PR_NO):  2.834821
  
  
  Mulliken Population Analysis
  Atom      Charge (e)              h+              e-           Del q
  --------------------------------------------------------------------
   1 C       -1.221755        0.000004       -1.005924       -1.005921
   2 C       -1.221755        0.000004       -1.005924       -1.005921
   3 H        0.115333        0.000000       -0.003473       -0.003473
   4 H        0.115333        0.000000       -0.003473       -0.003473
   5 H        0.106425       -0.000000        0.009399        0.009399
   6 H        0.106425       -0.000000        0.009399        0.009399
   7 H        0.999994        1.999990       -0.000000        1.999990
  --------------------------------------------------------------------
  Sum:       -1.000000        1.999997       -1.999997        0.000000
  
  Multipole moment analysis of the density matrix
    Molecular charge:                      -1.000000
    Number of electrons:                   18.000000
      Center of electronic charge [Ang]: [  0.000000,  -0.000000,  -0.648592]
    Total nuclear charge:                  17.000000
      Center of nuclear charge [Ang]:    [  0.000000,   0.000000,  -0.000000]
    Dipole moment [D]:                     56.075769
      Cartesian components [D]:          [ -0.000000,   0.000000,  56.075769]
    RMS size of the density [Ang]:         1.586812
      Cartesian components [Ang]:        [  1.129505,   0.723633,   0.847671]
  
  Exciton analysis of the difference density matrix
    <r_h> [Ang]:                  [ -0.000000,   0.000000,   9.411907]
    <r_e> [Ang]:                  [  0.000000,  -0.000000,  -1.115627]
    |<r_e - r_h>| [Ang]:           10.527533
    Hole size [Ang]:                1.111369
      Cartesian components [Ang]: [  0.641563,   0.641561,   0.641824]
    Electron size [Ang]:            3.313151
      Cartesian components [Ang]: [  2.188802,   1.748889,   1.768475]

  Transition density matrix analysis:
  -----------------------------------
  
  CT numbers (Mulliken)
    omega =     0.0000
    <Phe> =     0.0000
  
  Exciton analysis of the transition density matrix
    Trans. dipole moment [D]:             0.000000
      Cartesian components [D]:         [ -0.000000,  -0.000000,   0.000000]
    <r_h> [Ang]:                        [  0.000000,   0.000000,   9.412452]
    <r_e> [Ang]:                        [  0.000000,  -0.000000,  -0.586764]
    |<r_e - r_h>| [Ang]:                  9.999216
    Hole size [Ang]:                      1.075115
      Cartesian components [Ang]:       [  0.620695,   0.620695,   0.620763]
    Electron size [Ang]:                  2.084972
      Cartesian components [Ang]:       [  1.422880,   1.317495,   0.765983]
    RMS electron-hole separation [Ang]:  10.270699
      Cartesian components [Ang]:       [  1.552359,   1.456379,  10.047706]
    Covariance(r_h, r_e) [Ang^2]:         0.000022
    Correlation coefficient:              0.000010
    Center-of-mass size [Ang]:            1.172926
      Cartesian components [Ang]:       [  0.776190,   0.728195,   0.492969]

  Decomposition into state-averaged NTOs
                   omega =   0.0%
  ----------------------------------------------------------------------------


  Excited state 10 (singlet, A2)                                    [converged]
  ----------------------------------------------------------------------------
  Term symbol:  10 (1) A2                                   R^2 =  3.86476e-10

  Total energy:                                            -78.4543468726 a.u.
  Excitation energy:                                               9.028976 eV

  Osc. strength:                                                      0.000000
  Trans. dip. moment [a.u.]:           [  -0.000000,   -0.000000,    0.000000]
  <i|r^2|0> [a.u.]:                    [  -0.000000,   -0.000000,   -0.000000]

  Dip. moment [a.u.]:                  [  -0.000000,    0.000000,   18.548102]
  Total dipole [Debye]:                                              47.144582
  <r^2> [a.u.]:                        [  90.260106,   33.143033,   61.670359]
  Total <r^2> [a.u.]:                                               185.073498

  V1^2 = 0.0000, V2^2 = 1.0000

  Important amplitudes:
      occ i      occ j       vir a       vir b          v   
    ---------------------------------------------------------
     5 (A1) A   5 (A1) B    7 (A1) A    2 (A2) B      0.3536
     5 (A1) A               2 (A2) A                 -0.0012
    ---------------------------------------------------------

  Density matrix analysis:
  ------------------------
  NOs
    Occupation of frontier NOs:
       1.0014   1.0249
    Number of electrons: 18.000000
    Number of unpaired electrons: n_u =  2.35693, n_u,nl =  2.04184
    NO participation ratio (PR_NO):  2.835415
  
  
  Mulliken Population Analysis
  Atom      Charge (e)              h+              e-           Del q
  --------------------------------------------------------------------
   1 C       -1.225180        0.000003       -1.009349       -1.009346
   2 C       -1.225180        0.000003       -1.009349       -1.009346
   3 H        0.130025        0.000000        0.011219        0.011219
   4 H        0.130025        0.000000        0.011219        0.011219
   5 H        0.095156        0.000000       -0.001870       -0.001870
   6 H        0.095156        0.000000       -0.001870       -0.001870
   7 H        0.999996        1.999992       -0.000000        1.999992
  --------------------------------------------------------------------
  Sum:       -1.000000        1.999998       -1.999998        0.000000
  
  Multipole moment analysis of the density matrix
    Molecular charge:                      -1.000000
    Number of electrons:                   18.000000
      Center of electronic charge [Ang]: [  0.000000,  -0.000000,  -0.545291]
    Total nuclear charge:                  17.000000
      Center of nuclear charge [Ang]:    [  0.000000,   0.000000,  -0.000000]
    Dipole moment [D]:                     47.144568
      Cartesian components [D]:          [ -0.000000,   0.000000,  47.144568]
    RMS size of the density [Ang]:         1.606821
      Cartesian components [Ang]:        [  1.184985,   0.718060,   0.813678]
  
  Exciton analysis of the difference density matrix
    <r_h> [Ang]:                  [ -0.000000,   0.000000,   9.411911]
    <r_e> [Ang]:                  [  0.000000,  -0.000000,  -0.185903]
    |<r_e - r_h>| [Ang]:            9.597814
    Hole size [Ang]:                1.111360
      Cartesian components [Ang]: [  0.641565,   0.641562,   0.641805]
    Electron size [Ang]:            3.413542
      Cartesian components [Ang]: [  2.438549,   1.728095,   1.649071]

  Transition density matrix analysis:
  -----------------------------------
  
  CT numbers (Mulliken)
    omega =     0.0000
    <Phe> =     0.0000
  
  Exciton analysis of the transition density matrix
    Trans. dipole moment [D]:             0.000000
      Cartesian components [D]:         [ -0.000000,  -0.000000,   0.000000]
    <r_h> [Ang]:                        [  0.000000,   0.000000,   9.412428]
    <r_e> [Ang]:                        [  0.000000,  -0.000000,  -0.588812]
    |<r_e - r_h>| [Ang]:                 10.001240
    Hole size [Ang]:                      1.078567
      Cartesian components [Ang]:       [  0.622682,   0.622682,   0.622768]
    Electron size [Ang]:                  1.971871
      Cartesian components [Ang]:       [  1.350233,   1.242603,   0.721863]
    RMS electron-hole separation [Ang]:  10.250676
      Cartesian components [Ang]:       [  1.486887,   1.389885,  10.046578]
    Covariance(r_h, r_e) [Ang^2]:         0.000021
    Correlation coefficient:              0.000010
    Center-of-mass size [Ang]:            1.123791
      Cartesian components [Ang]:       [  0.743454,   0.694948,   0.476687]

  Decomposition into state-averaged NTOs
                   omega =   0.0%
  ----------------------------------------------------------------------------


--------------------------------------------------------------------------------
  Time of ADC calculation:  CPU 93.62 s  wall 27.47 s
================================================================================
 
 --------------------------------------------------------------
             Orbital Energies (a.u.) and Symmetries
 --------------------------------------------------------------
 
 Alpha MOs, Restricted
 -- Occupied --                  
-11.184 -11.182  -0.989  -0.729  -0.607  -0.514  -0.462  -0.324
  1 A1    1 B1    2 A1    2 B1    3 A1    4 A1    3 B1    1 B2                 
  0.022
  5 A1                                                                         
 -- Virtual --                   
  0.119   0.133   0.142   0.144   0.148   0.167   0.189   0.233
  4 B1    6 A1    7 A1    2 B2    1 A2    5 B1    8 A1    2 A2                 
  0.264   0.315   0.368   0.369   0.392   0.402   0.404   0.412
  6 B1    9 A1   10 A1    7 B1   11 A1   12 A1    3 B2    8 B1                 
  0.423   0.487   0.605   0.668   0.886   0.905   0.988   1.003
  9 B1    3 A2   10 B1   11 B1   13 A1   14 A1   12 B1   15 A1                 
  1.058   1.078   1.094   1.108   1.165   1.167   1.188   1.208
 16 A1   13 B1   17 A1   18 A1    4 B2    5 B2   14 B1    4 A2                 
  1.336   1.337   1.343   1.499   1.674   1.727   1.783   1.927
 15 B1    5 A2    6 B2   16 B1   19 A1   17 B1   20 A1    6 A2                 
  1.967   1.967   1.967   1.997   2.013   2.070   2.123   2.148
 21 A1   18 B1    7 B2    8 B2   19 B1    9 B2   22 A1   23 A1                 
  2.234   2.383   2.465   2.525   2.625   2.632   2.888   2.894
  7 A2   20 B1    8 A2   24 A1   21 B1   22 B1   25 A1   26 A1                 
  3.316   3.395
 23 B1   24 B1                                                                 
 
 Beta MOs, Restricted
 -- Occupied --                  
-11.184 -11.182  -0.989  -0.729  -0.607  -0.514  -0.462  -0.324
  1 A1    1 B1    2 A1    2 B1    3 A1    4 A1    3 B1    1 B2                 
  0.022
  5 A1                                                                         
 -- Virtual --                   
  0.119   0.133   0.142   0.144   0.148   0.167   0.189   0.233
  4 B1    6 A1    7 A1    2 B2    1 A2    5 B1    8 A1    2 A2                 
  0.264   0.315   0.368   0.369   0.392   0.402   0.404   0.412
  6 B1    9 A1   10 A1    7 B1   11 A1   12 A1    3 B2    8 B1                 
  0.423   0.487   0.605   0.668   0.886   0.905   0.988   1.003
  9 B1    3 A2   10 B1   11 B1   13 A1   14 A1   12 B1   15 A1                 
  1.058   1.078   1.094   1.108   1.165   1.167   1.188   1.208
 16 A1   13 B1   17 A1   18 A1    4 B2    5 B2   14 B1    4 A2                 
  1.336   1.337   1.343   1.499   1.674   1.727   1.783   1.927
 15 B1    5 A2    6 B2   16 B1   19 A1   17 B1   20 A1    6 A2                 
  1.967   1.967   1.967   1.997   2.013   2.070   2.123   2.148
 21 A1   18 B1    7 B2    8 B2   19 B1    9 B2   22 A1   23 A1                 
  2.234   2.383   2.465   2.525   2.625   2.632   2.888   2.894
  7 A2   20 B1    8 A2   24 A1   21 B1   22 B1   25 A1   26 A1                 
  3.316   3.395
 23 B1   24 B1                                                                 
 --------------------------------------------------------------
 
          Ground-State Mulliken Net Atomic Charges

     Atom                 Charge (a.u.)
  ----------------------------------------
      1 C                    -0.200741
      2 C                    -0.200741
      3 H                     0.111272
      4 H                     0.111272
      5 H                     0.089467
      6 H                     0.089467
      7 H                    -0.999996
  ----------------------------------------
  Sum of atomic charges =    -1.000000

 -----------------------------------------------------------------
                    Cartesian Multipole Moments
 -----------------------------------------------------------------
    Charge (ESU x 10^10)
                -4.8032
    Dipole Moment (Debye)
         X       0.0000      Y       0.0000      Z     -45.0576
       Tot      45.0576
    Quadrupole Moments (Debye-Ang)
        XX     -16.8819     XY       0.0000     YY     -20.1034
        XZ       0.0000     YZ      -0.0000     ZZ    -441.5605
    Octopole Moments (Debye-Ang^2)
       XXX       0.0000    XXY      -0.0000    XYY      -0.0000
       YYY       0.0000    XXZ     -29.3545    XYZ      -0.0000
       YYZ     -27.6577    XZZ      -0.0000    YZZ      -0.0000
       ZZZ   -4094.6869
    Hexadecapole Moments (Debye-Ang^3)
      XXXX     -74.0588   XXXY       0.0000   XXYY     -17.6103
      XYYY       0.0000   YYYY     -27.6814   XXXZ      -0.0000
      XXYZ      -0.0000   XYYZ       0.0000   YYYZ      -0.0000
      XXZZ    -370.1797   XYZZ       0.0000   YYZZ    -366.9036
      XZZZ       0.0000   YZZZ      -0.0000   ZZZZ  -39851.5766
 -----------------------------------------------------------------
 Total job time:  107.98s(wall), 137.14s(cpu) 
 Thu Feb 17 19:27:49 2022

        *************************************************************
        *                                                           *
        *  Thank you very much for using Q-Chem.  Have a nice day.  *
        *                                                           *
        *************************************************************


