/src/tsommerfeld/qchem/exe/qcprog.exe .input1.222222.20363.qcin.1 /src/jdavis/qchem.scratch/qchem20363/

                  Welcome to Q-Chem
     A Quantum Leap Into The Future Of Chemistry


 Q-Chem 5.4 (devel), Q-Chem, Inc., Pleasanton, CA (2021)

 E. Epifanovsky,  A. T. B. Gilbert,  Xintian Feng,  Joonho Lee,  Yuezhi Mao,  
 N. Mardirossian,  P. Pokhilko,  A. White,  M. Wormit,  M. P. Coons,  
 A. L. Dempwolff,  Zhengting Gan,  D. Hait,  P. R. Horn,  L. D. Jacobson,  
 I. Kaliman,  J. Kussmann,  A. W. Lange,  Ka Un Lao,  D. S. Levine,  Jie Liu,  
 S. C. McKenzie,  A. F. Morrison,  K. Nanda,  F. Plasser,  D. R. Rehn,  
 M. L. Vidal,  Zhi-Qiang You,  Ying Zhu,  B. Alam,  B. Albrecht,  
 A. Aldossary,  E. Alguire,  J. H. Andersen,  D. Barton,  K. Begam,  A. Behn,  
 Y. A. Bernard,  E. J. Berquist,  H. Burton,  A. Carreras,  K. Carter-Fenk,  
 R. Chakraborty,  A. D. Chien,  K. D. Closser,  V. Cofer-Shabica,  
 S. Dasgupta,  Jia Deng,  M. de Wergifosse,  M. Diedenhofen,  Hainam Do,  
 S. Ehlert,  Po-Tung Fang,  S. Fatehi,  Qingguo Feng,  T. Friedhoff,  
 J. Gayvert,  Qinghui Ge,  G. Gidofalvi,  M. Goldey,  J. Gomes,  
 C. Gonzalez-Espinoza,  S. Gulania,  A. Gunina,  M. W. D. Hanson-Heine,  
 P. H. P. Harbach,  A. W. Hauser,  M. F. Herbst,  M. Hernandez Vera,  
 M. Hodecker,  Z. C. Holden,  S. Houck,  Xunkun Huang,  Kerwin Hui,  
 B. C. Huynh,  M. Ivanov,  Hyunjun Ji,  Hanjie Jiang,  B. Kaduk,  S. Kaehler,  
 K. Khistyaev,  Jaehoon Kim,  P. Klunzinger,  Z. Koczor-Benda,  
 Joong Hoon Koh,  D. Kosenkov,  L. Koulias,  T. Kowalczyk,  C. M. Krauter,  
 K. Kue,  A. Kunitsa,  T. Kus,  A. Landau,  K. V. Lawler,  D. Lefrancois,  
 S. Lehtola,  Rain Li,  Yi-Pei Li,  Jiashu Liang,  M. Liebenthal,  
 Hung-Hsuan Lin,  You-Sheng Lin,  Fenglai Liu,  Kuan-Yu Liu,  
 M. Loipersberger,  A. Luenser,  A. Manjanath,  P. Manohar,  E. Mansoor,  
 S. F. Manzer,  Shan-Ping Mao,  A. V. Marenich,  T. Markovich,  S. Mason,  
 S. A. Maurer,  P. F. McLaughlin,  M. F. S. J. Menger,  J.-M. Mewes,  
 S. A. Mewes,  P. Morgante,  J. W. Mullinax,  K. J. Oosterbaan,  G. Paran,  
 Alexander C. Paul,  Suranjan K. Paul,  F. Pavosevic,  Zheng Pei,  S. Prager,  
 E. I. Proynov,  E. Ramos,  B. Rana,  A. E. Rask,  A. Rettig,  R. M. Richard,  
 F. Rob,  E. Rossomme,  T. Scheele,  M. Scheurer,  M. Schneider,  
 N. Sergueev,  S. M. Sharada,  W. Skomorowski,  D. W. Small,  C. J. Stein,  
 Yu-Chuan Su,  E. J. Sundstrom,  Zhen Tao,  J. Thirman,  T. Tsuchimochi,  
 N. M. Tubman,  S. P. Veccham,  O. Vydrov,  J. Wenzel,  J. Witte,  A. Yamada,  
 Kun Yao,  S. Yeganeh,  S. R. Yost,  A. Zech,  Igor Ying Zhang,  Xing Zhang,  
 Yu Zhang,  D. Zuev,  A. Aspuru-Guzik,  A. T. Bell,  N. A. Besley,  
 K. B. Bravaya,  B. R. Brooks,  D. Casanova,  Jeng-Da Chai,  S. Coriani,  
 C. J. Cramer,  A. E. DePrince, III,  R. A. DiStasio Jr.,  A. Dreuw,  
 B. D. Dunietz,  T. R. Furlani,  W. A. Goddard III,  S. Grimme,  
 S. Hammes-Schiffer,  T. Head-Gordon,  W. J. Hehre,  Chao-Ping Hsu,  
 T.-C. Jagau,  Yousung Jung,  A. Klamt,  Jing Kong,  D. S. Lambrecht,  
 WanZhen Liang,  N. J. Mayhall,  C. W. McCurdy,  J. B. Neaton,  
 C. Ochsenfeld,  J. A. Parkhill,  R. Peverati,  V. A. Rassolov,  Yihan Shao,  
 L. V. Slipchenko,  T. Stauch,  R. P. Steele,  J. E. Subotnik,  
 A. J. W. Thom,  A. Tkatchenko,  D. G. Truhlar,  T. Van Voorhis,  
 T. A. Wesolowski,  K. B. Whaley,  H. L. Woodcock III,  P. M. Zimmerman,  
 S. Faraji,  P. M. W. Gill,  M. Head-Gordon,  J. M. Herbert,  A. I. Krylov

 Additional authors for Version 5.4.1: 
 S. Kotaru,  Shaozhi Li,  Xiangyuan Li,  F. Matz,  A. Molle,  Haisheng Ren,  
 Yingli Su,  Hung-Yi Tsai,  C. Utku,  Fang Wang

 Contributors to earlier versions of Q-Chem not listed above: 
 R. D. Adamson,  B. Austin,  R. Baer,  J. Baker,  G. J. O. Beran,  
 K. Brandhorst,  S. T. Brown,  E. F. C. Byrd,  A. K. Chakraborty,  
 G. K. L. Chan,  Chun-Min Chang,  Yunqing Chen,  C.-L. Cheng,  
 Siu Hung Chien,  D. M. Chipman,  D. L. Crittenden,  H. Dachsel,  
 R. J. Doerksen,  A. D. Dutoi,  R. G. Edgar,  J. Fosso-Tande,  
 L. Fusti-Molnar,  D. Ghosh,  A. Ghysels,  A. Golubeva-Zadorozhnaya,  
 J. Gonthier,  M. S. Gordon,  S. R. Gwaltney,  G. Hawkins,  J. E. Herr,  
 A. Heyden,  S. Hirata,  E. G. Hohenstein,  G. Kedziora,  F. J. Keil,  
 C. Kelley,  Jihan Kim,  R. A. King,  R. Z. Khaliullin,  P. P. Korambath,  
 W. Kurlancheek,  A. Laurent,  A. M. Lee,  M. S. Lee,  S. V. Levchenko,  
 Ching Yeh Lin,  D. Liotard,  E. Livshits,  R. C. Lochan,  I. Lotan,  
 L. A. Martinez-Martinez,  P. E. Maslen,  N. Nair,  D. P. O'Neill,  
 D. Neuhauser,  E. Neuscamman,  C. M. Oana,  R. Olivares-Amaya,  R. Olson,  
 T. M. Perrine,  B. Peters,  P. A. Pieniazek,  A. Prociuk,  Y. M. Rhee,  
 J. Ritchie,  M. A. Rohrdanz,  E. Rosta,  N. J. Russ,  H. F. Schaefer III,  
 M. W. Schmidt,  N. E. Schultz,  S. Sharma,  N. Shenvi,  C. D. Sherrill,  
 A. C. Simmonett,  A. Sodt,  T. Stein,  D. Stuck,  K. S. Thanthiriwatte,  
 V. Vanovschi,  L. Vogt,  Tao Wang,  A. Warshel,  M. A. Watson,  
 C. F. Williams,  Q. Wu,  X. Xu,  Jun Yang,  W. Zhang,  Yan Zhao

 Please cite Q-Chem as follows:
 Y. Shao et al., Mol. Phys. 113, 184-215 (2015)
 DOI: 10.1080/00268976.2014.952696

 Q-Chem 5.4.1 for Intel X86 EM64T Linux

 Parts of Q-Chem use Armadillo 9.900.5 (Nocturnal Misbehaviour).
 http://arma.sourceforge.net/

 Q-Chem begins on Thu Feb 17 19:20:19 2022  

 Host: node01
0

     Scratch files written to /src/jdavis/qchem.scratch/qchem20363//
 Processing $rem in /src/tsommerfeld/qchem/config/preferences:
 Processing $rem in /home/jdavis/.qchemrc:

 Checking the input file for inconsistencies... 	...done.

--------------------------------------------------------------
User input:
--------------------------------------------------------------
$molecule
-1 1
C        -0.6645000000    0.0000000000   -0.2082049804
C         0.6645000000    0.0000000000   -0.2082049804
H        -1.1590800000    0.0000000000    0.7541440196
H         1.1590800000    0.0000000000    0.7541440196
H        -1.1590800000    0.0000000000   -1.1705529804
H         1.1590800000    0.0000000000   -1.1705529804
H         0.0000000000    0.0000000000    9.792
$end

$rem
   METHOD adc(2)
   BASIS gen
   PURECART 11
   EE_STATES [0,10,0,0]
   scf_convergence 8
   ADC_DAVIDSON_MAXITER 120
   ADC_DAVIDSON_MAXSUBSPACE 200
   adc_nguess_singles 100
   THRESH 14
   S2THRESH 14
   adc_davidson_conv 5
   adc_davidson_thresh 14
   THREADS 10
   MEM_TOTAL 95000
   STATE_ANALYSIS TRUE
$end
$basis
C 1
S   9   1.00
      6.665000D+03           6.920000D-04
      1.000000D+03           5.329000D-03
      2.280000D+02           2.707700D-02
      6.471000D+01           1.017180D-01
      2.106000D+01           2.747400D-01
      7.495000D+00           4.485640D-01
      2.797000D+00           2.850740D-01
      5.215000D-01           1.520400D-02
      1.596000D-01          -3.191000D-03
S   9   1.00
      6.665000D+03          -1.460000D-04
      1.000000D+03          -1.154000D-03
      2.280000D+02          -5.725000D-03
      6.471000D+01          -2.331200D-02
      2.106000D+01          -6.395500D-02
      7.495000D+00          -1.499810D-01
      2.797000D+00          -1.272620D-01
      5.215000D-01           5.445290D-01
      1.596000D-01           5.804960D-01
S   1   1.00
      1.596000D-01           1.000000D+00
S   1   1.00
      0.0469000              1.0000000
P   4   1.00
      9.439000D+00           3.810900D-02
      2.002000D+00           2.094800D-01
      5.456000D-01           5.085570D-01
      1.517000D-01           4.688420D-01
P   1   1.00
      1.517000D-01           1.000000D+00
P   1   1.00
      0.0741644      1.0000000
P   1   1.00
      0.0370822      1.0000000
D   1   1.00
      5.500000D-01           1.0000000
****
C 2
S   9   1.00
      6.665000D+03           6.920000D-04
      1.000000D+03           5.329000D-03
      2.280000D+02           2.707700D-02
      6.471000D+01           1.017180D-01
      2.106000D+01           2.747400D-01
      7.495000D+00           4.485640D-01
      2.797000D+00           2.850740D-01
      5.215000D-01           1.520400D-02
      1.596000D-01          -3.191000D-03
S   9   1.00
      6.665000D+03          -1.460000D-04
      1.000000D+03          -1.154000D-03
      2.280000D+02          -5.725000D-03
      6.471000D+01          -2.331200D-02
      2.106000D+01          -6.395500D-02
      7.495000D+00          -1.499810D-01
      2.797000D+00          -1.272620D-01
      5.215000D-01           5.445290D-01
      1.596000D-01           5.804960D-01
S   1   1.00
      1.596000D-01           1.000000D+00
S   1   1.00
      0.0469000              1.0000000
P   4   1.00
      9.439000D+00           3.810900D-02
      2.002000D+00           2.094800D-01
      5.456000D-01           5.085570D-01
      1.517000D-01           4.688420D-01
P   1   1.00
      1.517000D-01           1.000000D+00
P   1   1.00
      0.0741644      1.0000000
P   1   1.00
      0.0370822      1.0000000
D   1   1.00
      5.500000D-01           1.0000000
****
H 3
cc-pVDZ
****
H 4
cc-pVDZ
****
H 5
cc-pVDZ
****
H 6
cc-pVDZ
****
H 7
aug-cc-pVDZ
****
$end
--------------------------------------------------------------
 ----------------------------------------------------------------
             Standard Nuclear Orientation (Angstroms)
    I     Atom           X                Y                Z
 ----------------------------------------------------------------
    1      C      -0.6645000000    -0.0000000000    -0.5882474694
    2      C       0.6645000000     0.0000000000    -0.5882474694
    3      H      -1.1590800000    -0.0000000000     0.3741015306
    4      H       1.1590800000     0.0000000000     0.3741015306
    5      H      -1.1590800000    -0.0000000000    -1.5505954694
    6      H       1.1590800000     0.0000000000    -1.5505954694
    7      H       0.0000000000     0.0000000000     9.4119575110
 ----------------------------------------------------------------
 Molecular Point Group                 C2v   NOp =  4
 Largest Abelian Subgroup              C2v   NOp =  4
 Nuclear Repulsion Energy =          34.43497767 hartrees
 There are        9 alpha and        9 beta electrons
 Requested basis set is non-standard
 There are 33 shells and 67 basis functions
 Total memory of 95000 MB is distributed as follows: 
   MEM_STATIC is set to 192 MB
   QALLOC/CCMAN JOB total memory use is  94808 MB
 Warning: actual memory use might exceed 95000 MB

 Total QAlloc Memory Limit  95000 MB
 Mega-Array Size       188 MB
 MEM_STATIC part       192 MB

                       Distance Matrix (Angstroms)
             C (  1)   C (  2)   H (  3)   H (  4)   H (  5)   H (  6)
   C (  2)  1.329000
   H (  3)  1.082000  2.061931
   H (  4)  2.061931  1.082000  2.318160
   H (  5)  1.082000  2.061931  1.924697  3.013026
   H (  6)  2.061931  1.082000  3.013026  1.924697  2.318160
   H (  7) 10.022258 10.022258  9.111877  9.111877 11.023658 11.023658

 
 A cutoff of  1.0D-14 yielded    505 shell pairs
 There are      2121 function pairs (      2258 Cartesian)
 Smallest overlap matrix eigenvalue = 2.54E-04

 Scale SEOQF with 1.000000e-01/1.000000e-01/1.000000e-02

 Standard Electronic Orientation quadrupole field applied
 Nucleus-field energy     =    -0.0000000007 hartrees
 ================ Generating on-the-fly SAD Guess ================
Attempting to make child job directory: /src/jdavis/qchem.scratch/qchem20363//Frg1/
Attempting to make child job directory: /src/jdavis/qchem.scratch/qchem20363//Frg2/
Creating input file /src/jdavis/qchem.scratch/qchem20363/Frg1.input
using default PutDataFrgm: nothing
calling putenv with: QCSCRATCH=/src/jdavis/qchem.scratch/qchem20363/ 
Spawning Job For Fragment 0
Done Job For Fragment 0
calling putenv with: QCSCRATCH=/src/jdavis/qchem.scratch 
calling putenv with: QCTHREADS=1 
Creating input file /src/jdavis/qchem.scratch/qchem20363/Frg2.input
using default PutDataFrgm: nothing
calling putenv with: QCSCRATCH=/src/jdavis/qchem.scratch/qchem20363/ 
Spawning Job For Fragment 1
Done Job For Fragment 1
calling putenv with: QCSCRATCH=/src/jdavis/qchem.scratch 
calling putenv with: QCTHREADS=1 
 Time for running child jobs:  CPU 1.77 s  wall 53.47 s
 ============= Method Specific SAD Guess Constructed =============
 Guess from on-the-fly superposition of atomic densities
 Warning: Energy on first SCF cycle will be non-variational
 A restricted Hartree-Fock SCF calculation will be
 performed using Pulay DIIS extrapolation
 SCF converges when DIIS error is below 1.0E-08
 using 10 threads for integral computing
 -------------------------------------------------------
 OpenMP Integral computing Module                
 Release: version 1.0, May 2013, Q-Chem Inc. Pittsburgh 
 -------------------------------------------------------
 ---------------------------------------
  Cycle       Energy         DIIS Error
 ---------------------------------------
    1     -78.8009395655      7.36E-02
    2     -78.4468192422      6.48E-03
    3     -78.4847871117      1.48E-03
    4     -78.4867187598      4.76E-04
    5     -78.4868915690      7.28E-05
    6     -78.4868993593      1.23E-05
    7     -78.4868996772      3.40E-06
    8     -78.4868997015      3.02E-07
    9     -78.4868997016      6.46E-08
   10     -78.4868997016      1.01E-08
   11     -78.4868997016      1.17E-09 Convergence criterion met
 ---------------------------------------
 SCF time:  CPU 9.63 s  wall 0.97 s
 SCF   energy in the final basis set = -78.48689970
 Total energy in the final basis set = -78.48689970
================================================================================
|                                                                              |
|                                 A D C  M A N                                 |
|                                                                              |
 ------------------------------------------------------------------------------ 
|                                                                              |
| Components:                                                                  |
|                                                                              |
| - libvmm - 1.3-trunk                                                         |
|   Authors:                                                                   |
|   Evgeny Epifanovsky, Ilya Kaliman                                           |
|                                                                              |
| - libtensor - 2.5-trunk                                                      |
|   Authors:                                                                   |
|   Evgeny Epifanovsky, Michael Wormit, Dmitry Zuev, Sam Manzer,               |
|   Ilya Kaliman                                                               |
|                                                                              |
| - libwfa - 1.1-trunk                                                         |
|   Authors:                                                                   |
|   Felix Plasser, Stefanie Mewes (Baeppler), Benjamin Thomitzni,              |
|   Michael Wormit, Feng Chen, Anna I. Krylov, Pavel Pokhilko                  |
|                                                                              |
| - libadc - 1.1-trunk                                                         |
|   Authors:                                                                   |
|   Michael Wormit, Adrian L. Dempwolff, Philipp H. P. Harbach,                |
|   Caroline Krauter, Dirk Rehn, Matthias Schneider, Jan Wenzel                |
|                                                                              |
| - adcman - 2.6-trunk                                                         |
|   Authors:                                                                   |
|   Michael Wormit, Adrian L. Dempwolff, Philipp H. P. Harbach,                |
|   Caroline Krauter, Daniel Lefrancois, Jan-Michael Mewes, Dirk Rehn,         |
|   Matthias Schneider, Jan Wenzel, Andreas Dreuw                              |
|                                                                              |
| Authors of earlier versions of ADCMAN:                                       |
| Andreas Dreuw, Jan Hendrik Starcke, Dirk Rehn, Michael Wormit                |
|                                                                              |
================================================================================

 
 Alpha MOs, Restricted
 -- Occupied --                  
-11.184 -11.182  -0.989  -0.729  -0.607  -0.514  -0.462  -0.324
  1 A1    1 B1    2 A1    2 B1    3 A1    4 A1    3 B1    1 B2                 
  0.022
  5 A1                                                                         
 -- Virtual --                   
  0.115   0.130   0.138   0.138   0.144   0.160   0.185   0.227
  4 B1    6 A1    7 A1    2 B2    1 A2    5 B1    8 A1    2 A2                 
  0.258   0.315   0.355   0.361   0.375   0.385   0.387   0.396
  6 B1    9 A1   10 A1    7 B1   11 A1    3 B2    8 B1   12 A1                 
  0.423   0.466   0.607   0.664   0.882   0.907   0.981   0.987
  9 B1    3 A2   10 B1   11 B1   13 A1   14 A1   15 A1   12 B1                 
  1.058   1.062   1.084   1.100   1.135   1.167   1.177   1.178
 16 A1   17 A1   13 B1   18 A1    4 B2    5 B2   14 B1    4 A2                 
  1.326   1.337   1.341   1.478   1.672   1.706   1.779   1.925
 15 B1    5 A2    6 B2   16 B1   19 A1   17 B1   20 A1    6 A2                 
  1.967   1.967   1.967   1.996   2.009   2.070   2.114   2.144
 21 A1   18 B1    7 B2    8 B2   19 B1    9 B2   22 A1   23 A1                 
  2.233   2.380   2.465   2.521   2.630   2.632   2.878   2.885
  7 A2   20 B1    8 A2   24 A1   21 B1   22 B1   25 A1   26 A1                 
  3.310   3.393
 23 B1   24 B1                                                                 
 
 Beta MOs, Restricted
 -- Occupied --                  
-11.184 -11.182  -0.989  -0.729  -0.607  -0.514  -0.462  -0.324
  1 A1    1 B1    2 A1    2 B1    3 A1    4 A1    3 B1    1 B2                 
  0.022
  5 A1                                                                         
 -- Virtual --                   
  0.115   0.130   0.138   0.138   0.144   0.160   0.185   0.227
  4 B1    6 A1    7 A1    2 B2    1 A2    5 B1    8 A1    2 A2                 
  0.258   0.315   0.355   0.361   0.375   0.385   0.387   0.396
  6 B1    9 A1   10 A1    7 B1   11 A1    3 B2    8 B1   12 A1                 
  0.423   0.466   0.607   0.664   0.882   0.907   0.981   0.987
  9 B1    3 A2   10 B1   11 B1   13 A1   14 A1   15 A1   12 B1                 
  1.058   1.062   1.084   1.100   1.135   1.167   1.177   1.178
 16 A1   17 A1   13 B1   18 A1    4 B2    5 B2   14 B1    4 A2                 
  1.326   1.337   1.341   1.478   1.672   1.706   1.779   1.925
 15 B1    5 A2    6 B2   16 B1   19 A1   17 B1   20 A1    6 A2                 
  1.967   1.967   1.967   1.996   2.009   2.070   2.114   2.144
 21 A1   18 B1    7 B2    8 B2   19 B1    9 B2   22 A1   23 A1                 
  2.233   2.380   2.465   2.521   2.630   2.632   2.878   2.885
  7 A2   20 B1    8 A2   24 A1   21 B1   22 B1   25 A1   26 A1                 
  3.310   3.393
 23 B1   24 B1                                                                 

--------------------------------------------------------------------------------
                                   HF Summary                                   
--------------------------------------------------------------------------------
  Energy:                                                  -78.4868997016 a.u.
  Dip. moment [a.u.]:                  [  -0.000000,   -0.000000,  -17.726927]
  Total dipole [Debye]:                                              45.057363
  <r^2> [a.u.]:                        [  50.666896,   14.941824,  677.631982]
  Total <r^2> [a.u.]:                                               743.240702
--------------------------------------------------------------------------------

--------------------------------------------------------------------------------
                                 MP(2) Summary                                  
--------------------------------------------------------------------------------
  MP energy contribution:                                   -0.2989705354 a.u.
  Total energy:                                            -78.7858702371 a.u.
  Dip. moment [a.u.]:                  [  -0.000000,    0.000000,  -17.726231]
  Total dipole [Debye]:                                              45.055594
  <r^2> [a.u.]:                        [  50.732620,   14.749851,  677.621259]
  Total <r^2> [a.u.]:                                               743.103729

  Density matrix analysis:
  ------------------------
  NOs
    Occupation of frontier NOs:
       0.0447   1.9370
    Number of electrons: 18.000000
    Number of unpaired electrons: n_u =  0.43227, n_u,nl =  0.04679
    NO participation ratio (PR_NO): 15.328421
  
  
  Mulliken Population Analysis
  Atom      Charge (e)              h+              e-           Del q
  --------------------------------------------------------------------
   1 C       -0.204816        0.087618       -0.102552       -0.014934
   2 C       -0.204816        0.087618       -0.102552       -0.014934
   3 H        0.113275        0.017789       -0.010335        0.007454
   4 H        0.113275        0.017789       -0.010335        0.007454
   5 H        0.091535        0.018108       -0.010628        0.007480
   6 H        0.091535        0.018108       -0.010628        0.007480
   7 H       -0.999989        0.021954       -0.021953        0.000001
  --------------------------------------------------------------------
  Sum:       -1.000000        0.268984       -0.268984       -0.000000
  
  Multipole moment analysis of the density matrix
    Molecular charge:                      -1.000000
    Number of electrons:                   18.000000
      Center of electronic charge [Ang]: [  0.000000,  -0.000000,   0.521129]
    Total nuclear charge:                  17.000000
      Center of nuclear charge [Ang]:    [  0.000000,   0.000000,  -0.000000]
    Dipole moment [D]:                     45.055581
      Cartesian components [D]:          [ -0.000000,   0.000000, -45.055581]
    RMS size of the density [Ang]:         3.359910
      Cartesian components [Ang]:        [  0.888400,   0.479026,   3.204727]
  
  Exciton analysis of the difference density matrix
    <r_h> [Ang]:                  [  0.000000,  -0.000000,   0.225416]
    <r_e> [Ang]:                  [  0.000000,  -0.000000,   0.224047]
    |<r_e - r_h>| [Ang]:            0.001369
    Hole size [Ang]:                3.084877
      Cartesian components [Ang]: [  0.953742,   0.754202,   2.835140]
    Electron size [Ang]:            3.061778
      Cartesian components [Ang]: [  0.988963,   0.607425,   2.833280]
--------------------------------------------------------------------------------
Less singles guess vectors found than requested: 85 (found), 100 (requested).
Adjusting number of doubles guess vectors to 15.
  Starting Davidson for singlet states of irrep A2 ... 
--------------------------------------------------------------------------------
   It NVec Conv  Avg. Norm  Max. Norm  Conv. states           Remark
--------------------------------------------------------------------------------
       100    1  4.047e-02  3.570e-01  0.0917 n n n n n n n n Guess.
    1  110    3  2.103e-03  1.803e-02  0.0550 n n y n n y y n 
    2  120    7  1.117e-03  1.117e-02  0.0550 n n y y y y y n 
    3  130    9  1.236e-04  1.236e-03  0.0550 y y y y y y y n 
    4  140    9  3.443e-06  3.443e-05  0.0550 y y y y y y y n 
    5  150   10  1.372e-07  1.372e-06  0.0550 y y y y y y y y Converged.
--------------------------------------------------------------------------------
  Davidson Summary: 
 ------------------------------------------------------------
  State  0: excitation energy =   0.0550 a.u.   (converged)
  State  1: excitation energy =   0.1178 a.u.   (converged)
  State  2: excitation energy =   0.2094 a.u.   (converged)
  State  3: excitation energy =   0.2300 a.u.   (converged)
  State  4: excitation energy =   0.2382 a.u.   (converged)
  State  5: excitation energy =   0.2545 a.u.   (converged)
  State  6: excitation energy =   0.2853 a.u.   (converged)
  State  7: excitation energy =   0.2925 a.u.   (converged)
  State  8: excitation energy =   0.3129 a.u.   (converged)
  State  9: excitation energy =   0.3212 a.u.   (converged)
 ------------------------------------------------------------


--------------------------------------------------------------------------------
                   State-averaged natural transition orbitals
--------------------------------------------------------------------------------
--------------------------------------------------------------------------------

--------------------------------------------------------------------------------
                             Excited State Summary
--------------------------------------------------------------------------------
--------------------------------------------------------------------------------

  Excited state 1 (singlet, A2)                                    [converged]
  ----------------------------------------------------------------------------
  Term symbol:  1 (1) A2                                    R^2 =  3.42192e-10

  Total energy:                                            -78.7308839187 a.u.
  Excitation energy:                                               1.496254 eV

  Osc. strength:                                                      0.000000
  Trans. dip. moment [a.u.]:           [  -0.000000,    0.000000,   -0.000000]
  <i|r^2|0> [a.u.]:                    [  -0.000000,   -0.000000,    0.000000]

  Dip. moment [a.u.]:                  [   0.000000,    0.000000,    1.132699]
  Total dipole [Debye]:                                               2.879034
  <r^2> [a.u.]:                        [  64.833399,   27.580704,  366.283012]
  Total <r^2> [a.u.]:                                               458.697116

  V1^2 = 0.9616, V2^2 = 0.0384

  Important amplitudes:
      occ i      occ j       vir a       vir b          v   
    ---------------------------------------------------------
     5 (A1) A               1 (A2) A                 -0.6633
     5 (A1) A               2 (A2) A                  0.1973
    ---------------------------------------------------------

  Density matrix analysis:
  ------------------------
  NOs
    Occupation of frontier NOs:
       0.9914   1.0014
    Number of electrons: 18.000000
    Number of unpaired electrons: n_u =  2.41274, n_u,nl =  2.04460
    NO participation ratio (PR_NO):  2.922956
  
  
  Mulliken Population Analysis
  Atom      Charge (e)              h+              e-           Del q
  --------------------------------------------------------------------
   1 C       -0.635567        0.103568       -0.534319       -0.430751
   2 C       -0.635567        0.103568       -0.534319       -0.430751
   3 H        0.072330        0.003509       -0.044455       -0.040945
   4 H        0.072330        0.003509       -0.044455       -0.040945
   5 H        0.063228        0.004200       -0.032507       -0.028307
   6 H        0.063228        0.004200       -0.032507       -0.028307
   7 H        0.000017        1.019316       -0.019310        1.000006
  --------------------------------------------------------------------
  Sum:       -1.000000        1.241871       -1.241871       -0.000000
  
  Multipole moment analysis of the density matrix
    Molecular charge:                      -1.000000
    Number of electrons:                   18.000000
      Center of electronic charge [Ang]: [ -0.000000,  -0.000000,  -0.033300]
    Total nuclear charge:                  17.000000
      Center of nuclear charge [Ang]:    [  0.000000,   0.000000,  -0.000000]
    Dipole moment [D]:                     2.879033
      Cartesian components [D]:          [  0.000000,   0.000000,   2.879033]
    RMS size of the density [Ang]:         2.671125
      Cartesian components [Ang]:        [  1.004302,   0.655040,   2.386882]
  
  Exciton analysis of the difference density matrix
    <r_h> [Ang]:                  [  0.000000,   0.000000,   7.622653]
    <r_e> [Ang]:                  [ -0.000000,  -0.000000,  -0.413378]
    |<r_e - r_h>| [Ang]:            8.036031
    Hole size [Ang]:                4.033149
      Cartesian components [Ang]: [  0.773067,   0.711922,   3.893819]
    Electron size [Ang]:            3.173270
      Cartesian components [Ang]: [  1.943504,   1.843923,   1.700702]

  Transition density matrix analysis:
  -----------------------------------
  
  CT numbers (Mulliken)
    omega =     0.9476
    <Phe> =     0.0000
  
  Exciton analysis of the transition density matrix
    Trans. dipole moment [D]:             0.000000
      Cartesian components [D]:         [ -0.000000,   0.000000,  -0.000000]
    <r_h> [Ang]:                        [ -0.000000,   0.000000,   9.411873]
    <r_e> [Ang]:                        [ -0.000000,  -0.000000,  -0.588158]
    |<r_e - r_h>| [Ang]:                 10.000031
    Hole size [Ang]:                      1.110182
      Cartesian components [Ang]:       [  0.640822,   0.640820,   0.641249]
    Electron size [Ang]:                  3.109189
      Cartesian components [Ang]:       [  2.074167,   2.003787,   1.161778]
    RMS electron-hole separation [Ang]:  10.530912
      Cartesian components [Ang]:       [  2.170891,   2.103756,  10.087693]
    Covariance(r_h, r_e) [Ang^2]:         0.000037
    Correlation coefficient:              0.000011
    Center-of-mass size [Ang]:            1.650730
      Cartesian components [Ang]:       [  1.085458,   1.051884,   0.663500]

  Decomposition into state-averaged NTOs
    H- 0 -> L+ 0:  0.5206 ( 54.2%)
    H- 0 -> L+ 2:  0.4504 ( 40.6%)
                   omega =  94.8%
  ----------------------------------------------------------------------------


  Excited state 2 (singlet, A2)                                    [converged]
  ----------------------------------------------------------------------------
  Term symbol:  2 (1) A2                                    R^2 =  8.10925e-10

  Total energy:                                            -78.6680761663 a.u.
  Excitation energy:                                               3.205340 eV

  Osc. strength:                                                      0.000000
  Trans. dip. moment [a.u.]:           [   0.000000,    0.000000,    0.000000]
  <i|r^2|0> [a.u.]:                    [  -0.000000,   -0.000000,   -0.000000]

  Dip. moment [a.u.]:                  [   0.000000,   -0.000000,    1.133554]
  Total dipole [Debye]:                                               2.881208
  <r^2> [a.u.]:                        [  68.583336,   31.373131,  367.651546]
  Total <r^2> [a.u.]:                                               467.608013

  V1^2 = 0.9557, V2^2 = 0.0443

  Important amplitudes:
      occ i      occ j       vir a       vir b          v   
    ---------------------------------------------------------
     5 (A1) A               2 (A2) A                 -0.6519
     5 (A1) A               1 (A2) A                 -0.2165
    ---------------------------------------------------------

  Density matrix analysis:
  ------------------------
  NOs
    Occupation of frontier NOs:
       0.9876   1.0012
    Number of electrons: 18.000000
    Number of unpaired electrons: n_u =  2.42368, n_u,nl =  2.04760
    NO participation ratio (PR_NO):  2.958727
  
  
  Mulliken Population Analysis
  Atom      Charge (e)              h+              e-           Del q
  --------------------------------------------------------------------
   1 C       -0.611955        0.113853       -0.520992       -0.407139
   2 C       -0.611955        0.113853       -0.520992       -0.407139
   3 H        0.060739        0.002248       -0.054785       -0.052536
   4 H        0.060739        0.002248       -0.054785       -0.052536
   5 H        0.051208        0.003028       -0.043356       -0.040327
   6 H        0.051208        0.003028       -0.043356       -0.040327
   7 H        0.000017        1.018817       -0.018812        1.000005
  --------------------------------------------------------------------
  Sum:       -1.000000        1.257077       -1.257077       -0.000000
  
  Multipole moment analysis of the density matrix
    Molecular charge:                      -1.000000
    Number of electrons:                   18.000000
      Center of electronic charge [Ang]: [ -0.000000,   0.000000,  -0.033325]
    Total nuclear charge:                  17.000000
      Center of nuclear charge [Ang]:    [  0.000000,   0.000000,  -0.000000]
    Dipole moment [D]:                     2.881207
      Cartesian components [D]:          [  0.000000,  -0.000000,   2.881207]
    RMS size of the density [Ang]:         2.696949
      Cartesian components [Ang]:        [  1.032938,   0.698624,   2.391338]
  
  Exciton analysis of the difference density matrix
    <r_h> [Ang]:                  [  0.000000,  -0.000000,   7.519356]
    <r_e> [Ang]:                  [ -0.000000,   0.000000,  -0.419832]
    |<r_e - r_h>| [Ang]:            7.939189
    Hole size [Ang]:                4.100585
      Cartesian components [Ang]: [  0.755527,   0.673681,   3.973679]
    Electron size [Ang]:            3.436475
      Cartesian components [Ang]: [  2.132435,   2.038842,   1.762160]

  Transition density matrix analysis:
  -----------------------------------
  
  CT numbers (Mulliken)
    omega =     0.9416
    <Phe> =     0.0000
  
  Exciton analysis of the transition density matrix
    Trans. dipole moment [D]:             0.000000
      Cartesian components [D]:         [  0.000000,   0.000000,   0.000000]
    <r_h> [Ang]:                        [ -0.000000,   0.000000,   9.411874]
    <r_e> [Ang]:                        [ -0.000000,   0.000000,  -0.588155]
    |<r_e - r_h>| [Ang]:                 10.000029
    Hole size [Ang]:                      1.110140
      Cartesian components [Ang]:       [  0.640798,   0.640796,   0.641225]
    Electron size [Ang]:                  3.503901
      Cartesian components [Ang]:       [  2.321165,   2.271139,   1.315843]
    RMS electron-hole separation [Ang]:  10.654120
      Cartesian components [Ang]:       [  2.407987,   2.359803,  10.106592]
    Covariance(r_h, r_e) [Ang^2]:         0.000023
    Correlation coefficient:              0.000006
    Center-of-mass size [Ang]:            1.837783
      Cartesian components [Ang]:       [  1.204000,   1.179906,   0.731883]

  Decomposition into state-averaged NTOs
    H- 0 -> L+ 2: -0.5037 ( 50.7%)
    H- 0 -> L+ 0:  0.4660 ( 43.4%)
                   omega =  94.2%
  ----------------------------------------------------------------------------


  Excited state 3 (singlet, A2)                                    [converged]
  ----------------------------------------------------------------------------
  Term symbol:  3 (1) A2                                    R^2 =  3.26458e-12

  Total energy:                                            -78.5764401749 a.u.
  Excitation energy:                                               5.698882 eV

  Osc. strength:                                                      0.000000
  Trans. dip. moment [a.u.]:           [   0.000000,    0.000000,    0.000000]
  <i|r^2|0> [a.u.]:                    [  -0.000000,   -0.000000,   -0.000000]

  Dip. moment [a.u.]:                  [   0.000000,    0.000000,   21.147594]
  Total dipole [Debye]:                                              53.751831
  <r^2> [a.u.]:                        [ 103.285127,   53.844615,   68.891319]
  Total <r^2> [a.u.]:                                               226.021061

  V1^2 = 0.0000, V2^2 = 1.0000

  Important amplitudes:
      occ i      occ j       vir a       vir b          v   
    ---------------------------------------------------------
     5 (A1) A   5 (A1) B    4 (B1) A    2 (B2) B      0.3536
     5 (A1) A               1 (A2) A                 -0.0001
    ---------------------------------------------------------

  Density matrix analysis:
  ------------------------
  NOs
    Occupation of frontier NOs:
       1.0007   1.0016
    Number of electrons: 18.000000
    Number of unpaired electrons: n_u =  2.40480, n_u,nl =  2.04905
    NO participation ratio (PR_NO):  2.879708
  
  
  Mulliken Population Analysis
  Atom      Charge (e)              h+              e-           Del q
  --------------------------------------------------------------------
   1 C       -1.158669        0.000005       -0.953858       -0.953854
   2 C       -1.158669        0.000005       -0.953858       -0.953854
   3 H        0.108096        0.000000       -0.005180       -0.005180
   4 H        0.108096        0.000000       -0.005180       -0.005180
   5 H        0.050573        0.000000       -0.040962       -0.040961
   6 H        0.050573        0.000000       -0.040962       -0.040961
   7 H        1.000001        1.999989       -0.000000        1.999989
  --------------------------------------------------------------------
  Sum:       -1.000000        2.000000       -2.000000       -0.000000
  
  Multipole moment analysis of the density matrix
    Molecular charge:                      -1.000000
    Number of electrons:                   18.000000
      Center of electronic charge [Ang]: [ -0.000000,  -0.000000,  -0.621712]
    Total nuclear charge:                  17.000000
      Center of nuclear charge [Ang]:    [  0.000000,   0.000000,  -0.000000]
    Dipole moment [D]:                     53.751815
      Cartesian components [D]:          [  0.000000,   0.000000,  53.751815]
    RMS size of the density [Ang]:         1.769100
      Cartesian components [Ang]:        [  1.267604,   0.915242,   0.827783]
  
  Exciton analysis of the difference density matrix
    <r_h> [Ang]:                  [  0.000000,  -0.000000,   9.411892]
    <r_e> [Ang]:                  [ -0.000000,  -0.000000,  -0.873679]
    |<r_e - r_h>| [Ang]:           10.285571
    Hole size [Ang]:                1.111456
      Cartesian components [Ang]: [  0.641571,   0.641569,   0.641958]
    Electron size [Ang]:            4.081273
      Cartesian components [Ang]: [  2.787421,   2.425992,   1.732524]

  Transition density matrix analysis:
  -----------------------------------
  
  CT numbers (Mulliken)
    omega =     0.0000
    <Phe> =     0.0000
  
  Exciton analysis of the transition density matrix
    ... vanishing.

  Decomposition into state-averaged NTOs
                   omega =   0.0%
  ----------------------------------------------------------------------------


  Excited state 4 (singlet, A2)                                    [converged]
  ----------------------------------------------------------------------------
  Term symbol:  4 (1) A2                                    R^2 =  9.06818e-12

  Total energy:                                            -78.5558880453 a.u.
  Excitation energy:                                               6.258134 eV

  Osc. strength:                                                      0.000000
  Trans. dip. moment [a.u.]:           [   0.000000,   -0.000000,    0.000000]
  <i|r^2|0> [a.u.]:                    [   0.000000,    0.000000,   -0.000000]

  Dip. moment [a.u.]:                  [  -0.000000,    0.000000,   21.803050]
  Total dipole [Debye]:                                              55.417837
  <r^2> [a.u.]:                        [  87.518954,   42.693411,   80.026679]
  Total <r^2> [a.u.]:                                               210.239045

  V1^2 = 0.0000, V2^2 = 1.0000

  Important amplitudes:
      occ i      occ j       vir a       vir b          v   
    ---------------------------------------------------------
     5 (A1) A   5 (A1) B    6 (A1) A    1 (A2) B     -0.3535
     5 (A1) A               1 (A2) A                  0.0042
    ---------------------------------------------------------

  Density matrix analysis:
  ------------------------
  NOs
    Occupation of frontier NOs:
       1.0015   1.0074
    Number of electrons: 18.000000
    Number of unpaired electrons: n_u =  2.39157, n_u,nl =  2.04677
    NO participation ratio (PR_NO):  2.867900
  
  
  Mulliken Population Analysis
  Atom      Charge (e)              h+              e-           Del q
  --------------------------------------------------------------------
   1 C       -1.198294        0.000003       -0.993481       -0.993478
   2 C       -1.198294        0.000003       -0.993481       -0.993478
   3 H        0.105354        0.000000       -0.007921       -0.007921
   4 H        0.105354        0.000000       -0.007921       -0.007921
   5 H        0.092948       -0.000000        0.001413        0.001413
   6 H        0.092948       -0.000000        0.001413        0.001413
   7 H        0.999983        1.999972       -0.000000        1.999972
  --------------------------------------------------------------------
  Sum:       -1.000000        1.999979       -1.999979       -0.000000
  
  Multipole moment analysis of the density matrix
    Molecular charge:                      -1.000000
    Number of electrons:                   18.000000
      Center of electronic charge [Ang]: [  0.000000,  -0.000000,  -0.640982]
    Total nuclear charge:                  17.000000
      Center of nuclear charge [Ang]:    [  0.000000,   0.000000,  -0.000000]
    Dipole moment [D]:                     55.417820
      Cartesian components [D]:          [ -0.000000,   0.000000,  55.417820]
    RMS size of the density [Ang]:         1.691112
      Cartesian components [Ang]:        [  1.166852,   0.814977,   0.913306]
  
  Exciton analysis of the difference density matrix
    <r_h> [Ang]:                  [ -0.000000,  -0.000000,   9.411911]
    <r_e> [Ang]:                  [  0.000000,   0.000000,  -1.047198]
    |<r_e - r_h>| [Ang]:           10.459109
    Hole size [Ang]:                1.111351
      Cartesian components [Ang]: [  0.641567,   0.641563,   0.641786]
    Electron size [Ang]:            3.756741
      Cartesian components [Ang]: [  2.358447,   2.079457,   2.055890]

  Transition density matrix analysis:
  -----------------------------------
  
  CT numbers (Mulliken)
    omega =     0.0000
    <Phe> =     0.0000
  
  Exciton analysis of the transition density matrix
    Trans. dipole moment [D]:             0.000000
      Cartesian components [D]:         [  0.000000,  -0.000000,   0.000000]
    <r_h> [Ang]:                        [ -0.000000,   0.000000,   9.412549]
    <r_e> [Ang]:                        [ -0.000000,  -0.000000,  -0.587998]
    |<r_e - r_h>| [Ang]:                 10.000547
    Hole size [Ang]:                      1.071764
      Cartesian components [Ang]:       [  0.618773,   0.618773,   0.618804]
    Electron size [Ang]:                  4.072631
      Cartesian components [Ang]:       [  2.688100,   2.649331,   1.530191]
    RMS electron-hole separation [Ang]:  10.851077
      Cartesian components [Ang]:       [  2.758391,   2.720627,  10.135844]
    Covariance(r_h, r_e) [Ang^2]:         0.000030
    Correlation coefficient:              0.000007
    Center-of-mass size [Ang]:            2.105651
      Cartesian components [Ang]:       [  1.379202,   1.360318,   0.825288]

  Decomposition into state-averaged NTOs
                   omega =   0.0%
  ----------------------------------------------------------------------------


  Excited state 5 (singlet, A2)                                    [converged]
  ----------------------------------------------------------------------------
  Term symbol:  5 (1) A2                                    R^2 =  5.46090e-12

  Total energy:                                            -78.5476270248 a.u.
  Excitation energy:                                               6.482928 eV

  Osc. strength:                                                      0.000000
  Trans. dip. moment [a.u.]:           [  -0.000000,    0.000000,   -0.000000]
  <i|r^2|0> [a.u.]:                    [  -0.000000,   -0.000000,    0.000000]

  Dip. moment [a.u.]:                  [  -0.000000,   -0.000000,   18.842808]
  Total dipole [Debye]:                                              47.893649
  <r^2> [a.u.]:                        [ 105.648065,   41.658053,   62.275387]
  Total <r^2> [a.u.]:                                               209.581506

  V1^2 = 0.0000, V2^2 = 1.0000

  Important amplitudes:
      occ i      occ j       vir a       vir b          v   
    ---------------------------------------------------------
     5 (A1) A   5 (A1) B    7 (A1) A    1 (A2) B      0.3536
     5 (A1) A               1 (A2) A                 -0.0019
    ---------------------------------------------------------

  Density matrix analysis:
  ------------------------
  NOs
    Occupation of frontier NOs:
       1.0012   1.0074
    Number of electrons: 18.000000
    Number of unpaired electrons: n_u =  2.39211, n_u,nl =  2.04680
    NO participation ratio (PR_NO):  2.868386
  
  
  Mulliken Population Analysis
  Atom      Charge (e)              h+              e-           Del q
  --------------------------------------------------------------------
   1 C       -1.230866        0.000004       -1.026055       -1.026050
   2 C       -1.230866        0.000004       -1.026055       -1.026050
   3 H        0.131177        0.000000        0.017901        0.017901
   4 H        0.131177        0.000000        0.017901        0.017901
   5 H        0.099690        0.000000        0.008156        0.008156
   6 H        0.099690        0.000000        0.008156        0.008156
   7 H        0.999997        1.999986       -0.000000        1.999986
  --------------------------------------------------------------------
  Sum:       -1.000000        1.999995       -1.999995       -0.000000
  
  Multipole moment analysis of the density matrix
    Molecular charge:                      -1.000000
    Number of electrons:                   18.000000
      Center of electronic charge [Ang]: [  0.000000,   0.000000,  -0.553955]
    Total nuclear charge:                  17.000000
      Center of nuclear charge [Ang]:    [  0.000000,   0.000000,  -0.000000]
    Dipole moment [D]:                     47.893635
      Cartesian components [D]:          [ -0.000000,  -0.000000,  47.893635]
    RMS size of the density [Ang]:         1.718611
      Cartesian components [Ang]:        [  1.282023,   0.805034,   0.813610]
  
  Exciton analysis of the difference density matrix
    <r_h> [Ang]:                  [ -0.000000,  -0.000000,   9.411895]
    <r_e> [Ang]:                  [  0.000000,   0.000000,  -0.263878]
    |<r_e - r_h>| [Ang]:            9.675773
    Hole size [Ang]:                1.111449
      Cartesian components [Ang]: [  0.641576,   0.641567,   0.641943]
    Electron size [Ang]:            3.879249
      Cartesian components [Ang]: [  2.846152,   2.044297,   1.663983]

  Transition density matrix analysis:
  -----------------------------------
  
  CT numbers (Mulliken)
    omega =     0.0000
    <Phe> =     0.0000
  
  Exciton analysis of the transition density matrix
    Trans. dipole moment [D]:             0.000000
      Cartesian components [D]:         [ -0.000000,   0.000000,  -0.000000]
    <r_h> [Ang]:                        [ -0.000000,   0.000000,   9.412627]
    <r_e> [Ang]:                        [ -0.000000,  -0.000000,  -0.588494]
    |<r_e - r_h>| [Ang]:                 10.001122
    Hole size [Ang]:                      1.069153
      Cartesian components [Ang]:       [  0.617267,   0.617267,   0.617294]
    Electron size [Ang]:                  4.056803
      Cartesian components [Ang]:       [  2.677959,   2.638774,   1.524159]
    RMS electron-hole separation [Ang]:  10.845419
      Cartesian components [Ang]:       [  2.748172,   2.710004,  10.135411]
    Covariance(r_h, r_e) [Ang^2]:         0.000031
    Correlation coefficient:              0.000007
    Center-of-mass size [Ang]:            2.097666
      Cartesian components [Ang]:       [  1.374093,   1.355006,   0.822209]

  Decomposition into state-averaged NTOs
                   omega =   0.0%
  ----------------------------------------------------------------------------


  Excited state 6 (singlet, A2)                                    [converged]
  ----------------------------------------------------------------------------
  Term symbol:  6 (1) A2                                    R^2 =  2.23847e-13

  Total energy:                                            -78.5313295264 a.u.
  Excitation energy:                                               6.926405 eV

  Osc. strength:                                                      0.000000
  Trans. dip. moment [a.u.]:           [  -0.000000,    0.000000,   -0.000000]
  <i|r^2|0> [a.u.]:                    [   0.000000,   -0.000000,    0.000000]

  Dip. moment [a.u.]:                  [  -0.000000,    0.000000,   19.144349]
  Total dipole [Debye]:                                              48.660091
  <r^2> [a.u.]:                        [  88.779105,   52.617839,   81.027294]
  Total <r^2> [a.u.]:                                               222.424238

  V1^2 = 0.0000, V2^2 = 1.0000

  Important amplitudes:
      occ i      occ j       vir a       vir b          v   
    ---------------------------------------------------------
     5 (A1) A   5 (A1) B    5 (B1) A    2 (B2) B      0.3536
     5 (A1) A               1 (A2) A                 -0.0002
    ---------------------------------------------------------

  Density matrix analysis:
  ------------------------
  NOs
    Occupation of frontier NOs:
       1.0008   1.0016
    Number of electrons: 18.000000
    Number of unpaired electrons: n_u =  2.40449, n_u,nl =  2.04902
    NO participation ratio (PR_NO):  2.879393
  
  
  Mulliken Population Analysis
  Atom      Charge (e)              h+              e-           Del q
  --------------------------------------------------------------------
   1 C       -1.083873        0.000005       -0.879062       -0.879057
   2 C       -1.083873        0.000005       -0.879062       -0.879057
   3 H        0.039232        0.000000       -0.074043       -0.074043
   4 H        0.039232        0.000000       -0.074043       -0.074043
   5 H        0.044640        0.000000       -0.046895       -0.046894
   6 H        0.044640        0.000000       -0.046895       -0.046894
   7 H        1.000001        1.999989       -0.000000        1.999989
  --------------------------------------------------------------------
  Sum:       -1.000000        2.000000       -2.000000       -0.000000
  
  Multipole moment analysis of the density matrix
    Molecular charge:                      -1.000000
    Number of electrons:                   18.000000
      Center of electronic charge [Ang]: [  0.000000,  -0.000000,  -0.562820]
    Total nuclear charge:                  17.000000
      Center of nuclear charge [Ang]:    [  0.000000,   0.000000,  -0.000000]
    Dipole moment [D]:                     48.660077
      Cartesian components [D]:          [ -0.000000,   0.000000,  48.660077]
    RMS size of the density [Ang]:         1.772997
      Cartesian components [Ang]:        [  1.175223,   0.904756,   0.971487]
  
  Exciton analysis of the difference density matrix
    <r_h> [Ang]:                  [ -0.000000,  -0.000000,   9.411892]
    <r_e> [Ang]:                  [  0.000000,  -0.000000,  -0.343644]
    |<r_e - r_h>| [Ang]:            9.755536
    Hole size [Ang]:                1.111456
      Cartesian components [Ang]: [  0.641571,   0.641569,   0.641958]
    Electron size [Ang]:            4.098585
      Cartesian components [Ang]: [  2.395551,   2.390328,   2.312157]

  Transition density matrix analysis:
  -----------------------------------
  
  CT numbers (Mulliken)
    omega =     0.0000
    <Phe> =     0.0000
  
  Exciton analysis of the transition density matrix
    ... vanishing.

  Decomposition into state-averaged NTOs
                   omega =   0.0%
  ----------------------------------------------------------------------------


  Excited state 7 (singlet, A2)                                    [converged]
  ----------------------------------------------------------------------------
  Term symbol:  7 (1) A2                                    R^2 =  7.26988e-12

  Total energy:                                            -78.5005957747 a.u.
  Excitation energy:                                               7.762713 eV

  Osc. strength:                                                      0.000000
  Trans. dip. moment [a.u.]:           [  -0.000000,    0.000000,   -0.000000]
  <i|r^2|0> [a.u.]:                    [  -0.000000,   -0.000000,    0.000000]

  Dip. moment [a.u.]:                  [  -0.000000,    0.000000,   19.626021]
  Total dipole [Debye]:                                              49.884380
  <r^2> [a.u.]:                        [  81.749090,   46.393654,   61.477643]
  Total <r^2> [a.u.]:                                               189.620387

  V1^2 = 0.0000, V2^2 = 1.0000

  Important amplitudes:
      occ i      occ j       vir a       vir b          v   
    ---------------------------------------------------------
     5 (A1) A   5 (A1) B    8 (A1) A    1 (A2) B      0.3536
     5 (A1) A               1 (A2) A                 -0.0006
    ---------------------------------------------------------

  Density matrix analysis:
  ------------------------
  NOs
    Occupation of frontier NOs:
       1.0023   1.0074
    Number of electrons: 18.000000
    Number of unpaired electrons: n_u =  2.38994, n_u,nl =  2.04674
    NO participation ratio (PR_NO):  2.866356
  
  
  Mulliken Population Analysis
  Atom      Charge (e)              h+              e-           Del q
  --------------------------------------------------------------------
   1 C       -1.317758        0.000005       -1.112948       -1.112943
   2 C       -1.317758        0.000005       -1.112948       -1.112943
   3 H        0.164738        0.000000        0.051462        0.051462
   4 H        0.164738        0.000000        0.051462        0.051462
   5 H        0.153021        0.000000        0.061486        0.061486
   6 H        0.153021        0.000000        0.061486        0.061486
   7 H        1.000000        1.999989       -0.000000        1.999989
  --------------------------------------------------------------------
  Sum:       -1.000000        2.000000       -2.000000       -0.000000
  
  Multipole moment analysis of the density matrix
    Molecular charge:                      -1.000000
    Number of electrons:                   18.000000
      Center of electronic charge [Ang]: [  0.000000,  -0.000000,  -0.576980]
    Total nuclear charge:                  17.000000
      Center of nuclear charge [Ang]:    [  0.000000,   0.000000,  -0.000000]
    Dipole moment [D]:                     49.884365
      Cartesian components [D]:          [ -0.000000,   0.000000,  49.884365]
    RMS size of the density [Ang]:         1.617728
      Cartesian components [Ang]:        [  1.127733,   0.849560,   0.789627]
  
  Exciton analysis of the difference density matrix
    <r_h> [Ang]:                  [ -0.000000,  -0.000000,   9.411892]
    <r_e> [Ang]:                  [  0.000000,   0.000000,  -0.471091]
    |<r_e - r_h>| [Ang]:            9.882983
    Hole size [Ang]:                1.111463
      Cartesian components [Ang]: [  0.641570,   0.641569,   0.641972]
    Electron size [Ang]:            3.478729
      Cartesian components [Ang]: [  2.180450,   2.200499,   1.582718]

  Transition density matrix analysis:
  -----------------------------------
  
  CT numbers (Mulliken)
    omega =     0.0000
    <Phe> =     0.0000
  
  Exciton analysis of the transition density matrix
    ... vanishing.

  Decomposition into state-averaged NTOs
                   omega =   0.0%
  ----------------------------------------------------------------------------


  Excited state 8 (singlet, A2)                                    [converged]
  ----------------------------------------------------------------------------
  Term symbol:  8 (1) A2                                    R^2 =  1.37162e-06

  Total energy:                                            -78.4933478604 a.u.
  Excitation energy:                                               7.959939 eV

  Osc. strength:                                                      0.000000
  Trans. dip. moment [a.u.]:           [   0.000000,   -0.000000,    0.000000]
  <i|r^2|0> [a.u.]:                    [  -0.000000,    0.000000,    0.000000]

  Dip. moment [a.u.]:                  [   0.000000,    0.000000,  -16.933072]
  Total dipole [Debye]:                                              43.039584
  <r^2> [a.u.]:                        [  80.836458,   20.019367,  686.713827]
  Total <r^2> [a.u.]:                                               787.569651

  V1^2 = 0.9485, V2^2 = 0.0515

  Important amplitudes:
      occ i      occ j       vir a       vir b          v   
    ---------------------------------------------------------
     1 (B2) A               4 (B1) A                 -0.6629
     1 (B2) A               6 (B1) A                  0.1538
    ---------------------------------------------------------

  Density matrix analysis:
  ------------------------
  NOs
    Occupation of frontier NOs:
       0.9835   0.9919
    Number of electrons: 18.000000
    Number of unpaired electrons: n_u =  2.31867, n_u,nl =  2.02590
    NO participation ratio (PR_NO):  2.745818
  
  
  Mulliken Population Analysis
  Atom      Charge (e)              h+              e-           Del q
  --------------------------------------------------------------------
   1 C       -0.323569        0.523227       -0.641980       -0.118753
   2 C       -0.323569        0.523227       -0.641980       -0.118753
   3 H        0.182737        0.089013       -0.019552        0.069461
   4 H        0.182737        0.089013       -0.019552        0.069461
   5 H        0.140826        0.100812       -0.051520        0.049291
   6 H        0.140826        0.100812       -0.051520        0.049291
   7 H       -0.999987        0.000280       -0.000278        0.000002
  --------------------------------------------------------------------
  Sum:       -1.000000        1.426382       -1.426382       -0.000000
  
  Multipole moment analysis of the density matrix
    Molecular charge:                      -1.000000
    Number of electrons:                   18.000000
      Center of electronic charge [Ang]: [ -0.000000,  -0.000000,   0.497811]
    Total nuclear charge:                  17.000000
      Center of nuclear charge [Ang]:    [  0.000000,   0.000000,  -0.000000]
    Dipole moment [D]:                     43.039571
      Cartesian components [D]:          [  0.000000,   0.000000, -43.039571]
    RMS size of the density [Ang]:         3.464753
      Cartesian components [Ang]:        [  1.121421,   0.558072,   3.230400]
  
  Exciton analysis of the difference density matrix
    <r_h> [Ang]:                  [  0.000000,  -0.000000,  -0.603108]
    <r_e> [Ang]:                  [ -0.000000,  -0.000000,  -0.897365]
    |<r_e - r_h>| [Ang]:            0.294256
    Hole size [Ang]:                1.583928
      Cartesian components [Ang]: [  1.058372,   0.860942,   0.804646]
    Electron size [Ang]:            3.285862
      Cartesian components [Ang]: [  2.651445,   1.332568,   1.411025]

  Transition density matrix analysis:
  -----------------------------------
  
  CT numbers (Mulliken)
    omega =     0.9180
    <Phe> =    -0.0032
  
  Exciton analysis of the transition density matrix
    Trans. dipole moment [D]:             0.000000
      Cartesian components [D]:         [  0.000000,  -0.000000,   0.000000]
    <r_h> [Ang]:                        [  0.000000,   0.000000,  -0.589289]
    <r_e> [Ang]:                        [ -0.000000,  -0.000000,  -1.030016]
    |<r_e - r_h>| [Ang]:                  0.440727
    Hole size [Ang]:                      1.255746
      Cartesian components [Ang]:       [  0.757154,   0.862422,   0.509748]
    Electron size [Ang]:                  3.812787
      Cartesian components [Ang]:       [  3.096805,   1.550054,   1.595140]
    RMS electron-hole separation [Ang]:   4.029637
      Cartesian components [Ang]:       [  3.181449,   1.766301,   1.731050]
    Covariance(r_h, r_e) [Ang^2]:         0.035256
    Correlation coefficient:              0.007364
    Center-of-mass size [Ang]:            2.011514
      Cartesian components [Ang]:       [  1.597291,   0.890655,   0.837607]

  Decomposition into state-averaged NTOs
    H- 1 -> L+ 1: -0.6769 ( 91.6%)
                   omega =  91.8%
  ----------------------------------------------------------------------------


  Excited state 9 (singlet, A2)                                    [converged]
  ----------------------------------------------------------------------------
  Term symbol:  9 (1) A2                                    R^2 =  3.16443e-10

  Total energy:                                            -78.4729629892 a.u.
  Excitation energy:                                               8.514639 eV

  Osc. strength:                                                      0.000000
  Trans. dip. moment [a.u.]:           [   0.000000,    0.000000,    0.000000]
  <i|r^2|0> [a.u.]:                    [  -0.000000,   -0.000000,   -0.000000]

  Dip. moment [a.u.]:                  [  -0.000000,    0.000000,   21.803713]
  Total dipole [Debye]:                                              55.419522
  <r^2> [a.u.]:                        [  79.036120,   34.127253,   77.233878]
  Total <r^2> [a.u.]:                                               190.397252

  V1^2 = 0.0000, V2^2 = 1.0000

  Important amplitudes:
      occ i      occ j       vir a       vir b          v   
    ---------------------------------------------------------
     5 (A1) A   5 (A1) B    6 (A1) A    2 (A2) B      0.3535
     5 (A1) A               2 (A2) A                 -0.0030
    ---------------------------------------------------------

  Density matrix analysis:
  ------------------------
  NOs
    Occupation of frontier NOs:
       1.0015   1.0253
    Number of electrons: 18.000000
    Number of unpaired electrons: n_u =  2.35577, n_u,nl =  2.04171
    NO participation ratio (PR_NO):  2.834183
  
  
  Mulliken Population Analysis
  Atom      Charge (e)              h+              e-           Del q
  --------------------------------------------------------------------
   1 C       -1.190461        0.000011       -0.985656       -0.985645
   2 C       -1.190461        0.000011       -0.985656       -0.985645
   3 H        0.101500        0.000000       -0.011776       -0.011776
   4 H        0.101500        0.000000       -0.011776       -0.011776
   5 H        0.088973        0.000000       -0.002562       -0.002562
   6 H        0.088973        0.000000       -0.002562       -0.002562
   7 H        0.999976        1.999965       -0.000000        1.999964
  --------------------------------------------------------------------
  Sum:       -1.000000        1.999988       -1.999988       -0.000000
  
  Multipole moment analysis of the density matrix
    Molecular charge:                      -1.000000
    Number of electrons:                   18.000000
      Center of electronic charge [Ang]: [  0.000000,  -0.000000,  -0.641002]
    Total nuclear charge:                  17.000000
      Center of nuclear charge [Ang]:    [  0.000000,   0.000000,  -0.000000]
    Dipole moment [D]:                     55.419505
      Cartesian components [D]:          [ -0.000000,   0.000000,  55.419505]
    RMS size of the density [Ang]:         1.597233
      Cartesian components [Ang]:        [  1.108862,   0.728644,   0.889188]
  
  Exciton analysis of the difference density matrix
    <r_h> [Ang]:                  [ -0.000000,  -0.000000,   9.411829]
    <r_e> [Ang]:                  [  0.000000,  -0.000000,  -1.047407]
    |<r_e - r_h>| [Ang]:           10.459236
    Hole size [Ang]:                1.111718
      Cartesian components [Ang]: [  0.641568,   0.641563,   0.642421]
    Electron size [Ang]:            3.366620
      Cartesian components [Ang]: [  2.091537,   1.767691,   1.958282]

  Transition density matrix analysis:
  -----------------------------------
  
  CT numbers (Mulliken)
    omega =     0.0000
    <Phe> =     0.0000
  
  Exciton analysis of the transition density matrix
    Trans. dipole moment [D]:             0.000000
      Cartesian components [D]:         [  0.000000,   0.000000,   0.000000]
    <r_h> [Ang]:                        [ -0.000000,   0.000000,   9.412376]
    <r_e> [Ang]:                        [ -0.000000,  -0.000000,  -0.587127]
    |<r_e - r_h>| [Ang]:                  9.999504
    Hole size [Ang]:                      1.080822
      Cartesian components [Ang]:       [  0.623940,   0.623940,   0.624159]
    Electron size [Ang]:                  1.946896
      Cartesian components [Ang]:       [  1.335519,   1.224500,   0.712316]
    RMS electron-hole separation [Ang]:  10.244443
      Cartesian components [Ang]:       [  1.474070,   1.374295,  10.044254]
    Covariance(r_h, r_e) [Ang^2]:         0.000021
    Correlation coefficient:              0.000010
    Center-of-mass size [Ang]:            1.113399
      Cartesian components [Ang]:       [  0.737046,   0.687153,   0.473541]

  Decomposition into state-averaged NTOs
                   omega =   0.0%
  ----------------------------------------------------------------------------


  Excited state 10 (singlet, A2)                                    [converged]
  ----------------------------------------------------------------------------
  Term symbol:  10 (1) A2                                   R^2 =  2.13649e-10

  Total energy:                                            -78.4647007316 a.u.
  Excitation energy:                                               8.739467 eV

  Osc. strength:                                                      0.000000
  Trans. dip. moment [a.u.]:           [  -0.000000,   -0.000000,   -0.000000]
  <i|r^2|0> [a.u.]:                    [   0.000000,    0.000000,    0.000000]

  Dip. moment [a.u.]:                  [  -0.000000,    0.000000,   18.843764]
  Total dipole [Debye]:                                              47.896080
  <r^2> [a.u.]:                        [  97.169638,   33.091427,   59.478116]
  Total <r^2> [a.u.]:                                               189.739182

  V1^2 = 0.0000, V2^2 = 1.0000

  Important amplitudes:
      occ i      occ j       vir a       vir b          v   
    ---------------------------------------------------------
     5 (A1) A   5 (A1) B    7 (A1) A    2 (A2) B     -0.3536
     5 (A1) A               3 (A2) A                  0.0017
    ---------------------------------------------------------

  Density matrix analysis:
  ------------------------
  NOs
    Occupation of frontier NOs:
       1.0012   1.0253
    Number of electrons: 18.000000
    Number of unpaired electrons: n_u =  2.35627, n_u,nl =  2.04174
    NO participation ratio (PR_NO):  2.834615
  
  
  Mulliken Population Analysis
  Atom      Charge (e)              h+              e-           Del q
  --------------------------------------------------------------------
   1 C       -1.223056        0.000007       -1.018247       -1.018240
   2 C       -1.223056        0.000007       -1.018247       -1.018240
   3 H        0.127332        0.000000        0.014057        0.014057
   4 H        0.127332        0.000000        0.014057        0.014057
   5 H        0.095727        0.000000        0.004192        0.004193
   6 H        0.095727        0.000000        0.004192        0.004193
   7 H        0.999993        1.999982       -0.000000        1.999982
  --------------------------------------------------------------------
  Sum:       -1.000000        1.999996       -1.999996       -0.000000
  
  Multipole moment analysis of the density matrix
    Molecular charge:                      -1.000000
    Number of electrons:                   18.000000
      Center of electronic charge [Ang]: [  0.000000,  -0.000000,  -0.553983]
    Total nuclear charge:                  17.000000
      Center of nuclear charge [Ang]:    [  0.000000,   0.000000,  -0.000000]
    Dipole moment [D]:                     47.896066
      Cartesian components [D]:          [ -0.000000,   0.000000,  47.896066]
    RMS size of the density [Ang]:         1.626315
      Cartesian components [Ang]:        [  1.229505,   0.717501,   0.786392]
  
  Exciton analysis of the difference density matrix
    <r_h> [Ang]:                  [ -0.000000,  -0.000000,   9.411873]
    <r_e> [Ang]:                  [  0.000000,   0.000000,  -0.264150]
    |<r_e - r_h>| [Ang]:            9.676023
    Hole size [Ang]:                1.111549
      Cartesian components [Ang]: [  0.641574,   0.641567,   0.642118]
    Electron size [Ang]:            3.502861
      Cartesian components [Ang]: [  2.629349,   1.726180,   1.541709]

  Transition density matrix analysis:
  -----------------------------------
  
  CT numbers (Mulliken)
    omega =     0.0000
    <Phe> =     0.0000
  
  Exciton analysis of the transition density matrix
    Trans. dipole moment [D]:             0.000000
      Cartesian components [D]:         [ -0.000000,  -0.000000,  -0.000000]
    <r_h> [Ang]:                        [ -0.000000,   0.000000,   9.412304]
    <r_e> [Ang]:                        [ -0.000000,  -0.000000,  -0.589025]
    |<r_e - r_h>| [Ang]:                 10.001329
    Hole size [Ang]:                      1.086187
      Cartesian components [Ang]:       [  0.627019,   0.627018,   0.627294]
    Electron size [Ang]:                  1.896478
      Cartesian components [Ang]:       [  1.300068,   1.194084,   0.693265]
    RMS electron-hole separation [Ang]:  10.237332
      Cartesian components [Ang]:       [  1.443364,   1.348694,  10.044934]
    Covariance(r_h, r_e) [Ang^2]:         0.000020
    Correlation coefficient:              0.000010
    Center-of-mass size [Ang]:            1.092757
      Cartesian components [Ang]:       [  0.721692,   0.674352,   0.467470]

  Decomposition into state-averaged NTOs
                   omega =   0.0%
  ----------------------------------------------------------------------------


--------------------------------------------------------------------------------
  Time of ADC calculation:  CPU 114.03 s  wall 33.48 s
================================================================================
 
 --------------------------------------------------------------
             Orbital Energies (a.u.) and Symmetries
 --------------------------------------------------------------
 
 Alpha MOs, Restricted
 -- Occupied --                  
-11.184 -11.182  -0.989  -0.729  -0.607  -0.514  -0.462  -0.324
  1 A1    1 B1    2 A1    2 B1    3 A1    4 A1    3 B1    1 B2                 
  0.022
  5 A1                                                                         
 -- Virtual --                   
  0.115   0.130   0.138   0.138   0.144   0.160   0.185   0.227
  4 B1    6 A1    7 A1    2 B2    1 A2    5 B1    8 A1    2 A2                 
  0.258   0.315   0.355   0.361   0.375   0.385   0.387   0.396
  6 B1    9 A1   10 A1    7 B1   11 A1    3 B2    8 B1   12 A1                 
  0.423   0.466   0.607   0.664   0.882   0.907   0.981   0.987
  9 B1    3 A2   10 B1   11 B1   13 A1   14 A1   15 A1   12 B1                 
  1.058   1.062   1.084   1.100   1.135   1.167   1.177   1.178
 16 A1   17 A1   13 B1   18 A1    4 B2    5 B2   14 B1    4 A2                 
  1.326   1.337   1.341   1.478   1.672   1.706   1.779   1.925
 15 B1    5 A2    6 B2   16 B1   19 A1   17 B1   20 A1    6 A2                 
  1.967   1.967   1.967   1.996   2.009   2.070   2.114   2.144
 21 A1   18 B1    7 B2    8 B2   19 B1    9 B2   22 A1   23 A1                 
  2.233   2.380   2.465   2.521   2.630   2.632   2.878   2.885
  7 A2   20 B1    8 A2   24 A1   21 B1   22 B1   25 A1   26 A1                 
  3.310   3.393
 23 B1   24 B1                                                                 
 
 Beta MOs, Restricted
 -- Occupied --                  
-11.184 -11.182  -0.989  -0.729  -0.607  -0.514  -0.462  -0.324
  1 A1    1 B1    2 A1    2 B1    3 A1    4 A1    3 B1    1 B2                 
  0.022
  5 A1                                                                         
 -- Virtual --                   
  0.115   0.130   0.138   0.138   0.144   0.160   0.185   0.227
  4 B1    6 A1    7 A1    2 B2    1 A2    5 B1    8 A1    2 A2                 
  0.258   0.315   0.355   0.361   0.375   0.385   0.387   0.396
  6 B1    9 A1   10 A1    7 B1   11 A1    3 B2    8 B1   12 A1                 
  0.423   0.466   0.607   0.664   0.882   0.907   0.981   0.987
  9 B1    3 A2   10 B1   11 B1   13 A1   14 A1   15 A1   12 B1                 
  1.058   1.062   1.084   1.100   1.135   1.167   1.177   1.178
 16 A1   17 A1   13 B1   18 A1    4 B2    5 B2   14 B1    4 A2                 
  1.326   1.337   1.341   1.478   1.672   1.706   1.779   1.925
 15 B1    5 A2    6 B2   16 B1   19 A1   17 B1   20 A1    6 A2                 
  1.967   1.967   1.967   1.996   2.009   2.070   2.114   2.144
 21 A1   18 B1    7 B2    8 B2   19 B1    9 B2   22 A1   23 A1                 
  2.233   2.380   2.465   2.521   2.630   2.632   2.878   2.885
  7 A2   20 B1    8 A2   24 A1   21 B1   22 B1   25 A1   26 A1                 
  3.310   3.393
 23 B1   24 B1                                                                 
 --------------------------------------------------------------
 
          Ground-State Mulliken Net Atomic Charges

     Atom                 Charge (a.u.)
  ----------------------------------------
      1 C                    -0.189881
      2 C                    -0.189881
      3 H                     0.105821
      4 H                     0.105821
      5 H                     0.084055
      6 H                     0.084055
      7 H                    -0.999989
  ----------------------------------------
  Sum of atomic charges =    -1.000000

 -----------------------------------------------------------------
                    Cartesian Multipole Moments
 -----------------------------------------------------------------
    Charge (ESU x 10^10)
                -4.8032
    Dipole Moment (Debye)
         X      -0.0000      Y      -0.0000      Z     -45.0574
       Tot      45.0574
    Quadrupole Moments (Debye-Ang)
        XX     -16.8861     XY       0.0000     YY     -20.0973
        XZ       0.0000     YZ       0.0000     ZZ    -441.5601
    Octopole Moments (Debye-Ang^2)
       XXX       0.0000    XXY      -0.0000    XYY       0.0000
       YYY      -0.0000    XXZ     -29.3517    XYZ       0.0000
       YYZ     -27.6612    XZZ      -0.0000    YZZ      -0.0000
       ZZZ   -4094.6570
    Hexadecapole Moments (Debye-Ang^3)
      XXXX     -74.1007   XXXY      -0.0000   XXYY     -17.5977
      XYYY       0.0000   YYYY     -27.6413   XXXZ      -0.0000
      XXYZ       0.0000   XYYZ       0.0000   YYYZ       0.0000
      XXZZ    -370.2008   XYZZ       0.0000   YYZZ    -366.8886
      XZZZ       0.0000   YZZZ      -0.0000   ZZZZ  -39851.3495
 -----------------------------------------------------------------
 Total job time:  114.56s(wall), 157.07s(cpu) 
 Thu Feb 17 19:22:13 2022

        *************************************************************
        *                                                           *
        *  Thank you very much for using Q-Chem.  Have a nice day.  *
        *                                                           *
        *************************************************************


