/src/tsommerfeld/qchem/exe/qcprog.exe .input1.929487.982.qcin.1 /src/jdavis/qchem.scratch/qchem982/

                  Welcome to Q-Chem
     A Quantum Leap Into The Future Of Chemistry


 Q-Chem 5.4 (devel), Q-Chem, Inc., Pleasanton, CA (2021)

 E. Epifanovsky,  A. T. B. Gilbert,  Xintian Feng,  Joonho Lee,  Yuezhi Mao,  
 N. Mardirossian,  P. Pokhilko,  A. White,  M. Wormit,  M. P. Coons,  
 A. L. Dempwolff,  Zhengting Gan,  D. Hait,  P. R. Horn,  L. D. Jacobson,  
 I. Kaliman,  J. Kussmann,  A. W. Lange,  Ka Un Lao,  D. S. Levine,  Jie Liu,  
 S. C. McKenzie,  A. F. Morrison,  K. Nanda,  F. Plasser,  D. R. Rehn,  
 M. L. Vidal,  Zhi-Qiang You,  Ying Zhu,  B. Alam,  B. Albrecht,  
 A. Aldossary,  E. Alguire,  J. H. Andersen,  D. Barton,  K. Begam,  A. Behn,  
 Y. A. Bernard,  E. J. Berquist,  H. Burton,  A. Carreras,  K. Carter-Fenk,  
 R. Chakraborty,  A. D. Chien,  K. D. Closser,  V. Cofer-Shabica,  
 S. Dasgupta,  Jia Deng,  M. de Wergifosse,  M. Diedenhofen,  Hainam Do,  
 S. Ehlert,  Po-Tung Fang,  S. Fatehi,  Qingguo Feng,  T. Friedhoff,  
 J. Gayvert,  Qinghui Ge,  G. Gidofalvi,  M. Goldey,  J. Gomes,  
 C. Gonzalez-Espinoza,  S. Gulania,  A. Gunina,  M. W. D. Hanson-Heine,  
 P. H. P. Harbach,  A. W. Hauser,  M. F. Herbst,  M. Hernandez Vera,  
 M. Hodecker,  Z. C. Holden,  S. Houck,  Xunkun Huang,  Kerwin Hui,  
 B. C. Huynh,  M. Ivanov,  Hyunjun Ji,  Hanjie Jiang,  B. Kaduk,  S. Kaehler,  
 K. Khistyaev,  Jaehoon Kim,  P. Klunzinger,  Z. Koczor-Benda,  
 Joong Hoon Koh,  D. Kosenkov,  L. Koulias,  T. Kowalczyk,  C. M. Krauter,  
 K. Kue,  A. Kunitsa,  T. Kus,  A. Landau,  K. V. Lawler,  D. Lefrancois,  
 S. Lehtola,  Rain Li,  Yi-Pei Li,  Jiashu Liang,  M. Liebenthal,  
 Hung-Hsuan Lin,  You-Sheng Lin,  Fenglai Liu,  Kuan-Yu Liu,  
 M. Loipersberger,  A. Luenser,  A. Manjanath,  P. Manohar,  E. Mansoor,  
 S. F. Manzer,  Shan-Ping Mao,  A. V. Marenich,  T. Markovich,  S. Mason,  
 S. A. Maurer,  P. F. McLaughlin,  M. F. S. J. Menger,  J.-M. Mewes,  
 S. A. Mewes,  P. Morgante,  J. W. Mullinax,  K. J. Oosterbaan,  G. Paran,  
 Alexander C. Paul,  Suranjan K. Paul,  F. Pavosevic,  Zheng Pei,  S. Prager,  
 E. I. Proynov,  E. Ramos,  B. Rana,  A. E. Rask,  A. Rettig,  R. M. Richard,  
 F. Rob,  E. Rossomme,  T. Scheele,  M. Scheurer,  M. Schneider,  
 N. Sergueev,  S. M. Sharada,  W. Skomorowski,  D. W. Small,  C. J. Stein,  
 Yu-Chuan Su,  E. J. Sundstrom,  Zhen Tao,  J. Thirman,  T. Tsuchimochi,  
 N. M. Tubman,  S. P. Veccham,  O. Vydrov,  J. Wenzel,  J. Witte,  A. Yamada,  
 Kun Yao,  S. Yeganeh,  S. R. Yost,  A. Zech,  Igor Ying Zhang,  Xing Zhang,  
 Yu Zhang,  D. Zuev,  A. Aspuru-Guzik,  A. T. Bell,  N. A. Besley,  
 K. B. Bravaya,  B. R. Brooks,  D. Casanova,  Jeng-Da Chai,  S. Coriani,  
 C. J. Cramer,  A. E. DePrince, III,  R. A. DiStasio Jr.,  A. Dreuw,  
 B. D. Dunietz,  T. R. Furlani,  W. A. Goddard III,  S. Grimme,  
 S. Hammes-Schiffer,  T. Head-Gordon,  W. J. Hehre,  Chao-Ping Hsu,  
 T.-C. Jagau,  Yousung Jung,  A. Klamt,  Jing Kong,  D. S. Lambrecht,  
 WanZhen Liang,  N. J. Mayhall,  C. W. McCurdy,  J. B. Neaton,  
 C. Ochsenfeld,  J. A. Parkhill,  R. Peverati,  V. A. Rassolov,  Yihan Shao,  
 L. V. Slipchenko,  T. Stauch,  R. P. Steele,  J. E. Subotnik,  
 A. J. W. Thom,  A. Tkatchenko,  D. G. Truhlar,  T. Van Voorhis,  
 T. A. Wesolowski,  K. B. Whaley,  H. L. Woodcock III,  P. M. Zimmerman,  
 S. Faraji,  P. M. W. Gill,  M. Head-Gordon,  J. M. Herbert,  A. I. Krylov

 Additional authors for Version 5.4.1: 
 S. Kotaru,  Shaozhi Li,  Xiangyuan Li,  F. Matz,  A. Molle,  Haisheng Ren,  
 Yingli Su,  Hung-Yi Tsai,  C. Utku,  Fang Wang

 Contributors to earlier versions of Q-Chem not listed above: 
 R. D. Adamson,  B. Austin,  R. Baer,  J. Baker,  G. J. O. Beran,  
 K. Brandhorst,  S. T. Brown,  E. F. C. Byrd,  A. K. Chakraborty,  
 G. K. L. Chan,  Chun-Min Chang,  Yunqing Chen,  C.-L. Cheng,  
 Siu Hung Chien,  D. M. Chipman,  D. L. Crittenden,  H. Dachsel,  
 R. J. Doerksen,  A. D. Dutoi,  R. G. Edgar,  J. Fosso-Tande,  
 L. Fusti-Molnar,  D. Ghosh,  A. Ghysels,  A. Golubeva-Zadorozhnaya,  
 J. Gonthier,  M. S. Gordon,  S. R. Gwaltney,  G. Hawkins,  J. E. Herr,  
 A. Heyden,  S. Hirata,  E. G. Hohenstein,  G. Kedziora,  F. J. Keil,  
 C. Kelley,  Jihan Kim,  R. A. King,  R. Z. Khaliullin,  P. P. Korambath,  
 W. Kurlancheek,  A. Laurent,  A. M. Lee,  M. S. Lee,  S. V. Levchenko,  
 Ching Yeh Lin,  D. Liotard,  E. Livshits,  R. C. Lochan,  I. Lotan,  
 L. A. Martinez-Martinez,  P. E. Maslen,  N. Nair,  D. P. O'Neill,  
 D. Neuhauser,  E. Neuscamman,  C. M. Oana,  R. Olivares-Amaya,  R. Olson,  
 T. M. Perrine,  B. Peters,  P. A. Pieniazek,  A. Prociuk,  Y. M. Rhee,  
 J. Ritchie,  M. A. Rohrdanz,  E. Rosta,  N. J. Russ,  H. F. Schaefer III,  
 M. W. Schmidt,  N. E. Schultz,  S. Sharma,  N. Shenvi,  C. D. Sherrill,  
 A. C. Simmonett,  A. Sodt,  T. Stein,  D. Stuck,  K. S. Thanthiriwatte,  
 V. Vanovschi,  L. Vogt,  Tao Wang,  A. Warshel,  M. A. Watson,  
 C. F. Williams,  Q. Wu,  X. Xu,  Jun Yang,  W. Zhang,  Yan Zhao

 Please cite Q-Chem as follows:
 Y. Shao et al., Mol. Phys. 113, 184-215 (2015)
 DOI: 10.1080/00268976.2014.952696

 Q-Chem 5.4.1 for Intel X86 EM64T Linux

 Parts of Q-Chem use Armadillo 9.900.5 (Nocturnal Misbehaviour).
 http://arma.sourceforge.net/

 Q-Chem begins on Fri Feb 25 15:39:30 2022  

 Host: node01
0

     Scratch files written to /src/jdavis/qchem.scratch/qchem982//
 Processing $rem in /src/tsommerfeld/qchem/config/preferences:
 Processing $rem in /home/jdavis/.qchemrc:

 Checking the input file for inconsistencies... 	...done.

--------------------------------------------------------------
User input:
--------------------------------------------------------------
$molecule
0 1
C        -0.6645000000    0.0000000000   -0.2082049804
C         0.6645000000    0.0000000000   -0.2082049804
H        -1.1590800000    0.0000000000    0.7541440196
H         1.1590800000    0.0000000000    0.7541440196
H        -1.1590800000    0.0000000000   -1.1705529804
H         1.1590800000    0.0000000000   -1.1705529804
$end

$rem
   METHOD adc(2)
   BASIS gen
   PURECART 11
   EA_STATES [0,0,10,0,0,0,0,0]
   scf_convergence 8
   ADC_DAVIDSON_MAXITER 120
   ADC_DAVIDSON_MAXSUBSPACE 200
   adc_nguess_singles 100
   THRESH 14
   S2THRESH 14
   adc_davidson_conv 5
   adc_davidson_thresh 14
   THREADS 10
   MEM_TOTAL 95000
   STATE_ANALYSIS TRUE
$end
$basis
C 1
S   9   1.00
      6.665000D+03           6.920000D-04
      1.000000D+03           5.329000D-03
      2.280000D+02           2.707700D-02
      6.471000D+01           1.017180D-01
      2.106000D+01           2.747400D-01
      7.495000D+00           4.485640D-01
      2.797000D+00           2.850740D-01
      5.215000D-01           1.520400D-02
      1.596000D-01          -3.191000D-03
S   9   1.00
      6.665000D+03          -1.460000D-04
      1.000000D+03          -1.154000D-03
      2.280000D+02          -5.725000D-03
      6.471000D+01          -2.331200D-02
      2.106000D+01          -6.395500D-02
      7.495000D+00          -1.499810D-01
      2.797000D+00          -1.272620D-01
      5.215000D-01           5.445290D-01
      1.596000D-01           5.804960D-01
S   1   1.00
      1.596000D-01           1.000000D+00
S   1   1.00
      0.0469000              1.0000000
P   4   1.00
      9.439000D+00           3.810900D-02
      2.002000D+00           2.094800D-01
      5.456000D-01           5.085570D-01
      1.517000D-01           4.688420D-01
P   1   1.00
      1.517000D-01           1.000000D+00
P   1   1.00
      0.0836295      1.0000000
P   1   1.00
      0.0418147      1.0000000
D   1   1.00
      5.500000D-01           1.0000000
****
C 2
S   9   1.00
      6.665000D+03           6.920000D-04
      1.000000D+03           5.329000D-03
      2.280000D+02           2.707700D-02
      6.471000D+01           1.017180D-01
      2.106000D+01           2.747400D-01
      7.495000D+00           4.485640D-01
      2.797000D+00           2.850740D-01
      5.215000D-01           1.520400D-02
      1.596000D-01          -3.191000D-03
S   9   1.00
      6.665000D+03          -1.460000D-04
      1.000000D+03          -1.154000D-03
      2.280000D+02          -5.725000D-03
      6.471000D+01          -2.331200D-02
      2.106000D+01          -6.395500D-02
      7.495000D+00          -1.499810D-01
      2.797000D+00          -1.272620D-01
      5.215000D-01           5.445290D-01
      1.596000D-01           5.804960D-01
S   1   1.00
      1.596000D-01           1.000000D+00
S   1   1.00
      0.0469000              1.0000000
P   4   1.00
      9.439000D+00           3.810900D-02
      2.002000D+00           2.094800D-01
      5.456000D-01           5.085570D-01
      1.517000D-01           4.688420D-01
P   1   1.00
      1.517000D-01           1.000000D+00
P   1   1.00
      0.0836295      1.0000000
P   1   1.00
      0.0418147      1.0000000
D   1   1.00
      5.500000D-01           1.0000000
****
H 3
cc-pVDZ
****
H 4
cc-pVDZ
****
H 5
cc-pVDZ
****
H 6
cc-pVDZ
****
$end
--------------------------------------------------------------
 Atom   2: ( -0.6645000000, -0.0000001250,  0.0000000000)
         ->( -0.6645000000,  0.0000001250, -0.0000000000)
 Atom   1: (  0.6645000000, -0.0000001250, -0.0000000000)
         ->(  0.6645000000,  0.0000000000,  0.0000000000)
 Atom   6: ( -1.1590800000, -0.9623481250, -0.0000000000)
         ->( -1.1590800000, -0.9623488750,  0.0000000000)
 Atom   5: (  1.1590800000, -0.9623481250, -0.0000000000)
         ->(  1.1590800000, -0.9623488750, -0.0000000000)
 ----------------------------------------------------------------
             Standard Nuclear Orientation (Angstroms)
    I     Atom           X                Y                Z
 ----------------------------------------------------------------
    1      C       0.6645000000     0.0000000000     0.0000000000
    2      C      -0.6645000000     0.0000001250    -0.0000000000
    3      H       1.1590800000     0.9623488750     0.0000000000
    4      H      -1.1590800000     0.9623488750     0.0000000000
    5      H       1.1590800000    -0.9623488750    -0.0000000000
    6      H      -1.1590800000    -0.9623488750     0.0000000000
 ----------------------------------------------------------------
 Molecular Point Group                 D2h   NOp =  8
 Largest Abelian Subgroup              D2h   NOp =  8
 Nuclear Repulsion Energy =          33.58921667 hartrees
 There are        8 alpha and        8 beta electrons
 Requested basis set is non-standard
 There are 30 shells and 62 basis functions
 Total memory of 95000 MB is distributed as follows: 
   MEM_STATIC is set to 192 MB
   QALLOC/CCMAN JOB total memory use is  94808 MB
 Warning: actual memory use might exceed 95000 MB

 Total QAlloc Memory Limit  95000 MB
 Mega-Array Size       188 MB
 MEM_STATIC part       192 MB

                       Distance Matrix (Angstroms)
             C (  1)   C (  2)   H (  3)   H (  4)   H (  5)
   C (  2)  1.329000
   H (  3)  1.082000  2.061931
   H (  4)  2.061931  1.082000  2.318160
   H (  5)  1.082000  2.061931  1.924698  3.013026
   H (  6)  2.061931  1.082000  3.013026  1.924698  2.318160
 
 A cutoff of  1.0D-14 yielded    465 shell pairs
 There are      2009 function pairs (      2146 Cartesian)
 Smallest overlap matrix eigenvalue = 2.24E-04

 Scale SEOQF with 1.000000e-01/1.000000e-01/1.000000e-01

 Standard Electronic Orientation quadrupole field applied
 Nucleus-field energy     =     0.0000000006 hartrees
 ================ Generating on-the-fly SAD Guess ================
Attempting to make child job directory: /src/jdavis/qchem.scratch/qchem982//Frg1/
Attempting to make child job directory: /src/jdavis/qchem.scratch/qchem982//Frg2/
Creating input file /src/jdavis/qchem.scratch/qchem982/Frg1.input
using default PutDataFrgm: nothing
calling putenv with: QCSCRATCH=/src/jdavis/qchem.scratch/qchem982/ 
Spawning Job For Fragment 0
Done Job For Fragment 0
calling putenv with: QCSCRATCH=/src/jdavis/qchem.scratch 
calling putenv with: QCTHREADS=1 
Creating input file /src/jdavis/qchem.scratch/qchem982/Frg2.input
using default PutDataFrgm: nothing
calling putenv with: QCSCRATCH=/src/jdavis/qchem.scratch/qchem982/ 
Spawning Job For Fragment 1
Done Job For Fragment 1
calling putenv with: QCSCRATCH=/src/jdavis/qchem.scratch 
calling putenv with: QCTHREADS=1 
 Time for running child jobs:  CPU 1.77 s  wall 53.27 s
 ============= Method Specific SAD Guess Constructed =============
 Guess from on-the-fly superposition of atomic densities
 Warning: Energy on first SCF cycle will be non-variational
 A restricted Hartree-Fock SCF calculation will be
 performed using Pulay DIIS extrapolation
 SCF converges when DIIS error is below 1.0E-08
 using 10 threads for integral computing
 -------------------------------------------------------
 OpenMP Integral computing Module                
 Release: version 1.0, May 2013, Q-Chem Inc. Pittsburgh 
 -------------------------------------------------------
 ---------------------------------------
  Cycle       Energy         DIIS Error
 ---------------------------------------
    1     -78.4586173707      7.95E-02
    2     -78.0144777452      5.76E-03
    3     -78.0357682208      1.51E-03
    4     -78.0374034807      5.02E-04
    5     -78.0375735146      6.08E-05
    6     -78.0375783069      1.29E-05
    7     -78.0375786836      3.05E-06
    8     -78.0375787464      2.77E-07
    9     -78.0375787523      3.52E-08
   10     -78.0375787526      3.69E-09 Convergence criterion met
 ---------------------------------------
 SCF time:  CPU 8.43 s  wall 0.85 s
 SCF   energy in the final basis set = -78.03757875
 Total energy in the final basis set = -78.03757875
================================================================================
|                                                                              |
|                                 A D C  M A N                                 |
|                                                                              |
 ------------------------------------------------------------------------------ 
|                                                                              |
| Components:                                                                  |
|                                                                              |
| - libvmm - 1.3-trunk                                                         |
|   Authors:                                                                   |
|   Evgeny Epifanovsky, Ilya Kaliman                                           |
|                                                                              |
| - libtensor - 2.5-trunk                                                      |
|   Authors:                                                                   |
|   Evgeny Epifanovsky, Michael Wormit, Dmitry Zuev, Sam Manzer,               |
|   Ilya Kaliman                                                               |
|                                                                              |
| - libwfa - 1.1-trunk                                                         |
|   Authors:                                                                   |
|   Felix Plasser, Stefanie Mewes (Baeppler), Benjamin Thomitzni,              |
|   Michael Wormit, Feng Chen, Anna I. Krylov, Pavel Pokhilko                  |
|                                                                              |
| - libadc - 1.1-trunk                                                         |
|   Authors:                                                                   |
|   Michael Wormit, Adrian L. Dempwolff, Philipp H. P. Harbach,                |
|   Caroline Krauter, Dirk Rehn, Matthias Schneider, Jan Wenzel                |
|                                                                              |
| - adcman - 2.6-trunk                                                         |
|   Authors:                                                                   |
|   Michael Wormit, Adrian L. Dempwolff, Philipp H. P. Harbach,                |
|   Caroline Krauter, Daniel Lefrancois, Jan-Michael Mewes, Dirk Rehn,         |
|   Matthias Schneider, Jan Wenzel, Andreas Dreuw                              |
|                                                                              |
| Authors of earlier versions of ADCMAN:                                       |
| Andreas Dreuw, Jan Hendrik Starcke, Dirk Rehn, Michael Wormit                |
|                                                                              |
================================================================================

 
 Alpha MOs, Restricted
 -- Occupied --                  
-11.237 -11.235  -1.042  -0.782  -0.660  -0.567  -0.515  -0.377
  1 Ag    1 B3u   2 Ag    2 B3u   1 B2u   3 Ag    1 B1g   1 B1u                
 -- Virtual --                   
  0.074   0.086   0.090   0.098   0.099   0.119   0.140   0.188
  3 B3u   2 B2u   4 Ag    2 B1u   1 B2g   2 B1g   5 Ag    2 B2g                
  0.215   0.262   0.320   0.323   0.355   0.357   0.367   0.369
  4 B3u   6 Ag    3 B2u   5 B3u   7 Ag    4 B2u   6 B3u   3 B1u                
  0.381   0.453   0.547   0.617   0.836   0.850   0.935   0.968
  3 B1g   3 B2g   4 B1g   7 B3u   8 Ag    5 B2u   8 B3u   9 Ag                 
  1.023   1.065   1.068   1.114   1.138   1.142   1.183   1.285
  5 B1g  10 Ag    6 B2u   1 B3g   4 B1u   9 B3u   4 B2g   1 Au                 
  1.292   1.296   1.462   1.623   1.697   1.734   1.877   1.945
  5 B1u  10 B3u   6 B1g  11 Ag    7 B1g   7 B2u   5 B2g   6 B1u                
  1.964   2.017   2.077   2.099   2.183   2.333   2.412   2.475
 11 B3u   2 B3g  12 Ag    8 B2u   6 B2g  12 B3u   2 Au   13 Ag                 
  2.567   2.580   2.846   2.848   3.269   3.344
  8 B1g  13 B3u   9 B2u  14 Ag   14 B3u   9 B1g                                
 
 Beta MOs, Restricted
 -- Occupied --                  
-11.237 -11.235  -1.042  -0.782  -0.660  -0.567  -0.515  -0.377
  1 Ag    1 B3u   2 Ag    2 B3u   1 B2u   3 Ag    1 B1g   1 B1u                
 -- Virtual --                   
  0.074   0.086   0.090   0.098   0.099   0.119   0.140   0.188
  3 B3u   2 B2u   4 Ag    2 B1u   1 B2g   2 B1g   5 Ag    2 B2g                
  0.215   0.262   0.320   0.323   0.355   0.357   0.367   0.369
  4 B3u   6 Ag    3 B2u   5 B3u   7 Ag    4 B2u   6 B3u   3 B1u                
  0.381   0.453   0.547   0.617   0.836   0.850   0.935   0.968
  3 B1g   3 B2g   4 B1g   7 B3u   8 Ag    5 B2u   8 B3u   9 Ag                 
  1.023   1.065   1.068   1.114   1.138   1.142   1.183   1.285
  5 B1g  10 Ag    6 B2u   1 B3g   4 B1u   9 B3u   4 B2g   1 Au                 
  1.292   1.296   1.462   1.623   1.697   1.734   1.877   1.945
  5 B1u  10 B3u   6 B1g  11 Ag    7 B1g   7 B2u   5 B2g   6 B1u                
  1.964   2.017   2.077   2.099   2.183   2.333   2.412   2.475
 11 B3u   2 B3g  12 Ag    8 B2u   6 B2g  12 B3u   2 Au   13 Ag                 
  2.567   2.580   2.846   2.848   3.269   3.344
  8 B1g  13 B3u   9 B2u  14 Ag   14 B3u   9 B1g                                

--------------------------------------------------------------------------------
                                   HF Summary                                   
--------------------------------------------------------------------------------
  Energy:                                                  -78.0375787526 a.u.
  Dip. moment [a.u.]:                  [  -0.000000,   -0.000001,   -0.000000]
  Total dipole [Debye]:                                               0.000001
  <r^2> [a.u.]:                        [  47.711665,   22.119973,   12.003198]
  Total <r^2> [a.u.]:                                                81.834836
--------------------------------------------------------------------------------

--------------------------------------------------------------------------------
                                 MP(2) Summary                                  
--------------------------------------------------------------------------------
  MP energy contribution:                                   -0.2834068040 a.u.
  Total energy:                                            -78.3209855566 a.u.
  Dip. moment [a.u.]:                  [   0.000000,   -0.000001,    0.000000]
  Total dipole [Debye]:                                               0.000002
  <r^2> [a.u.]:                        [  47.820493,   22.151840,   11.855536]
  Total <r^2> [a.u.]:                                                81.827869

  Density matrix analysis:
  ------------------------
  NOs (alpha)
    Occupation of frontier NOs:
       0.0224   0.9685
    Number of electrons:  8.000000
  NOs (beta)
    Occupation of frontier NOs:
       0.0224   0.9685
    Number of electrons:  8.000000
  NOs (spin-traced)
    Occupation of frontier NOs:
       0.0447   1.9370
    Number of electrons: 16.000000
    Number of unpaired electrons: n_u =  0.40967, n_u,nl =  0.04609
    NO participation ratio (PR_NO): 13.968165
  
  
  Mulliken Population Analysis
  Atom  Charge (e)    Spin (e)  h+ (alpha)   h+ (beta)  e- (alpha)   e- (beta)
  ----------------------------------------------------------------------------
   1 C   -0.219458   -0.000000    0.043644    0.043644   -0.051272   -0.051272
   2 C   -0.219458   -0.000000    0.043644    0.043644   -0.051272   -0.051272
   3 H    0.109723    0.000000    0.009077    0.009077   -0.005263   -0.005263
   4 H    0.109741    0.000000    0.009077    0.009077   -0.005263   -0.005263
   5 H    0.109735   -0.000000    0.009077    0.009077   -0.005263   -0.005263
   6 H    0.109716   -0.000000    0.009077    0.009077   -0.005263   -0.005263
  ----------------------------------------------------------------------------
  Sum:    0.000000   -0.000000    0.123595    0.123595   -0.123595   -0.123595
  
  Multipole moment analysis of the density matrix
    Molecular charge:                      0.000000
    Number of electrons:                   16.000000
      Center of electronic charge [Ang]: [ -0.000000,   0.000000,  -0.000000]
    Total nuclear charge:                  16.000000
      Center of nuclear charge [Ang]:    [  0.000000,   0.000000,   0.000000]
    Dipole moment [D]:                     0.000002
      Cartesian components [D]:          [  0.000000,  -0.000002,   0.000000]
    RMS size of the density [Ang]:         1.196718
      Cartesian components [Ang]:        [  0.914846,   0.622653,   0.455514]
  
  Exciton analysis of the difference density matrix
  Total:
    <r_h> [Ang]:                  [  0.000000,  -0.000000,  -0.000000]
    <r_e> [Ang]:                  [  0.000000,   0.000000,  -0.000000]
    |<r_e - r_h>| [Ang]:            0.000000
    Hole size [Ang]:                1.411391
      Cartesian components [Ang]: [  0.959612,   0.719978,   0.743507]
    Electron size [Ang]:            1.408592
      Cartesian components [Ang]: [  1.021832,   0.744626,   0.620906]
  
  Alpha spin:
    <r_h> [Ang]:                  [  0.000000,  -0.000000,  -0.000000]
    <r_e> [Ang]:                  [  0.000000,   0.000000,  -0.000000]
    |<r_e - r_h>| [Ang]:            0.000000
    Hole size [Ang]:                1.411391
      Cartesian components [Ang]: [  0.959612,   0.719978,   0.743507]
    Electron size [Ang]:            1.408592
      Cartesian components [Ang]: [  1.021832,   0.744626,   0.620906]
  
  Beta spin:
    <r_h> [Ang]:                  [  0.000000,  -0.000000,  -0.000000]
    <r_e> [Ang]:                  [  0.000000,   0.000000,  -0.000000]
    |<r_e - r_h>| [Ang]:            0.000000
    Hole size [Ang]:                1.411391
      Cartesian components [Ang]: [  0.959612,   0.719978,   0.743507]
    Electron size [Ang]:            1.408592
      Cartesian components [Ang]: [  1.021832,   0.744626,   0.620906]
--------------------------------------------------------------------------------
Less particle guess vectors found than requested: 6 (found), 100 (requested).
Adjusting number of hole-2particle guess vectors to 94.
  Starting Davidson for electron-attached states of irrep B2g ... 
--------------------------------------------------------------------------------
   It NVec Conv  Avg. Norm  Max. Norm  Conv. states           Remark
--------------------------------------------------------------------------------
       100    0  4.648e-02  3.244e-01  0.1014 n n n n n n n n Guess.
    1  110    7  2.020e-04  1.328e-03  0.0785 n n n y y y y y 
    2  120   10  1.251e-09  9.570e-09  0.0785 y y y y y y y y Converged.
--------------------------------------------------------------------------------
  Davidson Summary: 
 ------------------------------------------------------------
  State  0: electron attachment energy =   0.0785 a.u.   (converged)
  State  1: electron attachment energy =   0.1516 a.u.   (converged)
  State  2: electron attachment energy =   0.4079 a.u.   (converged)
  State  3: electron attachment energy =   0.5406 a.u.   (converged)
  State  4: electron attachment energy =   0.5406 a.u.   (converged)
  State  5: electron attachment energy =   0.5747 a.u.   (converged)
  State  6: electron attachment energy =   0.5753 a.u.   (converged)
  State  7: electron attachment energy =   0.5818 a.u.   (converged)
  State  8: electron attachment energy =   0.5819 a.u.   (converged)
  State  9: electron attachment energy =   0.5916 a.u.   (converged)
 ------------------------------------------------------------


--------------------------------------------------------------------------------
                        Electron-Attached State Summary
--------------------------------------------------------------------------------

  Electron-attached state 1 (B2g)                                  [converged]
  ----------------------------------------------------------------------------
  Term symbol:  1 (2) B2g                                   R^2 =  9.57018e-09

  Total energy:                                            -78.2424967083 a.u.
  Electron attachment energy:                                      2.135790 eV

  Pole strength:                                                      0.957684

  Dip. moment [a.u.]:                  [  -0.000000,   -0.000001,    0.000000]
  Total dipole [Debye]:                                               0.000002
  <r^2> [a.u.]:                        [  60.933201,   26.931793,   23.572973]
  Total <r^2> [a.u.]:                                               111.437966

  V1^2 = 0.9679, V2^2 = 0.0321

  Important amplitudes:
       occ i       vir a        vir b           v   
    -------------------------------------------------
                               1 (B2g) B      0.9399
                               2 (B2g) B      0.2831
    -------------------------------------------------

  Density matrix analysis:
  ------------------------
  NOs (alpha)
    Occupation of frontier NOs:
       0.0184   0.9672
    Number of electrons:  8.000000
  NOs (beta)
    Occupation of frontier NOs:
       0.0226   0.9745
    Number of electrons:  9.000000
  NOs (spin-traced)
    Occupation of frontier NOs:
       0.0324   0.9892
    Number of electrons: 17.000000
    Number of unpaired electrons: n_u =  1.41857, n_u,nl =  1.04481
    NO participation ratio (PR_NO):  2.032062
  
  
  Mulliken Population Analysis
  Atom  Charge (e)    Spin (e)  h+ (alpha)   h+ (beta)  e- (alpha)   e- (beta)
  ----------------------------------------------------------------------------
   1 C   -0.634375    0.534460    0.076063    0.062892   -0.016291   -0.537580
   2 C   -0.634375    0.534460    0.076063    0.062892   -0.016291   -0.537580
   3 H    0.067181   -0.017230   -0.000002    0.004933   -0.029884   -0.017589
   4 H    0.067200   -0.017230   -0.000002    0.004933   -0.029884   -0.017589
   5 H    0.067193   -0.017230   -0.000002    0.004934   -0.029884   -0.017589
   6 H    0.067175   -0.017230   -0.000002    0.004934   -0.029884   -0.017589
  ----------------------------------------------------------------------------
  Sum:   -1.000000    1.000000    0.152119    0.145517   -0.152119   -1.145517
  
  Multipole moment analysis of the density matrix
    Molecular charge:                      -1.000000
    Number of electrons:                   17.000000
      Center of electronic charge [Ang]: [  0.000000,   0.000000,  -0.000000]
    Total nuclear charge:                  16.000000
      Center of nuclear charge [Ang]:    [  0.000000,   0.000000,   0.000000]
    Dipole moment [D]:                     0.000002
      Cartesian components [D]:          [ -0.000000,  -0.000002,   0.000000]
    RMS size of the density [Ang]:         1.354856
      Cartesian components [Ang]:        [  1.001852,   0.666054,   0.623137]
  
  Exciton analysis of the difference density matrix
  Total:
    <r_h> [Ang]:                  [ -0.000000,   0.000000,   0.000000]
    <r_e> [Ang]:                  [  0.000000,   0.000000,  -0.000000]
    |<r_e - r_h>| [Ang]:            0.000000
    Hole size [Ang]:                1.499594
      Cartesian components [Ang]: [  1.043911,   0.756353,   0.766136]
    Electron size [Ang]:            2.627856
      Cartesian components [Ang]: [  1.754897,   1.078297,   1.631944]
  
  Alpha spin:
    <r_h> [Ang]:                  [ -0.000000,   0.000000,   0.000000]
    <r_e> [Ang]:                  [ -0.000000,   0.000000,   0.000000]
    |<r_e - r_h>| [Ang]:            0.000000
    Hole size [Ang]:                1.426749
      Cartesian components [Ang]: [  1.018049,   0.721833,   0.691482]
    Electron size [Ang]:            2.185550
      Cartesian components [Ang]: [  1.421823,   1.260072,   1.080401]
  
  Beta spin:
    <r_h> [Ang]:                  [ -0.000000,  -0.000000,  -0.000000]
    <r_e> [Ang]:                  [  0.000000,   0.000000,  -0.000000]
    |<r_e - r_h>| [Ang]:            0.000000
    Hole size [Ang]:                1.572140
      Cartesian components [Ang]: [  1.070279,   0.790829,   0.837089]
    Electron size [Ang]:            2.681109
      Cartesian components [Ang]: [  1.794483,   1.051797,   1.691715]
  ----------------------------------------------------------------------------


  Electron-attached state 2 (B2g)                                  [converged]
  ----------------------------------------------------------------------------
  Term symbol:  2 (2) B2g                                   R^2 =  7.90154e-09

  Total energy:                                            -78.1693688375 a.u.
  Electron attachment energy:                                      4.125701 eV

  Pole strength:                                                      0.961622

  Dip. moment [a.u.]:                  [  -0.000000,   -0.000001,   -0.000000]
  Total dipole [Debye]:                                               0.000002
  <r^2> [a.u.]:                        [  67.254360,   28.993453,   30.137328]
  Total <r^2> [a.u.]:                                               126.385141

  V1^2 = 0.9690, V2^2 = 0.0310

  Important amplitudes:
       occ i       vir a        vir b           v   
    -------------------------------------------------
                               2 (B2g) B     -0.9268
                               1 (B2g) B      0.3158
    -------------------------------------------------

  Density matrix analysis:
  ------------------------
  NOs (alpha)
    Occupation of frontier NOs:
       0.0218   0.9634
    Number of electrons:  8.000000
  NOs (beta)
    Occupation of frontier NOs:
       0.0282   0.9733
    Number of electrons:  9.000000
  NOs (spin-traced)
    Occupation of frontier NOs:
       0.0422   0.9846
    Number of electrons: 17.000000
    Number of unpaired electrons: n_u =  1.43437, n_u,nl =  1.05068
    NO participation ratio (PR_NO):  2.093568
  
  
  Mulliken Population Analysis
  Atom  Charge (e)    Spin (e)  h+ (alpha)   h+ (beta)  e- (alpha)   e- (beta)
  ----------------------------------------------------------------------------
   1 C   -0.630064    0.509294    0.067122    0.045174   -0.017779   -0.505124
   2 C   -0.630064    0.509294    0.067122    0.045174   -0.017779   -0.505124
   3 H    0.065026   -0.004647    0.000145    0.001879   -0.024817   -0.021904
   4 H    0.065044   -0.004647    0.000145    0.001879   -0.024817   -0.021904
   5 H    0.065038   -0.004647    0.000145    0.001879   -0.024817   -0.021904
   6 H    0.065020   -0.004647    0.000145    0.001879   -0.024817   -0.021904
  ----------------------------------------------------------------------------
  Sum:   -1.000000    1.000000    0.134825    0.097865   -0.134825   -1.097865
  
  Multipole moment analysis of the density matrix
    Molecular charge:                      -1.000000
    Number of electrons:                   17.000000
      Center of electronic charge [Ang]: [  0.000000,   0.000000,   0.000000]
    Total nuclear charge:                  16.000000
      Center of nuclear charge [Ang]:    [  0.000000,   0.000000,   0.000000]
    Dipole moment [D]:                     0.000002
      Cartesian components [D]:          [ -0.000000,  -0.000002,  -0.000000]
    RMS size of the density [Ang]:         1.442862
      Cartesian components [Ang]:        [  1.052536,   0.691077,   0.704578]
  
  Exciton analysis of the difference density matrix
  Total:
    <r_h> [Ang]:                  [ -0.000000,   0.000000,   0.000000]
    <r_e> [Ang]:                  [  0.000000,   0.000000,   0.000000]
    |<r_e - r_h>| [Ang]:            0.000000
    Hole size [Ang]:                1.313137
      Cartesian components [Ang]: [  0.967471,   0.675612,   0.576087]
    Electron size [Ang]:            3.232261
      Cartesian components [Ang]: [  2.142767,   1.280767,   2.053216]
  
  Alpha spin:
    <r_h> [Ang]:                  [ -0.000000,   0.000000,   0.000000]
    <r_e> [Ang]:                  [ -0.000000,   0.000000,   0.000000]
    |<r_e - r_h>| [Ang]:            0.000000
    Hole size [Ang]:                1.327975
      Cartesian components [Ang]: [  0.966866,   0.664287,   0.622422]
    Electron size [Ang]:            2.139200
      Cartesian components [Ang]: [  1.403842,   1.226504,   1.049328]
  
  Beta spin:
    <r_h> [Ang]:                  [ -0.000000,  -0.000000,   0.000000]
    <r_e> [Ang]:                  [  0.000000,   0.000000,   0.000000]
    |<r_e - r_h>| [Ang]:            0.000000
    Hole size [Ang]:                1.292416
      Cartesian components [Ang]: [  0.968304,   0.690911,   0.505342]
    Electron size [Ang]:            3.341938
      Cartesian components [Ang]: [  2.216594,   1.287273,   2.144339]
  ----------------------------------------------------------------------------


  Electron-attached state 3 (B2g)                                  [converged]
  ----------------------------------------------------------------------------
  Term symbol:  3 (2) B2g                                   R^2 =  1.59966e-09

  Total energy:                                            -77.9130859796 a.u.
  Electron attachment energy:                                     11.099512 eV

  Pole strength:                                                      0.946151

  Dip. moment [a.u.]:                  [   0.000000,   -0.000001,    0.000000]
  Total dipole [Debye]:                                               0.000002
  <r^2> [a.u.]:                        [  61.949110,   27.323660,   25.475134]
  Total <r^2> [a.u.]:                                               114.747903

  V1^2 = 0.9485, V2^2 = 0.0515

  Important amplitudes:
       occ i       vir a        vir b           v   
    -------------------------------------------------
                               3 (B2g) B     -0.9592
                               2 (B2g) B     -0.1525
    -------------------------------------------------

  Density matrix analysis:
  ------------------------
  NOs (alpha)
    Occupation of frontier NOs:
       0.0355   0.9439
    Number of electrons:  8.000000
  NOs (beta)
    Occupation of frontier NOs:
       0.0399   0.9534
    Number of electrons:  9.000000
  NOs (spin-traced)
    Occupation of frontier NOs:
       0.0731   0.9563
    Number of electrons: 17.000000
    Number of unpaired electrons: n_u =  1.49823, n_u,nl =  1.08013
    NO participation ratio (PR_NO):  2.396181
  
  
  Mulliken Population Analysis
  Atom  Charge (e)    Spin (e)  h+ (alpha)   h+ (beta)  e- (alpha)   e- (beta)
  ----------------------------------------------------------------------------
   1 C   -0.641554    0.511301    0.059573    0.042772   -0.014970   -0.509471
   2 C   -0.641554    0.511301    0.059573    0.042772   -0.014970   -0.509471
   3 H    0.070771   -0.005651   -0.001196   -0.000123   -0.021105   -0.016528
   4 H    0.070789   -0.005651   -0.001196   -0.000123   -0.021105   -0.016528
   5 H    0.070783   -0.005651   -0.001196   -0.000123   -0.021105   -0.016528
   6 H    0.070765   -0.005651   -0.001196   -0.000123   -0.021105   -0.016528
  ----------------------------------------------------------------------------
  Sum:   -1.000000    1.000000    0.114361    0.085053   -0.114361   -1.085053
  
  Multipole moment analysis of the density matrix
    Molecular charge:                      -1.000000
    Number of electrons:                   17.000000
      Center of electronic charge [Ang]: [ -0.000000,   0.000000,  -0.000000]
    Total nuclear charge:                  16.000000
      Center of nuclear charge [Ang]:    [  0.000000,   0.000000,   0.000000]
    Dipole moment [D]:                     0.000002
      Cartesian components [D]:          [  0.000000,  -0.000002,   0.000000]
    RMS size of the density [Ang]:         1.374830
      Cartesian components [Ang]:        [  1.010169,   0.670882,   0.647791]
  
  Exciton analysis of the difference density matrix
  Total:
    <r_h> [Ang]:                  [ -0.000000,   0.000000,  -0.000000]
    <r_e> [Ang]:                  [  0.000000,   0.000000,  -0.000000]
    |<r_e - r_h>| [Ang]:            0.000000
    Hole size [Ang]:                1.350497
      Cartesian components [Ang]: [  0.973075,   0.699644,   0.622467]
    Electron size [Ang]:            2.826501
      Cartesian components [Ang]: [  1.859046,   1.135277,   1.801167]
  
  Alpha spin:
    <r_h> [Ang]:                  [ -0.000000,   0.000000,   0.000000]
    <r_e> [Ang]:                  [ -0.000000,   0.000000,  -0.000000]
    |<r_e - r_h>| [Ang]:            0.000000
    Hole size [Ang]:                1.248986
      Cartesian components [Ang]: [  0.921884,   0.629753,   0.559917]
    Electron size [Ang]:            2.110612
      Cartesian components [Ang]: [  1.389477,   1.201169,   1.039821]
  
  Beta spin:
    <r_h> [Ang]:                  [ -0.000000,  -0.000000,  -0.000000]
    <r_e> [Ang]:                  [  0.000000,   0.000000,  -0.000000]
    |<r_e - r_h>| [Ang]:            0.000000
    Hole size [Ang]:                1.476023
      Cartesian components [Ang]: [  1.037933,   0.783857,   0.697788]
    Electron size [Ang]:            2.891647
      Cartesian components [Ang]: [  1.901795,   1.128109,   1.863376]
  ----------------------------------------------------------------------------


  Electron-attached state 4 (B2g)                                  [converged]
  ----------------------------------------------------------------------------
  Term symbol:  4 (2) B2g                                   R^2 =  8.04057e-14

  Total energy:                                            -77.7804050121 a.u.
  Electron attachment energy:                                     14.709945 eV

  Pole strength:                                                      0.000003

  Dip. moment [a.u.]:                  [  -0.000000,   -0.000002,    0.000000]
  Total dipole [Debye]:                                               0.000004
  <r^2> [a.u.]:                        [ 122.239966,   37.821493,   26.459288]
  Total <r^2> [a.u.]:                                               186.520747

  V1^2 = 0.0000, V2^2 = 1.0000

  Important amplitudes:
       occ i       vir a        vir b           v   
    -------------------------------------------------
     1 (B1u) A    3 (B3u) A    4 (Ag ) B      0.5515
     1 (B1u) B    4 (Ag ) B    3 (B3u) B     -0.4236
    -------------------------------------------------

  Density matrix analysis:
  ------------------------
  NOs (alpha)
    Occupation of frontier NOs:
       0.3282   0.6088
    Number of electrons:  8.000000
  NOs (beta)
    Occupation of frontier NOs:
       0.3920   0.6099
    Number of electrons:  9.000000
  NOs (spin-traced)
    Occupation of frontier NOs:
       0.9380   1.0008
    Number of electrons: 17.000000
    Number of unpaired electrons: n_u =  3.27811, n_u,nl =  3.02325
    NO participation ratio (PR_NO):  3.728337
  
  
  Mulliken Population Analysis
  Atom  Charge (e)    Spin (e)  h+ (alpha)   h+ (beta)  e- (alpha)   e- (beta)
  ----------------------------------------------------------------------------
   1 C   -0.753039    0.581067    0.316914    0.177361   -0.293171   -0.734685
   2 C   -0.753039    0.581067    0.316914    0.177361   -0.293171   -0.734685
   3 H    0.126514   -0.040534    0.001835    0.001027   -0.013707    0.027635
   4 H    0.126531   -0.040533    0.001835    0.001027   -0.013707    0.027635
   5 H    0.126525   -0.040533    0.001835    0.001027   -0.013707    0.027635
   6 H    0.126507   -0.040534    0.001835    0.001027   -0.013707    0.027635
  ----------------------------------------------------------------------------
  Sum:   -1.000000    1.000000    0.641168    0.358830   -0.641168   -1.358830
  
  Multipole moment analysis of the density matrix
    Molecular charge:                      -1.000000
    Number of electrons:                   17.000000
      Center of electronic charge [Ang]: [  0.000000,   0.000000,  -0.000000]
    Total nuclear charge:                  16.000000
      Center of nuclear charge [Ang]:    [  0.000000,   0.000000,   0.000000]
    Dipole moment [D]:                     0.000004
      Cartesian components [D]:          [ -0.000000,  -0.000004,   0.000000]
    RMS size of the density [Ang]:         1.752832
      Cartesian components [Ang]:        [  1.419003,   0.789307,   0.660185]
  
  Exciton analysis of the difference density matrix
  Total:
    <r_h> [Ang]:                  [ -0.000000,   0.000000,   0.000000]
    <r_e> [Ang]:                  [  0.000000,   0.000000,   0.000000]
    |<r_e - r_h>| [Ang]:            0.000000
    Hole size [Ang]:                1.252052
      Cartesian components [Ang]: [  0.748089,   0.510160,   0.864716]
    Electron size [Ang]:            3.929673
      Cartesian components [Ang]: [  3.271027,   1.524503,   1.555186]
  
  Alpha spin:
    <r_h> [Ang]:                  [ -0.000000,   0.000000,   0.000000]
    <r_e> [Ang]:                  [ -0.000000,   0.000000,  -0.000000]
    |<r_e - r_h>| [Ang]:            0.000000
    Hole size [Ang]:                1.252052
      Cartesian components [Ang]: [  0.748089,   0.510160,   0.864716]
    Electron size [Ang]:            4.065129
      Cartesian components [Ang]: [  3.383575,   1.618343,   1.567690]
  
  Beta spin:
    <r_h> [Ang]:                  [ -0.000000,   0.000000,   0.000000]
    <r_e> [Ang]:                  [  0.000000,   0.000000,   0.000000]
    |<r_e - r_h>| [Ang]:            0.000000
    Hole size [Ang]:                1.252052
      Cartesian components [Ang]: [  0.748089,   0.510160,   0.864716]
    Electron size [Ang]:            3.864109
      Cartesian components [Ang]: [  3.216553,   1.478157,   1.549250]
  ----------------------------------------------------------------------------


  Electron-attached state 5 (B2g)                                  [converged]
  ----------------------------------------------------------------------------
  Term symbol:  5 (2) B2g                                   R^2 =  2.20240e-12

  Total energy:                                            -77.7803500842 a.u.
  Electron attachment energy:                                     14.711439 eV

  Pole strength:                                                      0.000175

  Dip. moment [a.u.]:                  [  -0.000000,   -0.000002,    0.000000]
  Total dipole [Debye]:                                               0.000004
  <r^2> [a.u.]:                        [ 122.301410,   37.819948,   26.449611]
  Total <r^2> [a.u.]:                                               186.570970

  V1^2 = 0.0002, V2^2 = 0.9998

  Important amplitudes:
       occ i       vir a        vir b           v   
    -------------------------------------------------
     1 (B1u) A    4 (Ag ) A    3 (B3u) B      0.5629
     1 (B1u) B    4 (Ag ) B    3 (B3u) B      0.3923
    -------------------------------------------------

  Density matrix analysis:
  ------------------------
  NOs (alpha)
    Occupation of frontier NOs:
       0.2776   0.6347
    Number of electrons:  8.000000
  NOs (beta)
    Occupation of frontier NOs:
       0.3670   0.6609
    Number of electrons:  9.000000
  NOs (spin-traced)
    Occupation of frontier NOs:
       0.9381   1.0006
    Number of electrons: 17.000000
    Number of unpaired electrons: n_u =  3.27907, n_u,nl =  3.02331
    NO participation ratio (PR_NO):  3.728859
  
  
  Mulliken Population Analysis
  Atom  Charge (e)    Spin (e)  h+ (alpha)   h+ (beta)  e- (alpha)   e- (beta)
  ----------------------------------------------------------------------------
   1 C   -0.752416    0.433731    0.342064    0.152133   -0.391678   -0.635478
   2 C   -0.752416    0.433731    0.342064    0.152133   -0.391678   -0.635478
   3 H    0.126202    0.033135    0.001980    0.000881    0.022827   -0.009209
   4 H    0.126220    0.033135    0.001980    0.000881    0.022826   -0.009209
   5 H    0.126214    0.033134    0.001980    0.000881    0.022827   -0.009209
   6 H    0.126196    0.033135    0.001980    0.000881    0.022827   -0.009208
  ----------------------------------------------------------------------------
  Sum:   -1.000000    1.000000    0.692050    0.307791   -0.692050   -1.307791
  
  Multipole moment analysis of the density matrix
    Molecular charge:                      -1.000000
    Number of electrons:                   17.000000
      Center of electronic charge [Ang]: [  0.000000,   0.000000,  -0.000000]
    Total nuclear charge:                  16.000000
      Center of nuclear charge [Ang]:    [  0.000000,   0.000000,   0.000000]
    Dipole moment [D]:                     0.000004
      Cartesian components [D]:          [ -0.000000,  -0.000004,   0.000000]
    RMS size of the density [Ang]:         1.753068
      Cartesian components [Ang]:        [  1.419359,   0.789291,   0.660064]
  
  Exciton analysis of the difference density matrix
  Total:
    <r_h> [Ang]:                  [ -0.000000,   0.000000,   0.000000]
    <r_e> [Ang]:                  [  0.000000,   0.000000,   0.000000]
    |<r_e - r_h>| [Ang]:            0.000000
    Hole size [Ang]:                1.252033
      Cartesian components [Ang]: [  0.748091,   0.510156,   0.864690]
    Electron size [Ang]:            3.930703
      Cartesian components [Ang]: [  3.272464,   1.524484,   1.554785]
  
  Alpha spin:
    <r_h> [Ang]:                  [ -0.000000,   0.000000,   0.000000]
    <r_e> [Ang]:                  [  0.000000,   0.000000,   0.000000]
    |<r_e - r_h>| [Ang]:            0.000000
    Hole size [Ang]:                1.252066
      Cartesian components [Ang]: [  0.748098,   0.510170,   0.864723]
    Electron size [Ang]:            3.801345
      Cartesian components [Ang]: [  3.165261,   1.432175,   1.542798]
  
  Beta spin:
    <r_h> [Ang]:                  [ -0.000000,   0.000000,   0.000000]
    <r_e> [Ang]:                  [ -0.000000,   0.000000,  -0.000000]
    |<r_e - r_h>| [Ang]:            0.000000
    Hole size [Ang]:                1.251959
      Cartesian components [Ang]: [  0.748073,   0.510126,   0.864615]
    Electron size [Ang]:            3.997463
      Cartesian components [Ang]: [  3.327796,   1.571139,   1.561091]
  ----------------------------------------------------------------------------


  Electron-attached state 6 (B2g)                                  [converged]
  ----------------------------------------------------------------------------
  Term symbol:  6 (2) B2g                                   R^2 =  4.24867e-13

  Total energy:                                            -77.7462502693 a.u.
  Electron attachment energy:                                     15.639343 eV

  Pole strength:                                                      0.001437

  Dip. moment [a.u.]:                  [   0.000000,   -0.000001,   -0.000000]
  Total dipole [Debye]:                                               0.000002
  <r^2> [a.u.]:                        [  74.561201,   36.725316,   55.578069]
  Total <r^2> [a.u.]:                                               166.864587

  V1^2 = 0.0014, V2^2 = 0.9986

  Important amplitudes:
       occ i       vir a        vir b           v   
    -------------------------------------------------
     1 (B1u) B    1 (B2g) B    2 (B1u) B      0.5645
     1 (B1u) A    2 (B1u) A    1 (B2g) B     -0.3851
    -------------------------------------------------

  Density matrix analysis:
  ------------------------
  NOs (alpha)
    Occupation of frontier NOs:
       0.2959   0.6093
    Number of electrons:  8.000000
  NOs (beta)
    Occupation of frontier NOs:
       0.3292   0.7054
    Number of electrons:  9.000000
  NOs (spin-traced)
    Occupation of frontier NOs:
       0.9072   1.0093
    Number of electrons: 17.000000
    Number of unpaired electrons: n_u =  3.20044, n_u,nl =  3.00879
    NO participation ratio (PR_NO):  3.727262
  
  
  Mulliken Population Analysis
  Atom  Charge (e)    Spin (e)  h+ (alpha)   h+ (beta)  e- (alpha)   e- (beta)
  ----------------------------------------------------------------------------
   1 C   -0.720830    0.499187    0.179692    0.316254   -0.180784   -0.816533
   2 C   -0.720830    0.499187    0.179692    0.316254   -0.180784   -0.816533
   3 H    0.110409    0.000407    0.001035    0.001838   -0.000488   -0.001698
   4 H    0.110427    0.000407    0.001035    0.001838   -0.000488   -0.001698
   5 H    0.110421    0.000407    0.001035    0.001838   -0.000488   -0.001698
   6 H    0.110402    0.000407    0.001035    0.001838   -0.000488   -0.001698
  ----------------------------------------------------------------------------
  Sum:   -1.000000    1.000000    0.363522    0.639859   -0.363522   -1.639859
  
  Multipole moment analysis of the density matrix
    Molecular charge:                      -1.000000
    Number of electrons:                   17.000000
      Center of electronic charge [Ang]: [ -0.000000,   0.000000,   0.000000]
    Total nuclear charge:                  16.000000
      Center of nuclear charge [Ang]:    [  0.000000,   0.000000,   0.000000]
    Dipole moment [D]:                     0.000002
      Cartesian components [D]:          [  0.000000,  -0.000002,  -0.000000]
    RMS size of the density [Ang]:         1.657902
      Cartesian components [Ang]:        [  1.108238,   0.777785,   0.956816]
  
  Exciton analysis of the difference density matrix
  Total:
    <r_h> [Ang]:                  [ -0.000000,   0.000000,   0.000000]
    <r_e> [Ang]:                  [ -0.000000,   0.000000,   0.000000]
    |<r_e - r_h>| [Ang]:            0.000000
    Hole size [Ang]:                1.273494
      Cartesian components [Ang]: [  0.756431,   0.521150,   0.882044]
    Electron size [Ang]:            3.563499
      Cartesian components [Ang]: [  2.006076,   1.474137,   2.549727]
  
  Alpha spin:
    <r_h> [Ang]:                  [ -0.000000,   0.000000,   0.000000]
    <r_e> [Ang]:                  [ -0.000000,   0.000000,  -0.000000]
    |<r_e - r_h>| [Ang]:            0.000000
    Hole size [Ang]:                1.278258
      Cartesian components [Ang]: [  0.758386,   0.523691,   0.885744]
    Electron size [Ang]:            3.633781
      Cartesian components [Ang]: [  1.802775,   1.579570,   2.731177]
  
  Beta spin:
    <r_h> [Ang]:                  [ -0.000000,   0.000000,   0.000000]
    <r_e> [Ang]:                  [  0.000000,   0.000000,   0.000000]
    |<r_e - r_h>| [Ang]:            0.000000
    Hole size [Ang]:                1.270779
      Cartesian components [Ang]: [  0.755318,   0.519700,   0.879935]
    Electron size [Ang]:            3.547730
      Cartesian components [Ang]: [  2.048413,   1.449727,   2.507726]
  ----------------------------------------------------------------------------


  Electron-attached state 7 (B2g)                                  [converged]
  ----------------------------------------------------------------------------
  Term symbol:  7 (2) B2g                                   R^2 =  1.03166e-12

  Total energy:                                            -77.7456854344 a.u.
  Electron attachment energy:                                     15.654712 eV

  Pole strength:                                                      0.005366

  Dip. moment [a.u.]:                  [   0.000000,   -0.000001,   -0.000000]
  Total dipole [Debye]:                                               0.000002
  <r^2> [a.u.]:                        [  74.806339,   36.848526,   55.960051]
  Total <r^2> [a.u.]:                                               167.614916

  V1^2 = 0.0054, V2^2 = 0.9946

  Important amplitudes:
       occ i       vir a        vir b           v   
    -------------------------------------------------
     1 (B1u) A    1 (B2g) A    2 (B1u) B      0.5467
     1 (B1u) A    2 (B1u) A    1 (B2g) B      0.4286
    -------------------------------------------------

  Density matrix analysis:
  ------------------------
  NOs (alpha)
    Occupation of frontier NOs:
       0.3687   0.6028
    Number of electrons:  8.000000
  NOs (beta)
    Occupation of frontier NOs:
       0.4005   0.6268
    Number of electrons:  9.000000
  NOs (spin-traced)
    Occupation of frontier NOs:
       0.9428   0.9965
    Number of electrons: 17.000000
    Number of unpaired electrons: n_u =  3.27789, n_u,nl =  3.02274
    NO participation ratio (PR_NO):  3.726907
  
  
  Mulliken Population Analysis
  Atom  Charge (e)    Spin (e)  h+ (alpha)   h+ (beta)  e- (alpha)   e- (beta)
  ----------------------------------------------------------------------------
   1 C   -0.721525    0.495292    0.478005    0.014215   -0.481393   -0.512895
   2 C   -0.721525    0.495292    0.478005    0.014215   -0.481393   -0.512895
   3 H    0.110757    0.002354    0.002764    0.000082   -0.001071   -0.000742
   4 H    0.110775    0.002354    0.002764    0.000082   -0.001071   -0.000742
   5 H    0.110769    0.002354    0.002764    0.000082   -0.001071   -0.000742
   6 H    0.110750    0.002354    0.002764    0.000082   -0.001071   -0.000742
  ----------------------------------------------------------------------------
  Sum:   -1.000000    1.000000    0.967069    0.028757   -0.967069   -1.028757
  
  Multipole moment analysis of the density matrix
    Molecular charge:                      -1.000000
    Number of electrons:                   17.000000
      Center of electronic charge [Ang]: [ -0.000000,   0.000000,   0.000000]
    Total nuclear charge:                  16.000000
      Center of nuclear charge [Ang]:    [  0.000000,   0.000000,   0.000000]
    Dipole moment [D]:                     0.000002
      Cartesian components [D]:          [  0.000000,  -0.000002,  -0.000000]
    RMS size of the density [Ang]:         1.661625
      Cartesian components [Ang]:        [  1.110059,   0.779088,   0.960098]
  
  Exciton analysis of the difference density matrix
  Total:
    <r_h> [Ang]:                  [ -0.000000,   0.000000,   0.000000]
    <r_e> [Ang]:                  [ -0.000000,   0.000000,   0.000000]
    |<r_e - r_h>| [Ang]:            0.000000
    Hole size [Ang]:                1.247904
      Cartesian components [Ang]: [  0.747164,   0.508576,   0.860442]
    Electron size [Ang]:            3.579600
      Cartesian components [Ang]: [  2.016147,   1.480238,   2.560778]
  
  Alpha spin:
    <r_h> [Ang]:                  [ -0.000000,   0.000000,   0.000000]
    <r_e> [Ang]:                  [  0.000000,   0.000000,   0.000000]
    |<r_e - r_h>| [Ang]:            0.000000
    Hole size [Ang]:                1.247520
      Cartesian components [Ang]: [  0.746812,   0.508174,   0.860427]
    Electron size [Ang]:            3.553203
      Cartesian components [Ang]: [  2.086332,   1.439650,   2.489955]
  
  Beta spin:
    <r_h> [Ang]:                  [ -0.000000,   0.000000,   0.000000]
    <r_e> [Ang]:                  [ -0.000000,   0.000000,   0.000000]
    |<r_e - r_h>| [Ang]:            0.000000
    Hole size [Ang]:                1.260757
      Cartesian components [Ang]: [  0.758899,   0.521887,   0.860938]
    Electron size [Ang]:            3.604238
      Cartesian components [Ang]: [  1.947866,   1.517402,   2.625612]
  ----------------------------------------------------------------------------


  Electron-attached state 8 (B2g)                                  [converged]
  ----------------------------------------------------------------------------
  Term symbol:  8 (2) B2g                                   R^2 =  8.52684e-15

  Total energy:                                            -77.7391365299 a.u.
  Electron attachment energy:                                     15.832917 eV

  Pole strength:                                                      0.000000

  Dip. moment [a.u.]:                  [  -0.000000,    0.000000,    0.000000]
  Total dipole [Debye]:                                               0.000000
  <r^2> [a.u.]:                        [  82.276993,   75.057869,   26.544013]
  Total <r^2> [a.u.]:                                               183.878876

  V1^2 = 0.0000, V2^2 = 1.0000

  Important amplitudes:
       occ i       vir a        vir b           v   
    -------------------------------------------------
     1 (B1u) A    2 (B1g) A    2 (B2u) B     -0.5124
     1 (B1u) B    2 (B1g) B    2 (B2u) B     -0.4866
    -------------------------------------------------

  Density matrix analysis:
  ------------------------
  NOs (alpha)
    Occupation of frontier NOs:
       0.4426   0.5256
    Number of electrons:  8.000000
  NOs (beta)
    Occupation of frontier NOs:
       0.4755   0.4953
    Number of electrons:  9.000000
  NOs (spin-traced)
    Occupation of frontier NOs:
       0.9380   1.0011
    Number of electrons: 17.000000
    Number of unpaired electrons: n_u =  3.27833, n_u,nl =  3.02322
    NO participation ratio (PR_NO):  3.728624
  
  
  Mulliken Population Analysis
  Atom  Charge (e)    Spin (e)  h+ (alpha)   h+ (beta)  e- (alpha)   e- (beta)
  ----------------------------------------------------------------------------
   1 C   -0.583160    0.476350    0.260189    0.234086   -0.203865   -0.654112
   2 C   -0.583160    0.476350    0.260189    0.234086   -0.203865   -0.654112
   3 H    0.041574    0.011825    0.001507    0.001356   -0.029669   -0.041343
   4 H    0.041592    0.011825    0.001507    0.001356   -0.029669   -0.041343
   5 H    0.041586    0.011825    0.001507    0.001356   -0.029669   -0.041343
   6 H    0.041567    0.011825    0.001507    0.001356   -0.029669   -0.041343
  ----------------------------------------------------------------------------
  Sum:   -1.000000    1.000000    0.526405    0.473595   -0.526405   -1.473595
  
  Multipole moment analysis of the density matrix
    Molecular charge:                      -1.000000
    Number of electrons:                   17.000000
      Center of electronic charge [Ang]: [  0.000000,   0.000000,  -0.000000]
    Total nuclear charge:                  16.000000
      Center of nuclear charge [Ang]:    [  0.000000,   0.000000,   0.000000]
    Dipole moment [D]:                     0.000000
      Cartesian components [D]:          [ -0.000000,   0.000000,   0.000000]
    RMS size of the density [Ang]:         1.740374
      Cartesian components [Ang]:        [  1.164169,   1.111923,   0.661241]
  
  Exciton analysis of the difference density matrix
  Total:
    <r_h> [Ang]:                  [ -0.000000,   0.000000,   0.000000]
    <r_e> [Ang]:                  [  0.000000,  -0.000000,   0.000000]
    |<r_e - r_h>| [Ang]:            0.000000
    Hole size [Ang]:                1.252053
      Cartesian components [Ang]: [  0.748088,   0.510160,   0.864718]
    Electron size [Ang]:            3.882321
      Cartesian components [Ang]: [  2.259252,   2.745493,   1.558995]
  
  Alpha spin:
    <r_h> [Ang]:                  [ -0.000000,   0.000000,   0.000000]
    <r_e> [Ang]:                  [  0.000000,  -0.000000,   0.000000]
    |<r_e - r_h>| [Ang]:            0.000000
    Hole size [Ang]:                1.252053
      Cartesian components [Ang]: [  0.748088,   0.510160,   0.864718]
    Electron size [Ang]:            4.091032
      Cartesian components [Ang]: [  2.706240,   2.675012,   1.502372]
  
  Beta spin:
    <r_h> [Ang]:                  [ -0.000000,   0.000000,   0.000000]
    <r_e> [Ang]:                  [  0.000000,  -0.000000,  -0.000000]
    |<r_e - r_h>| [Ang]:            0.000000
    Hole size [Ang]:                1.252053
      Cartesian components [Ang]: [  0.748088,   0.510160,   0.864718]
    Electron size [Ang]:            3.804990
      Cartesian components [Ang]: [  2.076380,   2.770236,   1.578730]
  ----------------------------------------------------------------------------


  Electron-attached state 9 (B2g)                                  [converged]
  ----------------------------------------------------------------------------
  Term symbol:  9 (2) B2g                                   R^2 =  1.93266e-14

  Total energy:                                            -77.7391345261 a.u.
  Electron attachment energy:                                     15.832972 eV

  Pole strength:                                                      0.000006

  Dip. moment [a.u.]:                  [  -0.000000,    0.000000,    0.000000]
  Total dipole [Debye]:                                               0.000000
  <r^2> [a.u.]:                        [  82.277017,   75.056891,   26.544759]
  Total <r^2> [a.u.]:                                               183.878668

  V1^2 = 0.0000, V2^2 = 1.0000

  Important amplitudes:
       occ i       vir a        vir b           v   
    -------------------------------------------------
     1 (B1u) A    2 (B2u) A    2 (B1g) B     -0.5768
     1 (B1u) B    2 (B1g) B    2 (B2u) B      0.3107
    -------------------------------------------------

  Density matrix analysis:
  ------------------------
  NOs (alpha)
    Occupation of frontier NOs:
       0.1638   0.6661
    Number of electrons:  8.000000
  NOs (beta)
    Occupation of frontier NOs:
       0.3354   0.7755
    Number of electrons:  9.000000
  NOs (spin-traced)
    Occupation of frontier NOs:
       0.9380   1.0010
    Number of electrons: 17.000000
    Number of unpaired electrons: n_u =  3.27846, n_u,nl =  3.02322
    NO participation ratio (PR_NO):  3.728733
  
  
  Mulliken Population Analysis
  Atom  Charge (e)    Spin (e)  h+ (alpha)   h+ (beta)  e- (alpha)   e- (beta)
  ----------------------------------------------------------------------------
   1 C   -0.583147    0.425150    0.398837    0.095436   -0.368107   -0.489855
   2 C   -0.583147    0.425150    0.398837    0.095436   -0.368107   -0.489855
   3 H    0.041568    0.037425    0.002310    0.000553   -0.017675   -0.053343
   4 H    0.041586    0.037425    0.002310    0.000553   -0.017675   -0.053343
   5 H    0.041579    0.037425    0.002310    0.000553   -0.017675   -0.053343
   6 H    0.041561    0.037425    0.002310    0.000553   -0.017675   -0.053343
  ----------------------------------------------------------------------------
  Sum:   -1.000000    1.000000    0.806914    0.193082   -0.806914   -1.193082
  
  Multipole moment analysis of the density matrix
    Molecular charge:                      -1.000000
    Number of electrons:                   17.000000
      Center of electronic charge [Ang]: [  0.000000,   0.000000,  -0.000000]
    Total nuclear charge:                  16.000000
      Center of nuclear charge [Ang]:    [  0.000000,   0.000000,   0.000000]
    Dipole moment [D]:                     0.000000
      Cartesian components [D]:          [ -0.000000,   0.000000,   0.000000]
    RMS size of the density [Ang]:         1.740373
      Cartesian components [Ang]:        [  1.164169,   1.111916,   0.661251]
  
  Exciton analysis of the difference density matrix
  Total:
    <r_h> [Ang]:                  [ -0.000000,   0.000000,   0.000000]
    <r_e> [Ang]:                  [  0.000000,  -0.000000,   0.000000]
    |<r_e - r_h>| [Ang]:            0.000000
    Hole size [Ang]:                1.252061
      Cartesian components [Ang]: [  0.748092,   0.510164,   0.864725]
    Electron size [Ang]:            3.882322
      Cartesian components [Ang]: [  2.259256,   2.745471,   1.559031]
  
  Alpha spin:
    <r_h> [Ang]:                  [ -0.000000,   0.000000,   0.000000]
    <r_e> [Ang]:                  [  0.000000,  -0.000000,  -0.000000]
    |<r_e - r_h>| [Ang]:            0.000000
    Hole size [Ang]:                1.252054
      Cartesian components [Ang]: [  0.748089,   0.510161,   0.864719]
    Electron size [Ang]:            3.739903
      Cartesian components [Ang]: [  1.912162,   2.790505,   1.594864]
  
  Beta spin:
    <r_h> [Ang]:                  [ -0.000000,   0.000000,   0.000000]
    <r_e> [Ang]:                  [  0.000000,  -0.000000,   0.000000]
    |<r_e - r_h>| [Ang]:            0.000000
    Hole size [Ang]:                1.252093
      Cartesian components [Ang]: [  0.748104,   0.510180,   0.864750]
    Electron size [Ang]:            3.975754
      Cartesian components [Ang]: [  2.466469,   2.714590,   1.534323]
  ----------------------------------------------------------------------------


  Electron-attached state 10 (B2g)                                  [converged]
  ----------------------------------------------------------------------------
  Term symbol:  10 (2) B2g                                  R^2 =  1.58626e-13

  Total energy:                                            -77.7294347042 a.u.
  Electron attachment energy:                                     16.096917 eV

  Pole strength:                                                      0.000007

  Dip. moment [a.u.]:                  [   0.000000,   -0.000001,    0.000000]
  Total dipole [Debye]:                                               0.000002
  <r^2> [a.u.]:                        [ 101.136115,   40.787395,   30.453170]
  Total <r^2> [a.u.]:                                               172.376680

  V1^2 = 0.0000, V2^2 = 1.0000

  Important amplitudes:
       occ i       vir a        vir b           v   
    -------------------------------------------------
     1 (B1u) A    3 (B3u) A    5 (Ag ) B      0.5773
     1 (B1u) B    5 (Ag ) B    3 (B3u) B     -0.2946
    -------------------------------------------------

  Density matrix analysis:
  ------------------------
  NOs (alpha)
    Occupation of frontier NOs:
       0.1609   0.6670
    Number of electrons:  8.000000
  NOs (beta)
    Occupation of frontier NOs:
       0.3338   0.7951
    Number of electrons:  9.000000
  NOs (spin-traced)
    Occupation of frontier NOs:
       0.9380   1.0008
    Number of electrons: 17.000000
    Number of unpaired electrons: n_u =  3.27789, n_u,nl =  3.02326
    NO participation ratio (PR_NO):  3.728177
  
  
  Mulliken Population Analysis
  Atom  Charge (e)    Spin (e)  h+ (alpha)   h+ (beta)  e- (alpha)   e- (beta)
  ----------------------------------------------------------------------------
   1 C   -0.768757    0.575794    0.408494    0.085778   -0.395247   -0.648325
   2 C   -0.768757    0.575794    0.408494    0.085778   -0.395247   -0.648325
   3 H    0.134373   -0.037897    0.002366    0.000497   -0.008989    0.030777
   4 H    0.134390   -0.037897    0.002366    0.000497   -0.008989    0.030776
   5 H    0.134384   -0.037897    0.002366    0.000497   -0.008989    0.030776
   6 H    0.134367   -0.037897    0.002366    0.000497   -0.008989    0.030777
  ----------------------------------------------------------------------------
  Sum:   -1.000000    1.000000    0.826451    0.173543   -0.826451   -1.173543
  
  Multipole moment analysis of the density matrix
    Molecular charge:                      -1.000000
    Number of electrons:                   17.000000
      Center of electronic charge [Ang]: [ -0.000000,   0.000000,  -0.000000]
    Total nuclear charge:                  16.000000
      Center of nuclear charge [Ang]:    [  0.000000,   0.000000,   0.000000]
    Dipole moment [D]:                     0.000002
      Cartesian components [D]:          [  0.000000,  -0.000002,   0.000000]
    RMS size of the density [Ang]:         1.685062
      Cartesian components [Ang]:        [  1.290713,   0.819671,   0.708260]
  
  Exciton analysis of the difference density matrix
  Total:
    <r_h> [Ang]:                  [ -0.000000,   0.000000,   0.000000]
    <r_e> [Ang]:                  [ -0.000000,   0.000000,  -0.000000]
    |<r_e - r_h>| [Ang]:            0.000000
    Hole size [Ang]:                1.252054
      Cartesian components [Ang]: [  0.748090,   0.510161,   0.864718]
    Electron size [Ang]:            3.669057
      Cartesian components [Ang]: [  2.782946,   1.655108,   1.725633]
  
  Alpha spin:
    <r_h> [Ang]:                  [ -0.000000,   0.000000,   0.000000]
    <r_e> [Ang]:                  [ -0.000000,   0.000000,  -0.000000]
    |<r_e - r_h>| [Ang]:            0.000000
    Hole size [Ang]:                1.252053
      Cartesian components [Ang]: [  0.748089,   0.510161,   0.864718]
    Electron size [Ang]:            3.926292
      Cartesian components [Ang]: [  3.173007,   1.638965,   1.631438]
  
  Beta spin:
    <r_h> [Ang]:                  [ -0.000000,   0.000000,   0.000000]
    <r_e> [Ang]:                  [ -0.000000,   0.000000,   0.000000]
    |<r_e - r_h>| [Ang]:            0.000000
    Hole size [Ang]:                1.252055
      Cartesian components [Ang]: [  0.748092,   0.510162,   0.864716]
    Electron size [Ang]:            3.476500
      Cartesian components [Ang]: [  2.471582,   1.666383,   1.788995]
  ----------------------------------------------------------------------------


--------------------------------------------------------------------------------
  Time of ADC calculation:  CPU 35.53 s  wall 10.28 s
================================================================================
 
 --------------------------------------------------------------
             Orbital Energies (a.u.) and Symmetries
 --------------------------------------------------------------
 
 Alpha MOs, Restricted
 -- Occupied --                  
-11.237 -11.235  -1.042  -0.782  -0.660  -0.567  -0.515  -0.377
  1 Ag    1 B3u   2 Ag    2 B3u   1 B2u   3 Ag    1 B1g   1 B1u                
 -- Virtual --                   
  0.074   0.086   0.090   0.098   0.099   0.119   0.140   0.188
  3 B3u   2 B2u   4 Ag    2 B1u   1 B2g   2 B1g   5 Ag    2 B2g                
  0.215   0.262   0.320   0.323   0.355   0.357   0.367   0.369
  4 B3u   6 Ag    3 B2u   5 B3u   7 Ag    4 B2u   6 B3u   3 B1u                
  0.381   0.453   0.547   0.617   0.836   0.850   0.935   0.968
  3 B1g   3 B2g   4 B1g   7 B3u   8 Ag    5 B2u   8 B3u   9 Ag                 
  1.023   1.065   1.068   1.114   1.138   1.142   1.183   1.285
  5 B1g  10 Ag    6 B2u   1 B3g   4 B1u   9 B3u   4 B2g   1 Au                 
  1.292   1.296   1.462   1.623   1.697   1.734   1.877   1.945
  5 B1u  10 B3u   6 B1g  11 Ag    7 B1g   7 B2u   5 B2g   6 B1u                
  1.964   2.017   2.077   2.099   2.183   2.333   2.412   2.475
 11 B3u   2 B3g  12 Ag    8 B2u   6 B2g  12 B3u   2 Au   13 Ag                 
  2.567   2.580   2.846   2.848   3.269   3.344
  8 B1g  13 B3u   9 B2u  14 Ag   14 B3u   9 B1g                                
 
 Beta MOs, Restricted
 -- Occupied --                  
-11.237 -11.235  -1.042  -0.782  -0.660  -0.567  -0.515  -0.377
  1 Ag    1 B3u   2 Ag    2 B3u   1 B2u   3 Ag    1 B1g   1 B1u                
 -- Virtual --                   
  0.074   0.086   0.090   0.098   0.099   0.119   0.140   0.188
  3 B3u   2 B2u   4 Ag    2 B1u   1 B2g   2 B1g   5 Ag    2 B2g                
  0.215   0.262   0.320   0.323   0.355   0.357   0.367   0.369
  4 B3u   6 Ag    3 B2u   5 B3u   7 Ag    4 B2u   6 B3u   3 B1u                
  0.381   0.453   0.547   0.617   0.836   0.850   0.935   0.968
  3 B1g   3 B2g   4 B1g   7 B3u   8 Ag    5 B2u   8 B3u   9 Ag                 
  1.023   1.065   1.068   1.114   1.138   1.142   1.183   1.285
  5 B1g  10 Ag    6 B2u   1 B3g   4 B1u   9 B3u   4 B2g   1 Au                 
  1.292   1.296   1.462   1.623   1.697   1.734   1.877   1.945
  5 B1u  10 B3u   6 B1g  11 Ag    7 B1g   7 B2u   5 B2g   6 B1u                
  1.964   2.017   2.077   2.099   2.183   2.333   2.412   2.475
 11 B3u   2 B3g  12 Ag    8 B2u   6 B2g  12 B3u   2 Au   13 Ag                 
  2.567   2.580   2.846   2.848   3.269   3.344
  8 B1g  13 B3u   9 B2u  14 Ag   14 B3u   9 B1g                                
 --------------------------------------------------------------
 
          Ground-State Mulliken Net Atomic Charges

     Atom                 Charge (a.u.)
  ----------------------------------------
      1 C                    -0.204201
      2 C                    -0.204201
      3 H                     0.102095
      4 H                     0.102113
      5 H                     0.102107
      6 H                     0.102088
  ----------------------------------------
  Sum of atomic charges =     0.000000

 -----------------------------------------------------------------
                    Cartesian Multipole Moments
 -----------------------------------------------------------------
    Charge (ESU x 10^10)
                 0.0000
    Dipole Moment (Debye)
         X      -0.0000      Y      -0.0000      Z      -0.0000
       Tot       0.0000
    Quadrupole Moments (Debye-Ang)
        XX     -12.9112     XY       0.0000     YY     -11.9588
        XZ       0.0000     YZ      -0.0000     ZZ     -16.1447
    Octopole Moments (Debye-Ang^2)
       XXX       0.0000    XXY      -0.0000    XYY       0.0000
       YYY      -0.0000    XXZ      -0.0000    XYZ       0.0000
       YYZ      -0.0000    XZZ       0.0000    YZZ      -0.0000
       ZZZ      -0.0000
    Hexadecapole Moments (Debye-Ang^3)
      XXXX     -68.0072   XXXY       0.0000   XXYY     -13.1707
      XYYY       0.0000   YYYY     -26.8425   XXXZ       0.0000
      XXYZ      -0.0000   XYYZ       0.0000   YYYZ      -0.0000
      XXZZ     -15.6206   XYZZ       0.0000   YYZZ      -9.0112
      XZZZ       0.0000   YZZZ      -0.0000   ZZZZ     -21.7173
 -----------------------------------------------------------------
 Total job time:  91.05s(wall), 77.46s(cpu) 
 Fri Feb 25 15:41:01 2022

        *************************************************************
        *                                                           *
        *  Thank you very much for using Q-Chem.  Have a nice day.  *
        *                                                           *
        *************************************************************


