/src/tsommerfeld/qchem/exe/qcprog.exe .input0.942308.31852.qcin.1 /src/jdavis/qchem.scratch/qchem31852/

                  Welcome to Q-Chem
     A Quantum Leap Into The Future Of Chemistry


 Q-Chem 5.4 (devel), Q-Chem, Inc., Pleasanton, CA (2021)

 E. Epifanovsky,  A. T. B. Gilbert,  Xintian Feng,  Joonho Lee,  Yuezhi Mao,  
 N. Mardirossian,  P. Pokhilko,  A. White,  M. Wormit,  M. P. Coons,  
 A. L. Dempwolff,  Zhengting Gan,  D. Hait,  P. R. Horn,  L. D. Jacobson,  
 I. Kaliman,  J. Kussmann,  A. W. Lange,  Ka Un Lao,  D. S. Levine,  Jie Liu,  
 S. C. McKenzie,  A. F. Morrison,  K. Nanda,  F. Plasser,  D. R. Rehn,  
 M. L. Vidal,  Zhi-Qiang You,  Ying Zhu,  B. Alam,  B. Albrecht,  
 A. Aldossary,  E. Alguire,  J. H. Andersen,  D. Barton,  K. Begam,  A. Behn,  
 Y. A. Bernard,  E. J. Berquist,  H. Burton,  A. Carreras,  K. Carter-Fenk,  
 R. Chakraborty,  A. D. Chien,  K. D. Closser,  V. Cofer-Shabica,  
 S. Dasgupta,  Jia Deng,  M. de Wergifosse,  M. Diedenhofen,  Hainam Do,  
 S. Ehlert,  Po-Tung Fang,  S. Fatehi,  Qingguo Feng,  T. Friedhoff,  
 J. Gayvert,  Qinghui Ge,  G. Gidofalvi,  M. Goldey,  J. Gomes,  
 C. Gonzalez-Espinoza,  S. Gulania,  A. Gunina,  M. W. D. Hanson-Heine,  
 P. H. P. Harbach,  A. W. Hauser,  M. F. Herbst,  M. Hernandez Vera,  
 M. Hodecker,  Z. C. Holden,  S. Houck,  Xunkun Huang,  Kerwin Hui,  
 B. C. Huynh,  M. Ivanov,  Hyunjun Ji,  Hanjie Jiang,  B. Kaduk,  S. Kaehler,  
 K. Khistyaev,  Jaehoon Kim,  P. Klunzinger,  Z. Koczor-Benda,  
 Joong Hoon Koh,  D. Kosenkov,  L. Koulias,  T. Kowalczyk,  C. M. Krauter,  
 K. Kue,  A. Kunitsa,  T. Kus,  A. Landau,  K. V. Lawler,  D. Lefrancois,  
 S. Lehtola,  Rain Li,  Yi-Pei Li,  Jiashu Liang,  M. Liebenthal,  
 Hung-Hsuan Lin,  You-Sheng Lin,  Fenglai Liu,  Kuan-Yu Liu,  
 M. Loipersberger,  A. Luenser,  A. Manjanath,  P. Manohar,  E. Mansoor,  
 S. F. Manzer,  Shan-Ping Mao,  A. V. Marenich,  T. Markovich,  S. Mason,  
 S. A. Maurer,  P. F. McLaughlin,  M. F. S. J. Menger,  J.-M. Mewes,  
 S. A. Mewes,  P. Morgante,  J. W. Mullinax,  K. J. Oosterbaan,  G. Paran,  
 Alexander C. Paul,  Suranjan K. Paul,  F. Pavosevic,  Zheng Pei,  S. Prager,  
 E. I. Proynov,  E. Ramos,  B. Rana,  A. E. Rask,  A. Rettig,  R. M. Richard,  
 F. Rob,  E. Rossomme,  T. Scheele,  M. Scheurer,  M. Schneider,  
 N. Sergueev,  S. M. Sharada,  W. Skomorowski,  D. W. Small,  C. J. Stein,  
 Yu-Chuan Su,  E. J. Sundstrom,  Zhen Tao,  J. Thirman,  T. Tsuchimochi,  
 N. M. Tubman,  S. P. Veccham,  O. Vydrov,  J. Wenzel,  J. Witte,  A. Yamada,  
 Kun Yao,  S. Yeganeh,  S. R. Yost,  A. Zech,  Igor Ying Zhang,  Xing Zhang,  
 Yu Zhang,  D. Zuev,  A. Aspuru-Guzik,  A. T. Bell,  N. A. Besley,  
 K. B. Bravaya,  B. R. Brooks,  D. Casanova,  Jeng-Da Chai,  S. Coriani,  
 C. J. Cramer,  A. E. DePrince, III,  R. A. DiStasio Jr.,  A. Dreuw,  
 B. D. Dunietz,  T. R. Furlani,  W. A. Goddard III,  S. Grimme,  
 S. Hammes-Schiffer,  T. Head-Gordon,  W. J. Hehre,  Chao-Ping Hsu,  
 T.-C. Jagau,  Yousung Jung,  A. Klamt,  Jing Kong,  D. S. Lambrecht,  
 WanZhen Liang,  N. J. Mayhall,  C. W. McCurdy,  J. B. Neaton,  
 C. Ochsenfeld,  J. A. Parkhill,  R. Peverati,  V. A. Rassolov,  Yihan Shao,  
 L. V. Slipchenko,  T. Stauch,  R. P. Steele,  J. E. Subotnik,  
 A. J. W. Thom,  A. Tkatchenko,  D. G. Truhlar,  T. Van Voorhis,  
 T. A. Wesolowski,  K. B. Whaley,  H. L. Woodcock III,  P. M. Zimmerman,  
 S. Faraji,  P. M. W. Gill,  M. Head-Gordon,  J. M. Herbert,  A. I. Krylov

 Additional authors for Version 5.4.1: 
 S. Kotaru,  Shaozhi Li,  Xiangyuan Li,  F. Matz,  A. Molle,  Haisheng Ren,  
 Yingli Su,  Hung-Yi Tsai,  C. Utku,  Fang Wang

 Contributors to earlier versions of Q-Chem not listed above: 
 R. D. Adamson,  B. Austin,  R. Baer,  J. Baker,  G. J. O. Beran,  
 K. Brandhorst,  S. T. Brown,  E. F. C. Byrd,  A. K. Chakraborty,  
 G. K. L. Chan,  Chun-Min Chang,  Yunqing Chen,  C.-L. Cheng,  
 Siu Hung Chien,  D. M. Chipman,  D. L. Crittenden,  H. Dachsel,  
 R. J. Doerksen,  A. D. Dutoi,  R. G. Edgar,  J. Fosso-Tande,  
 L. Fusti-Molnar,  D. Ghosh,  A. Ghysels,  A. Golubeva-Zadorozhnaya,  
 J. Gonthier,  M. S. Gordon,  S. R. Gwaltney,  G. Hawkins,  J. E. Herr,  
 A. Heyden,  S. Hirata,  E. G. Hohenstein,  G. Kedziora,  F. J. Keil,  
 C. Kelley,  Jihan Kim,  R. A. King,  R. Z. Khaliullin,  P. P. Korambath,  
 W. Kurlancheek,  A. Laurent,  A. M. Lee,  M. S. Lee,  S. V. Levchenko,  
 Ching Yeh Lin,  D. Liotard,  E. Livshits,  R. C. Lochan,  I. Lotan,  
 L. A. Martinez-Martinez,  P. E. Maslen,  N. Nair,  D. P. O'Neill,  
 D. Neuhauser,  E. Neuscamman,  C. M. Oana,  R. Olivares-Amaya,  R. Olson,  
 T. M. Perrine,  B. Peters,  P. A. Pieniazek,  A. Prociuk,  Y. M. Rhee,  
 J. Ritchie,  M. A. Rohrdanz,  E. Rosta,  N. J. Russ,  H. F. Schaefer III,  
 M. W. Schmidt,  N. E. Schultz,  S. Sharma,  N. Shenvi,  C. D. Sherrill,  
 A. C. Simmonett,  A. Sodt,  T. Stein,  D. Stuck,  K. S. Thanthiriwatte,  
 V. Vanovschi,  L. Vogt,  Tao Wang,  A. Warshel,  M. A. Watson,  
 C. F. Williams,  Q. Wu,  X. Xu,  Jun Yang,  W. Zhang,  Yan Zhao

 Please cite Q-Chem as follows:
 Y. Shao et al., Mol. Phys. 113, 184-215 (2015)
 DOI: 10.1080/00268976.2014.952696

 Q-Chem 5.4.1 for Intel X86 EM64T Linux

 Parts of Q-Chem use Armadillo 9.900.5 (Nocturnal Misbehaviour).
 http://arma.sourceforge.net/

 Q-Chem begins on Fri Feb 25 15:06:01 2022  

 Host: node01
0

     Scratch files written to /src/jdavis/qchem.scratch/qchem31852//
 Processing $rem in /src/tsommerfeld/qchem/config/preferences:
 Processing $rem in /home/jdavis/.qchemrc:

 Checking the input file for inconsistencies... 	...done.

--------------------------------------------------------------
User input:
--------------------------------------------------------------
$molecule
0 1
C        -0.6645000000    0.0000000000   -0.2082049804
C         0.6645000000    0.0000000000   -0.2082049804
H        -1.1590800000    0.0000000000    0.7541440196
H         1.1590800000    0.0000000000    0.7541440196
H        -1.1590800000    0.0000000000   -1.1705529804
H         1.1590800000    0.0000000000   -1.1705529804
$end

$rem
   METHOD adc(2)
   BASIS gen
   PURECART 11
   EA_STATES [0,0,10,0,0,0,0,0]
   scf_convergence 8
   ADC_DAVIDSON_MAXITER 120
   ADC_DAVIDSON_MAXSUBSPACE 200
   adc_nguess_singles 100
   THRESH 14
   S2THRESH 14
   adc_davidson_conv 5
   adc_davidson_thresh 14
   THREADS 10
   MEM_TOTAL 95000
   STATE_ANALYSIS TRUE
$end
$basis
C 1
S   9   1.00
      6.665000D+03           6.920000D-04
      1.000000D+03           5.329000D-03
      2.280000D+02           2.707700D-02
      6.471000D+01           1.017180D-01
      2.106000D+01           2.747400D-01
      7.495000D+00           4.485640D-01
      2.797000D+00           2.850740D-01
      5.215000D-01           1.520400D-02
      1.596000D-01          -3.191000D-03
S   9   1.00
      6.665000D+03          -1.460000D-04
      1.000000D+03          -1.154000D-03
      2.280000D+02          -5.725000D-03
      6.471000D+01          -2.331200D-02
      2.106000D+01          -6.395500D-02
      7.495000D+00          -1.499810D-01
      2.797000D+00          -1.272620D-01
      5.215000D-01           5.445290D-01
      1.596000D-01           5.804960D-01
S   1   1.00
      1.596000D-01           1.000000D+00
S   1   1.00
      0.0469000              1.0000000
P   4   1.00
      9.439000D+00           3.810900D-02
      2.002000D+00           2.094800D-01
      5.456000D-01           5.085570D-01
      1.517000D-01           4.688420D-01
P   1   1.00
      1.517000D-01           1.000000D+00
P   1   1.00
      0.0408423      1.0000000
P   1   1.00
      0.0204212      1.0000000
D   1   1.00
      5.500000D-01           1.0000000
****
C 2
S   9   1.00
      6.665000D+03           6.920000D-04
      1.000000D+03           5.329000D-03
      2.280000D+02           2.707700D-02
      6.471000D+01           1.017180D-01
      2.106000D+01           2.747400D-01
      7.495000D+00           4.485640D-01
      2.797000D+00           2.850740D-01
      5.215000D-01           1.520400D-02
      1.596000D-01          -3.191000D-03
S   9   1.00
      6.665000D+03          -1.460000D-04
      1.000000D+03          -1.154000D-03
      2.280000D+02          -5.725000D-03
      6.471000D+01          -2.331200D-02
      2.106000D+01          -6.395500D-02
      7.495000D+00          -1.499810D-01
      2.797000D+00          -1.272620D-01
      5.215000D-01           5.445290D-01
      1.596000D-01           5.804960D-01
S   1   1.00
      1.596000D-01           1.000000D+00
S   1   1.00
      0.0469000              1.0000000
P   4   1.00
      9.439000D+00           3.810900D-02
      2.002000D+00           2.094800D-01
      5.456000D-01           5.085570D-01
      1.517000D-01           4.688420D-01
P   1   1.00
      1.517000D-01           1.000000D+00
P   1   1.00
      0.0408423      1.0000000
P   1   1.00
      0.0204212      1.0000000
D   1   1.00
      5.500000D-01           1.0000000
****
H 3
cc-pVDZ
****
H 4
cc-pVDZ
****
H 5
cc-pVDZ
****
H 6
cc-pVDZ
****
$end
--------------------------------------------------------------
 Atom   2: ( -0.6645000000, -0.0000001250,  0.0000000000)
         ->( -0.6645000000,  0.0000001250, -0.0000000000)
 Atom   1: (  0.6645000000, -0.0000001250, -0.0000000000)
         ->(  0.6645000000,  0.0000000000,  0.0000000000)
 Atom   6: ( -1.1590800000, -0.9623481250, -0.0000000000)
         ->( -1.1590800000, -0.9623488750,  0.0000000000)
 Atom   5: (  1.1590800000, -0.9623481250, -0.0000000000)
         ->(  1.1590800000, -0.9623488750, -0.0000000000)
 ----------------------------------------------------------------
             Standard Nuclear Orientation (Angstroms)
    I     Atom           X                Y                Z
 ----------------------------------------------------------------
    1      C       0.6645000000     0.0000000000     0.0000000000
    2      C      -0.6645000000     0.0000001250    -0.0000000000
    3      H       1.1590800000     0.9623488750     0.0000000000
    4      H      -1.1590800000     0.9623488750     0.0000000000
    5      H       1.1590800000    -0.9623488750    -0.0000000000
    6      H      -1.1590800000    -0.9623488750     0.0000000000
 ----------------------------------------------------------------
 Molecular Point Group                 D2h   NOp =  8
 Largest Abelian Subgroup              D2h   NOp =  8
 Nuclear Repulsion Energy =          33.58921667 hartrees
 There are        8 alpha and        8 beta electrons
 Requested basis set is non-standard
 There are 30 shells and 62 basis functions
 Total memory of 95000 MB is distributed as follows: 
   MEM_STATIC is set to 192 MB
   QALLOC/CCMAN JOB total memory use is  94808 MB
 Warning: actual memory use might exceed 95000 MB

 Total QAlloc Memory Limit  95000 MB
 Mega-Array Size       188 MB
 MEM_STATIC part       192 MB

                       Distance Matrix (Angstroms)
             C (  1)   C (  2)   H (  3)   H (  4)   H (  5)
   C (  2)  1.329000
   H (  3)  1.082000  2.061931
   H (  4)  2.061931  1.082000  2.318160
   H (  5)  1.082000  2.061931  1.924698  3.013026
   H (  6)  2.061931  1.082000  3.013026  1.924698  2.318160
 
 A cutoff of  1.0D-14 yielded    465 shell pairs
 There are      2009 function pairs (      2146 Cartesian)
 Smallest overlap matrix eigenvalue = 2.65E-04

 Scale SEOQF with 1.000000e-01/1.000000e-01/1.000000e-01

 Standard Electronic Orientation quadrupole field applied
 Nucleus-field energy     =     0.0000000006 hartrees
 ================ Generating on-the-fly SAD Guess ================
Attempting to make child job directory: /src/jdavis/qchem.scratch/qchem31852//Frg1/
Attempting to make child job directory: /src/jdavis/qchem.scratch/qchem31852//Frg2/
Creating input file /src/jdavis/qchem.scratch/qchem31852/Frg1.input
using default PutDataFrgm: nothing
calling putenv with: QCSCRATCH=/src/jdavis/qchem.scratch/qchem31852/ 
Spawning Job For Fragment 0
Done Job For Fragment 0
calling putenv with: QCSCRATCH=/src/jdavis/qchem.scratch 
calling putenv with: QCTHREADS=1 
Creating input file /src/jdavis/qchem.scratch/qchem31852/Frg2.input
using default PutDataFrgm: nothing
calling putenv with: QCSCRATCH=/src/jdavis/qchem.scratch/qchem31852/ 
Spawning Job For Fragment 1
Done Job For Fragment 1
calling putenv with: QCSCRATCH=/src/jdavis/qchem.scratch 
calling putenv with: QCTHREADS=1 
 Time for running child jobs:  CPU 1.77 s  wall 53.16 s
 ============= Method Specific SAD Guess Constructed =============
 Guess from on-the-fly superposition of atomic densities
 Warning: Energy on first SCF cycle will be non-variational
 A restricted Hartree-Fock SCF calculation will be
 performed using Pulay DIIS extrapolation
 SCF converges when DIIS error is below 1.0E-08
 using 10 threads for integral computing
 -------------------------------------------------------
 OpenMP Integral computing Module                
 Release: version 1.0, May 2013, Q-Chem Inc. Pittsburgh 
 -------------------------------------------------------
 ---------------------------------------
  Cycle       Energy         DIIS Error
 ---------------------------------------
    1     -78.4569806658      7.95E-02
    2     -78.0142668626      5.76E-03
    3     -78.0356150453      1.51E-03
    4     -78.0372499806      5.02E-04
    5     -78.0374207301      6.01E-05
    6     -78.0374255492      1.25E-05
    7     -78.0374259079      2.96E-06
    8     -78.0374259593      2.67E-07
    9     -78.0374259641      3.20E-08
   10     -78.0374259645      3.50E-09 Convergence criterion met
 ---------------------------------------
 SCF time:  CPU 8.41 s  wall 0.85 s
 SCF   energy in the final basis set = -78.03742596
 Total energy in the final basis set = -78.03742596
================================================================================
|                                                                              |
|                                 A D C  M A N                                 |
|                                                                              |
 ------------------------------------------------------------------------------ 
|                                                                              |
| Components:                                                                  |
|                                                                              |
| - libvmm - 1.3-trunk                                                         |
|   Authors:                                                                   |
|   Evgeny Epifanovsky, Ilya Kaliman                                           |
|                                                                              |
| - libtensor - 2.5-trunk                                                      |
|   Authors:                                                                   |
|   Evgeny Epifanovsky, Michael Wormit, Dmitry Zuev, Sam Manzer,               |
|   Ilya Kaliman                                                               |
|                                                                              |
| - libwfa - 1.1-trunk                                                         |
|   Authors:                                                                   |
|   Felix Plasser, Stefanie Mewes (Baeppler), Benjamin Thomitzni,              |
|   Michael Wormit, Feng Chen, Anna I. Krylov, Pavel Pokhilko                  |
|                                                                              |
| - libadc - 1.1-trunk                                                         |
|   Authors:                                                                   |
|   Michael Wormit, Adrian L. Dempwolff, Philipp H. P. Harbach,                |
|   Caroline Krauter, Dirk Rehn, Matthias Schneider, Jan Wenzel                |
|                                                                              |
| - adcman - 2.6-trunk                                                         |
|   Authors:                                                                   |
|   Michael Wormit, Adrian L. Dempwolff, Philipp H. P. Harbach,                |
|   Caroline Krauter, Daniel Lefrancois, Jan-Michael Mewes, Dirk Rehn,         |
|   Matthias Schneider, Jan Wenzel, Andreas Dreuw                              |
|                                                                              |
| Authors of earlier versions of ADCMAN:                                       |
| Andreas Dreuw, Jan Hendrik Starcke, Dirk Rehn, Michael Wormit                |
|                                                                              |
================================================================================

 
 Alpha MOs, Restricted
 -- Occupied --                  
-11.237 -11.235  -1.042  -0.782  -0.661  -0.567  -0.515  -0.377
  1 Ag    1 B3u   2 Ag    2 B3u   1 B2u   3 Ag    1 B1g   1 B1u                
 -- Virtual --                   
  0.039   0.041   0.047   0.059   0.060   0.063   0.100   0.130
  3 B3u   2 B2u   2 B1u   2 B1g   1 B2g   4 Ag    5 Ag    2 B2g                
  0.136   0.168   0.186   0.193   0.205   0.266   0.269   0.284
  4 B3u   3 B2u   3 B1g   3 B1u   6 Ag    7 Ag    3 B2g   5 B3u                
  0.340   0.349   0.468   0.507   0.693   0.777   0.860   0.875
  4 B2u   6 B3u   4 B1g   7 B3u   8 Ag    5 B2u   9 Ag    4 B1u                
  0.898   0.931   0.932   0.982   1.028   1.049   1.114   1.283
  6 B2u   4 B2g   8 B3u   9 B3u  10 Ag    5 B1g   1 B3g   5 B1u                
  1.284   1.333   1.346   1.607   1.615   1.698   1.849   1.914
  1 Au   10 B3u   6 B1g  11 Ag    7 B1g   7 B2u   5 B2g  11 B3u                
  1.938   1.985   2.017   2.042   2.171   2.284   2.412   2.442
  6 B1u  12 Ag    2 B3g   8 B2u   6 B2g  12 B3u   2 Au   13 Ag                 
  2.549   2.572   2.800   2.800   3.261   3.340
  8 B1g  13 B3u   9 B2u  14 Ag   14 B3u   9 B1g                                
 
 Beta MOs, Restricted
 -- Occupied --                  
-11.237 -11.235  -1.042  -0.782  -0.661  -0.567  -0.515  -0.377
  1 Ag    1 B3u   2 Ag    2 B3u   1 B2u   3 Ag    1 B1g   1 B1u                
 -- Virtual --                   
  0.039   0.041   0.047   0.059   0.060   0.063   0.100   0.130
  3 B3u   2 B2u   2 B1u   2 B1g   1 B2g   4 Ag    5 Ag    2 B2g                
  0.136   0.168   0.186   0.193   0.205   0.266   0.269   0.284
  4 B3u   3 B2u   3 B1g   3 B1u   6 Ag    7 Ag    3 B2g   5 B3u                
  0.340   0.349   0.468   0.507   0.693   0.777   0.860   0.875
  4 B2u   6 B3u   4 B1g   7 B3u   8 Ag    5 B2u   9 Ag    4 B1u                
  0.898   0.931   0.932   0.982   1.028   1.049   1.114   1.283
  6 B2u   4 B2g   8 B3u   9 B3u  10 Ag    5 B1g   1 B3g   5 B1u                
  1.284   1.333   1.346   1.607   1.615   1.698   1.849   1.914
  1 Au   10 B3u   6 B1g  11 Ag    7 B1g   7 B2u   5 B2g  11 B3u                
  1.938   1.985   2.017   2.042   2.171   2.284   2.412   2.442
  6 B1u  12 Ag    2 B3g   8 B2u   6 B2g  12 B3u   2 Au   13 Ag                 
  2.549   2.572   2.800   2.800   3.261   3.340
  8 B1g  13 B3u   9 B2u  14 Ag   14 B3u   9 B1g                                

--------------------------------------------------------------------------------
                                   HF Summary                                   
--------------------------------------------------------------------------------
  Energy:                                                  -78.0374259645 a.u.
  Dip. moment [a.u.]:                  [   0.000000,   -0.000001,   -0.000000]
  Total dipole [Debye]:                                               0.000001
  <r^2> [a.u.]:                        [  47.729370,   22.121563,   11.984291]
  Total <r^2> [a.u.]:                                                81.835224
--------------------------------------------------------------------------------

--------------------------------------------------------------------------------
                                 MP(2) Summary                                  
--------------------------------------------------------------------------------
  MP energy contribution:                                   -0.2817162216 a.u.
  Total energy:                                            -78.3191421860 a.u.
  Dip. moment [a.u.]:                  [   0.000000,   -0.000001,    0.000000]
  Total dipole [Debye]:                                               0.000002
  <r^2> [a.u.]:                        [  47.837783,   22.154098,   11.838817]
  Total <r^2> [a.u.]:                                                81.830697

  Density matrix analysis:
  ------------------------
  NOs (alpha)
    Occupation of frontier NOs:
       0.0223   0.9686
    Number of electrons:  8.000000
  NOs (beta)
    Occupation of frontier NOs:
       0.0223   0.9686
    Number of electrons:  8.000000
  NOs (spin-traced)
    Occupation of frontier NOs:
       0.0447   1.9372
    Number of electrons: 16.000000
    Number of unpaired electrons: n_u =  0.40866, n_u,nl =  0.04590
    NO participation ratio (PR_NO): 13.958284
  
  
  Mulliken Population Analysis
  Atom  Charge (e)    Spin (e)  h+ (alpha)   h+ (beta)  e- (alpha)   e- (beta)
  ----------------------------------------------------------------------------
   1 C   -0.166232    0.000000    0.043921    0.043921   -0.051066   -0.051066
   2 C   -0.166232    0.000000    0.043921    0.043921   -0.051066   -0.051066
   3 H    0.083115    0.000000    0.008801    0.008801   -0.005228   -0.005228
   4 H    0.083119    0.000000    0.008801    0.008801   -0.005228   -0.005228
   5 H    0.083116    0.000000    0.008801    0.008801   -0.005228   -0.005228
   6 H    0.083113    0.000000    0.008801    0.008801   -0.005228   -0.005228
  ----------------------------------------------------------------------------
  Sum:    0.000000    0.000000    0.123045    0.123045   -0.123045   -0.123045
  
  Multipole moment analysis of the density matrix
    Molecular charge:                      0.000000
    Number of electrons:                   16.000000
      Center of electronic charge [Ang]: [ -0.000000,   0.000000,  -0.000000]
    Total nuclear charge:                  16.000000
      Center of nuclear charge [Ang]:    [  0.000000,   0.000000,   0.000000]
    Dipole moment [D]:                     0.000002
      Cartesian components [D]:          [  0.000000,  -0.000002,   0.000000]
    RMS size of the density [Ang]:         1.196739
      Cartesian components [Ang]:        [  0.915012,   0.622685,   0.455193]
  
  Exciton analysis of the difference density matrix
  Total:
    <r_h> [Ang]:                  [  0.000000,  -0.000000,   0.000000]
    <r_e> [Ang]:                  [  0.000000,   0.000001,  -0.000000]
    |<r_e - r_h>| [Ang]:            0.000001
    Hole size [Ang]:                1.422393
      Cartesian components [Ang]: [  0.967840,   0.728049,   0.745944]
    Electron size [Ang]:            1.420581
      Cartesian components [Ang]: [  1.029601,   0.753045,   0.625217]
  
  Alpha spin:
    <r_h> [Ang]:                  [  0.000000,  -0.000000,   0.000000]
    <r_e> [Ang]:                  [  0.000000,   0.000001,  -0.000000]
    |<r_e - r_h>| [Ang]:            0.000001
    Hole size [Ang]:                1.422393
      Cartesian components [Ang]: [  0.967840,   0.728049,   0.745944]
    Electron size [Ang]:            1.420581
      Cartesian components [Ang]: [  1.029601,   0.753045,   0.625217]
  
  Beta spin:
    <r_h> [Ang]:                  [  0.000000,  -0.000000,   0.000000]
    <r_e> [Ang]:                  [  0.000000,   0.000001,  -0.000000]
    |<r_e - r_h>| [Ang]:            0.000001
    Hole size [Ang]:                1.422393
      Cartesian components [Ang]: [  0.967840,   0.728049,   0.745944]
    Electron size [Ang]:            1.420581
      Cartesian components [Ang]: [  1.029601,   0.753045,   0.625217]
--------------------------------------------------------------------------------
Less particle guess vectors found than requested: 6 (found), 100 (requested).
Adjusting number of hole-2particle guess vectors to 94.
  Starting Davidson for electron-attached states of irrep B2g ... 
--------------------------------------------------------------------------------
   It NVec Conv  Avg. Norm  Max. Norm  Conv. states           Remark
--------------------------------------------------------------------------------
       100    0  4.240e-02  3.354e-01  0.0598 n n n n n n n n Guess.
    1  110    7  1.068e-04  8.086e-04  0.0568 n n n y y y y y 
    2  120   10  5.575e-10  4.979e-09  0.0568 y y y y y y y y Converged.
--------------------------------------------------------------------------------
  Davidson Summary: 
 ------------------------------------------------------------
  State  0: electron attachment energy =   0.0568 a.u.   (converged)
  State  1: electron attachment energy =   0.0962 a.u.   (converged)
  State  2: electron attachment energy =   0.2318 a.u.   (converged)
  State  3: electron attachment energy =   0.4768 a.u.   (converged)
  State  4: electron attachment energy =   0.4768 a.u.   (converged)
  State  5: electron attachment energy =   0.4790 a.u.   (converged)
  State  6: electron attachment energy =   0.4790 a.u.   (converged)
  State  7: electron attachment energy =   0.4837 a.u.   (converged)
  State  8: electron attachment energy =   0.4838 a.u.   (converged)
  State  9: electron attachment energy =   0.5158 a.u.   (converged)
 ------------------------------------------------------------


--------------------------------------------------------------------------------
                        Electron-Attached State Summary
--------------------------------------------------------------------------------

  Electron-attached state 1 (B2g)                                  [converged]
  ----------------------------------------------------------------------------
  Term symbol:  1 (2) B2g                                   R^2 =  2.09993e-09

  Total energy:                                            -78.2623283280 a.u.
  Electron attachment energy:                                      1.545984 eV

  Pole strength:                                                      0.991888

  Dip. moment [a.u.]:                  [   0.000000,   -0.000001,   -0.000000]
  Total dipole [Debye]:                                               0.000003
  <r^2> [a.u.]:                        [  87.654516,   35.325066,   50.821863]
  Total <r^2> [a.u.]:                                               173.801445

  V1^2 = 0.9937, V2^2 = 0.0063

  Important amplitudes:
       occ i       vir a        vir b           v   
    -------------------------------------------------
                               1 (B2g) B     -0.9833
                               2 (B2g) B     -0.1557
    -------------------------------------------------

  Density matrix analysis:
  ------------------------
  NOs (alpha)
    Occupation of frontier NOs:
       0.0217   0.9680
    Number of electrons:  8.000000
  NOs (beta)
    Occupation of frontier NOs:
       0.0240   0.9690
    Number of electrons:  9.000000
  NOs (spin-traced)
    Occupation of frontier NOs:
       0.0438   0.9961
    Number of electrons: 17.000000
    Number of unpaired electrons: n_u =  1.41380, n_u,nl =  1.04672
    NO participation ratio (PR_NO):  1.990253
  
  
  Mulliken Population Analysis
  Atom  Charge (e)    Spin (e)  h+ (alpha)   h+ (beta)  e- (alpha)   e- (beta)
  ----------------------------------------------------------------------------
   1 C   -0.648379    0.507297    0.013604    0.013773   -0.001029   -0.508495
   2 C   -0.648379    0.507297    0.013604    0.013773   -0.001029   -0.508495
   3 H    0.074189   -0.003648   -0.000202    0.000900   -0.006086   -0.003539
   4 H    0.074192   -0.003648   -0.000202    0.000900   -0.006086   -0.003539
   5 H    0.074190   -0.003648   -0.000202    0.000900   -0.006086   -0.003539
   6 H    0.074187   -0.003648   -0.000202    0.000900   -0.006086   -0.003539
  ----------------------------------------------------------------------------
  Sum:   -1.000000    1.000000    0.026401    0.031147   -0.026401   -1.031147
  
  Multipole moment analysis of the density matrix
    Molecular charge:                      -1.000000
    Number of electrons:                   17.000000
      Center of electronic charge [Ang]: [ -0.000000,   0.000000,   0.000000]
    Total nuclear charge:                  16.000000
      Center of nuclear charge [Ang]:    [  0.000000,   0.000000,   0.000000]
    Dipole moment [D]:                     0.000003
      Cartesian components [D]:          [  0.000000,  -0.000003,  -0.000000]
    RMS size of the density [Ang]:         1.692012
      Cartesian components [Ang]:        [  1.201611,   0.762813,   0.914960]
  
  Exciton analysis of the difference density matrix
  Total:
    <r_h> [Ang]:                  [  0.000000,  -0.000000,  -0.000000]
    <r_e> [Ang]:                  [  0.000000,   0.000000,   0.000000]
    |<r_e - r_h>| [Ang]:            0.000000
    Hole size [Ang]:                1.792526
      Cartesian components [Ang]: [  1.159949,   0.899727,   1.028669]
    Electron size [Ang]:            4.952556
      Cartesian components [Ang]: [  3.258267,   1.879254,   3.221787]
  
  Alpha spin:
    <r_h> [Ang]:                  [  0.000000,   0.000000,  -0.000000]
    <r_e> [Ang]:                  [  0.000000,   0.000000,   0.000000]
    |<r_e - r_h>| [Ang]:            0.000000
    Hole size [Ang]:                1.483701
      Cartesian components [Ang]: [  1.047175,   0.781283,   0.703129]
    Electron size [Ang]:            2.203522
      Cartesian components [Ang]: [  1.407511,   1.325482,   1.057127]
  
  Beta spin:
    <r_h> [Ang]:                  [  0.000000,  -0.000000,  -0.000000]
    <r_e> [Ang]:                  [  0.000000,   0.000000,   0.000000]
    |<r_e - r_h>| [Ang]:            0.000000
    Hole size [Ang]:                2.017616
      Cartesian components [Ang]: [  1.247583,   0.989079,   1.239368]
    Electron size [Ang]:            5.003149
      Cartesian components [Ang]: [  3.292020,   1.891305,   3.258384]
  ----------------------------------------------------------------------------


  Electron-attached state 2 (B2g)                                  [converged]
  ----------------------------------------------------------------------------
  Term symbol:  2 (2) B2g                                   R^2 =  4.97926e-09

  Total energy:                                            -78.2229142392 a.u.
  Electron attachment energy:                                      2.618496 eV

  Pole strength:                                                      0.947251

  Dip. moment [a.u.]:                  [  -0.000000,   -0.000001,    0.000000]
  Total dipole [Debye]:                                               0.000002
  <r^2> [a.u.]:                        [  65.819107,   28.737460,   28.310474]
  Total <r^2> [a.u.]:                                               122.867041

  V1^2 = 0.9599, V2^2 = 0.0401

  Important amplitudes:
       occ i       vir a        vir b           v   
    -------------------------------------------------
                               2 (B2g) B      0.9429
                               3 (B2g) B      0.1974
    -------------------------------------------------

  Density matrix analysis:
  ------------------------
  NOs (alpha)
    Occupation of frontier NOs:
       0.0179   0.9671
    Number of electrons:  8.000000
  NOs (beta)
    Occupation of frontier NOs:
       0.0204   0.9769
    Number of electrons:  9.000000
  NOs (spin-traced)
    Occupation of frontier NOs:
       0.0279   0.9889
    Number of electrons: 17.000000
    Number of unpaired electrons: n_u =  1.41747, n_u,nl =  1.04392
    NO participation ratio (PR_NO):  2.030716
  
  
  Mulliken Population Analysis
  Atom  Charge (e)    Spin (e)  h+ (alpha)   h+ (beta)  e- (alpha)   e- (beta)
  ----------------------------------------------------------------------------
   1 C   -0.551370    0.529720    0.096106    0.072761   -0.023816   -0.530190
   2 C   -0.551370    0.529720    0.096106    0.072761   -0.023816   -0.530190
   3 H    0.025685   -0.014860    0.000528    0.005475   -0.036673   -0.026760
   4 H    0.025688   -0.014860    0.000528    0.005474   -0.036674   -0.026760
   5 H    0.025686   -0.014860    0.000528    0.005475   -0.036674   -0.026760
   6 H    0.025683   -0.014860    0.000528    0.005475   -0.036673   -0.026760
  ----------------------------------------------------------------------------
  Sum:   -1.000000    1.000000    0.194325    0.167420   -0.194325   -1.167420
  
  Multipole moment analysis of the density matrix
    Molecular charge:                      -1.000000
    Number of electrons:                   17.000000
      Center of electronic charge [Ang]: [  0.000000,   0.000000,  -0.000000]
    Total nuclear charge:                  16.000000
      Center of nuclear charge [Ang]:    [  0.000000,   0.000000,   0.000000]
    Dipole moment [D]:                     0.000002
      Cartesian components [D]:          [ -0.000000,  -0.000002,   0.000000]
    RMS size of the density [Ang]:         1.422638
      Cartesian components [Ang]:        [  1.041244,   0.688020,   0.682889]
  
  Exciton analysis of the difference density matrix
  Total:
    <r_h> [Ang]:                  [  0.000000,   0.000000,  -0.000000]
    <r_e> [Ang]:                  [  0.000000,   0.000000,  -0.000000]
    |<r_e - r_h>| [Ang]:            0.000000
    Hole size [Ang]:                1.445873
      Cartesian components [Ang]: [  1.021678,   0.733473,   0.713259]
    Electron size [Ang]:            2.999007
      Cartesian components [Ang]: [  1.993730,   1.223402,   1.876798]
  
  Alpha spin:
    <r_h> [Ang]:                  [  0.000000,   0.000000,   0.000000]
    <r_e> [Ang]:                  [  0.000000,   0.000000,   0.000000]
    |<r_e - r_h>| [Ang]:            0.000000
    Hole size [Ang]:                1.422198
      Cartesian components [Ang]: [  1.012520,   0.714141,   0.698178]
    Electron size [Ang]:            2.185514
      Cartesian components [Ang]: [  1.425897,   1.250722,   1.085811]
  
  Beta spin:
    <r_h> [Ang]:                  [  0.000000,  -0.000000,  -0.000000]
    <r_e> [Ang]:                  [  0.000000,   0.000000,  -0.000000]
    |<r_e - r_h>| [Ang]:            0.000000
    Hole size [Ang]:                1.472875
      Cartesian components [Ang]: [  1.032206,   0.755292,   0.730374]
    Electron size [Ang]:            3.113854
      Cartesian components [Ang]: [  2.073206,   1.218795,   1.977989]
  ----------------------------------------------------------------------------


  Electron-attached state 3 (B2g)                                  [converged]
  ----------------------------------------------------------------------------
  Term symbol:  3 (2) B2g                                   R^2 =  1.36983e-09

  Total energy:                                            -78.0873473820 a.u.
  Electron attachment energy:                                      6.307457 eV

  Pole strength:                                                      0.961860

  Dip. moment [a.u.]:                  [   0.000000,   -0.000001,   -0.000000]
  Total dipole [Debye]:                                               0.000003
  <r^2> [a.u.]:                        [  68.726444,   29.483295,   31.912455]
  Total <r^2> [a.u.]:                                               130.122194

  V1^2 = 0.9667, V2^2 = 0.0333

  Important amplitudes:
       occ i       vir a        vir b           v   
    -------------------------------------------------
                               3 (B2g) B     -0.9523
                               2 (B2g) B      0.2369
    -------------------------------------------------

  Density matrix analysis:
  ------------------------
  NOs (alpha)
    Occupation of frontier NOs:
       0.0257   0.9586
    Number of electrons:  8.000000
  NOs (beta)
    Occupation of frontier NOs:
       0.0316   0.9715
    Number of electrons:  9.000000
  NOs (spin-traced)
    Occupation of frontier NOs:
       0.0518   0.9779
    Number of electrons: 17.000000
    Number of unpaired electrons: n_u =  1.45040, n_u,nl =  1.05770
    NO participation ratio (PR_NO):  2.165126
  
  
  Mulliken Population Analysis
  Atom  Charge (e)    Spin (e)  h+ (alpha)   h+ (beta)  e- (alpha)   e- (beta)
  ----------------------------------------------------------------------------
   1 C   -0.586393    0.507771    0.059580    0.039744   -0.015775   -0.503710
   2 C   -0.586393    0.507771    0.059580    0.039744   -0.015775   -0.503710
   3 H    0.043196   -0.003886   -0.000154    0.000494   -0.021748   -0.018510
   4 H    0.043199   -0.003886   -0.000154    0.000494   -0.021748   -0.018510
   5 H    0.043197   -0.003886   -0.000154    0.000494   -0.021748   -0.018510
   6 H    0.043194   -0.003886   -0.000154    0.000494   -0.021748   -0.018510
  ----------------------------------------------------------------------------
  Sum:   -1.000000    1.000000    0.118543    0.081462   -0.118543   -1.081462
  
  Multipole moment analysis of the density matrix
    Molecular charge:                      -1.000000
    Number of electrons:                   17.000000
      Center of electronic charge [Ang]: [ -0.000000,   0.000000,   0.000000]
    Total nuclear charge:                  16.000000
      Center of nuclear charge [Ang]:    [  0.000000,   0.000000,   0.000000]
    Dipole moment [D]:                     0.000003
      Cartesian components [D]:          [  0.000000,  -0.000003,  -0.000000]
    RMS size of the density [Ang]:         1.464038
      Cartesian components [Ang]:        [  1.063993,   0.696891,   0.725031]
  
  Exciton analysis of the difference density matrix
  Total:
    <r_h> [Ang]:                  [  0.000000,   0.000000,   0.000000]
    <r_e> [Ang]:                  [  0.000000,   0.000000,   0.000000]
    |<r_e - r_h>| [Ang]:            0.000000
    Hole size [Ang]:                1.331026
      Cartesian components [Ang]: [  0.972647,   0.688827,   0.592542]
    Electron size [Ang]:            3.400647
      Cartesian components [Ang]: [  2.243251,   1.337683,   2.177803]
  
  Alpha spin:
    <r_h> [Ang]:                  [  0.000000,   0.000000,   0.000000]
    <r_e> [Ang]:                  [  0.000000,   0.000000,   0.000000]
    |<r_e - r_h>| [Ang]:            0.000000
    Hole size [Ang]:                1.305746
      Cartesian components [Ang]: [  0.949339,   0.655214,   0.611901]
    Electron size [Ang]:            2.132273
      Cartesian components [Ang]: [  1.402709,   1.221638,   1.042398]
  
  Beta spin:
    <r_h> [Ang]:                  [  0.000000,  -0.000000,   0.000000]
    <r_e> [Ang]:                  [  0.000000,   0.000000,   0.000000]
    |<r_e - r_h>| [Ang]:            0.000000
    Hole size [Ang]:                1.366979
      Cartesian components [Ang]: [  1.005601,   0.734999,   0.563183]
    Electron size [Ang]:            3.511929
      Cartesian components [Ang]: [  2.316915,   1.349796,   2.267950]
  ----------------------------------------------------------------------------


  Electron-attached state 4 (B2g)                                  [converged]
  ----------------------------------------------------------------------------
  Term symbol:  4 (2) B2g                                   R^2 =  1.88409e-14

  Total energy:                                            -77.8423846000 a.u.
  Electron attachment energy:                                     12.973234 eV

  Pole strength:                                                      0.000000

  Dip. moment [a.u.]:                  [  -0.000000,   -0.000001,    0.000000]
  Total dipole [Debye]:                                               0.000002
  <r^2> [a.u.]:                        [ 113.672820,  122.420567,   42.651798]
  Total <r^2> [a.u.]:                                               278.745184

  V1^2 = 0.0000, V2^2 = 1.0000

  Important amplitudes:
       occ i       vir a        vir b           v   
    -------------------------------------------------
     1 (B1u) A    2 (B1g) A    2 (B2u) B     -0.5226
     1 (B1u) B    2 (B1g) B    2 (B2u) B     -0.4738
    -------------------------------------------------

  Density matrix analysis:
  ------------------------
  NOs (alpha)
    Occupation of frontier NOs:
       0.4182   0.5463
    Number of electrons:  8.000000
  NOs (beta)
    Occupation of frontier NOs:
       0.4539   0.5200
    Number of electrons:  9.000000
  NOs (spin-traced)
    Occupation of frontier NOs:
       0.9382   1.0002
    Number of electrons: 17.000000
    Number of unpaired electrons: n_u =  3.28185, n_u,nl =  3.02339
    NO participation ratio (PR_NO):  3.730781
  
  
  Mulliken Population Analysis
  Atom  Charge (e)    Spin (e)  h+ (alpha)   h+ (beta)  e- (alpha)   e- (beta)
  ----------------------------------------------------------------------------
   1 C   -0.622401    0.477448    0.272292    0.221911   -0.261652   -0.688720
   2 C   -0.622401    0.477448    0.272292    0.221911   -0.261652   -0.688720
   3 H    0.061200    0.011276    0.001597    0.001302   -0.006917   -0.017897
   4 H    0.061203    0.011276    0.001597    0.001302   -0.006917   -0.017897
   5 H    0.061201    0.011276    0.001597    0.001302   -0.006917   -0.017897
   6 H    0.061198    0.011276    0.001597    0.001302   -0.006917   -0.017897
  ----------------------------------------------------------------------------
  Sum:   -1.000000    1.000000    0.550972    0.449028   -0.550972   -1.449028
  
  Multipole moment analysis of the density matrix
    Molecular charge:                      -1.000000
    Number of electrons:                   17.000000
      Center of electronic charge [Ang]: [  0.000000,   0.000000,  -0.000000]
    Total nuclear charge:                  16.000000
      Center of nuclear charge [Ang]:    [  0.000000,   0.000000,   0.000000]
    Dipole moment [D]:                     0.000002
      Cartesian components [D]:          [ -0.000000,  -0.000002,   0.000000]
    RMS size of the density [Ang]:         2.142794
      Cartesian components [Ang]:        [  1.368375,   1.420051,   0.838196]
  
  Exciton analysis of the difference density matrix
  Total:
    <r_h> [Ang]:                  [ -0.000000,   0.000000,   0.000000]
    <r_e> [Ang]:                  [  0.000000,  -0.000000,  -0.000000]
    |<r_e - r_h>| [Ang]:            0.000000
    Hole size [Ang]:                1.251982
      Cartesian components [Ang]: [  0.747871,   0.510313,   0.864713]
    Electron size [Ang]:            5.324901
      Cartesian components [Ang]: [  3.081801,   3.764166,   2.165207]
  
  Alpha spin:
    <r_h> [Ang]:                  [ -0.000000,   0.000000,   0.000000]
    <r_e> [Ang]:                  [ -0.000000,  -0.000000,  -0.000000]
    |<r_e - r_h>| [Ang]:            0.000000
    Hole size [Ang]:                1.251982
      Cartesian components [Ang]: [  0.747871,   0.510313,   0.864713]
    Electron size [Ang]:            5.654493
      Cartesian components [Ang]: [  3.711600,   3.697719,   2.127015]
  
  Beta spin:
    <r_h> [Ang]:                  [ -0.000000,   0.000000,   0.000000]
    <r_e> [Ang]:                  [  0.000000,   0.000000,  -0.000000]
    |<r_e - r_h>| [Ang]:            0.000000
    Hole size [Ang]:                1.251982
      Cartesian components [Ang]: [  0.747871,   0.510313,   0.864713]
    Electron size [Ang]:            5.194093
      Cartesian components [Ang]: [  2.805472,   3.789126,   2.179553]
  ----------------------------------------------------------------------------


  Electron-attached state 5 (B2g)                                  [converged]
  ----------------------------------------------------------------------------
  Term symbol:  5 (2) B2g                                   R^2 =  1.33946e-14

  Total energy:                                            -77.8423843689 a.u.
  Electron attachment energy:                                     12.973240 eV

  Pole strength:                                                      0.000001

  Dip. moment [a.u.]:                  [  -0.000000,   -0.000001,    0.000000]
  Total dipole [Debye]:                                               0.000002
  <r^2> [a.u.]:                        [ 113.672918,  122.420707,   42.651880]
  Total <r^2> [a.u.]:                                               278.745506

  V1^2 = 0.0000, V2^2 = 1.0000

  Important amplitudes:
       occ i       vir a        vir b           v   
    -------------------------------------------------
     1 (B1u) A    2 (B2u) A    2 (B1g) B     -0.5753
     1 (B1u) B    2 (B1g) B    2 (B2u) B      0.3299
    -------------------------------------------------

  Density matrix analysis:
  ------------------------
  NOs (alpha)
    Occupation of frontier NOs:
       0.1881   0.6621
    Number of electrons:  8.000000
  NOs (beta)
    Occupation of frontier NOs:
       0.3383   0.7511
    Number of electrons:  9.000000
  NOs (spin-traced)
    Occupation of frontier NOs:
       0.9382   1.0002
    Number of electrons: 17.000000
    Number of unpaired electrons: n_u =  3.28185, n_u,nl =  3.02339
    NO participation ratio (PR_NO):  3.730783
  
  
  Mulliken Population Analysis
  Atom  Charge (e)    Spin (e)  h+ (alpha)   h+ (beta)  e- (alpha)   e- (beta)
  ----------------------------------------------------------------------------
   1 C   -0.622401    0.485602    0.386645    0.107557   -0.371929   -0.578443
   2 C   -0.622401    0.485602    0.386645    0.107557   -0.371929   -0.578443
   3 H    0.061200    0.007199    0.002268    0.000631   -0.009626   -0.015188
   4 H    0.061203    0.007199    0.002268    0.000631   -0.009626   -0.015188
   5 H    0.061201    0.007199    0.002268    0.000631   -0.009626   -0.015188
   6 H    0.061197    0.007199    0.002268    0.000631   -0.009626   -0.015188
  ----------------------------------------------------------------------------
  Sum:   -1.000000    1.000000    0.782361    0.217638   -0.782361   -1.217638
  
  Multipole moment analysis of the density matrix
    Molecular charge:                      -1.000000
    Number of electrons:                   17.000000
      Center of electronic charge [Ang]: [  0.000000,   0.000000,  -0.000000]
    Total nuclear charge:                  16.000000
      Center of nuclear charge [Ang]:    [  0.000000,   0.000000,   0.000000]
    Dipole moment [D]:                     0.000002
      Cartesian components [D]:          [ -0.000000,  -0.000002,   0.000000]
    RMS size of the density [Ang]:         2.142795
      Cartesian components [Ang]:        [  1.368375,   1.420052,   0.838196]
  
  Exciton analysis of the difference density matrix
  Total:
    <r_h> [Ang]:                  [ -0.000000,   0.000000,   0.000000]
    <r_e> [Ang]:                  [  0.000000,  -0.000000,  -0.000000]
    |<r_e - r_h>| [Ang]:            0.000000
    Hole size [Ang]:                1.251982
      Cartesian components [Ang]: [  0.747871,   0.510313,   0.864713]
    Electron size [Ang]:            5.324906
      Cartesian components [Ang]: [  3.081804,   3.764169,   2.165210]
  
  Alpha spin:
    <r_h> [Ang]:                  [ -0.000000,   0.000000,   0.000000]
    <r_e> [Ang]:                  [  0.000000,   0.000000,   0.000000]
    |<r_e - r_h>| [Ang]:            0.000000
    Hole size [Ang]:                1.251982
      Cartesian components [Ang]: [  0.747871,   0.510313,   0.864713]
    Electron size [Ang]:            5.079979
      Cartesian components [Ang]: [  2.546457,   3.810270,   2.191707]
  
  Beta spin:
    <r_h> [Ang]:                  [ -0.000000,   0.000000,   0.000000]
    <r_e> [Ang]:                  [ -0.000000,  -0.000000,  -0.000000]
    |<r_e - r_h>| [Ang]:            0.000000
    Hole size [Ang]:                1.251981
      Cartesian components [Ang]: [  0.747871,   0.510313,   0.864712]
    Electron size [Ang]:            5.476500
      Cartesian components [Ang]: [  3.381344,   3.734248,   2.148012]
  ----------------------------------------------------------------------------


  Electron-attached state 6 (B2g)                                  [converged]
  ----------------------------------------------------------------------------
  Term symbol:  6 (2) B2g                                   R^2 =  8.93948e-13

  Total energy:                                            -77.8400956253 a.u.
  Electron attachment energy:                                     13.035520 eV

  Pole strength:                                                      0.000000

  Dip. moment [a.u.]:                  [   0.000000,   -0.000001,    0.000000]
  Total dipole [Debye]:                                               0.000003
  <r^2> [a.u.]:                        [ 175.368870,   58.260365,   45.950629]
  Total <r^2> [a.u.]:                                               279.579863

  V1^2 = 0.0000, V2^2 = 1.0000

  Important amplitudes:
       occ i       vir a        vir b           v   
    -------------------------------------------------
     1 (B1u) A    4 (Ag ) A    3 (B3u) B      0.5754
     1 (B1u) A    3 (B3u) A    4 (Ag ) B      0.3286
    -------------------------------------------------

  Density matrix analysis:
  ------------------------
  NOs (alpha)
    Occupation of frontier NOs:
       0.2160   0.6623
    Number of electrons:  8.000000
  NOs (beta)
    Occupation of frontier NOs:
       0.3378   0.7842
    Number of electrons:  9.000000
  NOs (spin-traced)
    Occupation of frontier NOs:
       0.9382   1.0001
    Number of electrons: 17.000000
    Number of unpaired electrons: n_u =  3.28240, n_u,nl =  3.02342
    NO participation ratio (PR_NO):  3.731305
  
  
  Mulliken Population Analysis
  Atom  Charge (e)    Spin (e)  h+ (alpha)   h+ (beta)  e- (alpha)   e- (beta)
  ----------------------------------------------------------------------------
   1 C   -0.672048    0.495076    0.433968    0.060234   -0.439338   -0.560680
   2 C   -0.672048    0.495076    0.433968    0.060234   -0.439338   -0.560680
   3 H    0.086023    0.002462    0.002545    0.000353    0.000140   -0.000130
   4 H    0.086027    0.002462    0.002545    0.000353    0.000140   -0.000130
   5 H    0.086025    0.002462    0.002545    0.000353    0.000140   -0.000130
   6 H    0.086021    0.002462    0.002545    0.000353    0.000140   -0.000130
  ----------------------------------------------------------------------------
  Sum:   -1.000000    1.000000    0.878118    0.121882   -0.878118   -1.121882
  
  Multipole moment analysis of the density matrix
    Molecular charge:                      -1.000000
    Number of electrons:                   17.000000
      Center of electronic charge [Ang]: [ -0.000000,   0.000000,  -0.000000]
    Total nuclear charge:                  16.000000
      Center of nuclear charge [Ang]:    [  0.000000,   0.000000,   0.000000]
    Dipole moment [D]:                     0.000003
      Cartesian components [D]:          [  0.000000,  -0.000003,   0.000000]
    RMS size of the density [Ang]:         2.145999
      Cartesian components [Ang]:        [  1.699624,   0.979633,   0.870006]
  
  Exciton analysis of the difference density matrix
  Total:
    <r_h> [Ang]:                  [ -0.000000,   0.000000,   0.000000]
    <r_e> [Ang]:                  [ -0.000000,   0.000000,   0.000000]
    |<r_e - r_h>| [Ang]:            0.000000
    Hole size [Ang]:                1.251982
      Cartesian components [Ang]: [  0.747871,   0.510313,   0.864713]
    Electron size [Ang]:            5.335863
      Cartesian components [Ang]: [  4.258618,   2.277192,   2.269362]
  
  Alpha spin:
    <r_h> [Ang]:                  [ -0.000000,   0.000000,   0.000000]
    <r_e> [Ang]:                  [  0.000000,   0.000000,   0.000000]
    |<r_e - r_h>| [Ang]:            0.000000
    Hole size [Ang]:                1.251982
      Cartesian components [Ang]: [  0.747871,   0.510313,   0.864713]
    Electron size [Ang]:            5.357031
      Cartesian components [Ang]: [  4.359278,   2.207590,   2.195683]
  
  Beta spin:
    <r_h> [Ang]:                  [ -0.000000,   0.000000,   0.000000]
    <r_e> [Ang]:                  [ -0.000000,   0.000000,  -0.000000]
    |<r_e - r_h>| [Ang]:            0.000000
    Hole size [Ang]:                1.251982
      Cartesian components [Ang]: [  0.747871,   0.510313,   0.864713]
    Electron size [Ang]:            5.319235
      Cartesian components [Ang]: [  4.178138,   2.330220,   2.325404]
  ----------------------------------------------------------------------------


  Electron-attached state 7 (B2g)                                  [converged]
  ----------------------------------------------------------------------------
  Term symbol:  7 (2) B2g                                   R^2 =  1.88276e-12

  Total energy:                                            -77.8400951556 a.u.
  Electron attachment energy:                                     13.035533 eV

  Pole strength:                                                      0.000001

  Dip. moment [a.u.]:                  [   0.000000,   -0.000001,    0.000000]
  Total dipole [Debye]:                                               0.000003
  <r^2> [a.u.]:                        [ 175.370366,   58.259803,   45.950138]
  Total <r^2> [a.u.]:                                               279.580307

  V1^2 = 0.0000, V2^2 = 1.0000

  Important amplitudes:
       occ i       vir a        vir b           v   
    -------------------------------------------------
     1 (B1u) B    4 (Ag ) B    3 (B3u) B     -0.5219
     1 (B1u) A    3 (B3u) A    4 (Ag ) B      0.4747
    -------------------------------------------------

  Density matrix analysis:
  ------------------------
  NOs (alpha)
    Occupation of frontier NOs:
       0.4509   0.5138
    Number of electrons:  8.000000
  NOs (beta)
    Occupation of frontier NOs:
       0.4244   0.5494
    Number of electrons:  9.000000
  NOs (spin-traced)
    Occupation of frontier NOs:
       0.9382   1.0001
    Number of electrons: 17.000000
    Number of unpaired electrons: n_u =  3.28240, n_u,nl =  3.02342
    NO participation ratio (PR_NO):  3.731310
  
  
  Mulliken Population Analysis
  Atom  Charge (e)    Spin (e)  h+ (alpha)   h+ (beta)  e- (alpha)   e- (beta)
  ----------------------------------------------------------------------------
   1 C   -0.672053    0.501077    0.224968    0.269234   -0.227341   -0.772682
   2 C   -0.672053    0.501077    0.224968    0.269234   -0.227341   -0.772682
   3 H    0.086026   -0.000538    0.001320    0.001579   -0.000133    0.000145
   4 H    0.086029   -0.000538    0.001320    0.001579   -0.000133    0.000145
   5 H    0.086027   -0.000538    0.001320    0.001579   -0.000133    0.000145
   6 H    0.086023   -0.000538    0.001320    0.001579   -0.000133    0.000145
  ----------------------------------------------------------------------------
  Sum:   -1.000000    1.000000    0.455215    0.544784   -0.455215   -1.544784
  
  Multipole moment analysis of the density matrix
    Molecular charge:                      -1.000000
    Number of electrons:                   17.000000
      Center of electronic charge [Ang]: [ -0.000000,   0.000000,  -0.000000]
    Total nuclear charge:                  16.000000
      Center of nuclear charge [Ang]:    [  0.000000,   0.000000,   0.000000]
    Dipole moment [D]:                     0.000003
      Cartesian components [D]:          [  0.000000,  -0.000003,   0.000000]
    RMS size of the density [Ang]:         2.146001
      Cartesian components [Ang]:        [  1.699632,   0.979628,   0.870002]
  
  Exciton analysis of the difference density matrix
  Total:
    <r_h> [Ang]:                  [ -0.000000,   0.000000,   0.000000]
    <r_e> [Ang]:                  [ -0.000000,   0.000000,   0.000000]
    |<r_e - r_h>| [Ang]:            0.000000
    Hole size [Ang]:                1.251981
      Cartesian components [Ang]: [  0.747871,   0.510313,   0.864713]
    Electron size [Ang]:            5.335870
      Cartesian components [Ang]: [  4.258644,   2.277175,   2.269347]
  
  Alpha spin:
    <r_h> [Ang]:                  [ -0.000000,   0.000000,   0.000000]
    <r_e> [Ang]:                  [ -0.000000,   0.000000,  -0.000000]
    |<r_e - r_h>| [Ang]:            0.000000
    Hole size [Ang]:                1.251982
      Cartesian components [Ang]: [  0.747871,   0.510313,   0.864713]
    Electron size [Ang]:            5.294801
      Cartesian components [Ang]: [  4.057412,   2.405769,   2.405119]
  
  Beta spin:
    <r_h> [Ang]:                  [ -0.000000,   0.000000,   0.000000]
    <r_e> [Ang]:                  [  0.000000,   0.000000,   0.000000]
    |<r_e - r_h>| [Ang]:            0.000000
    Hole size [Ang]:                1.251981
      Cartesian components [Ang]: [  0.747871,   0.510313,   0.864712]
    Electron size [Ang]:            5.347912
      Cartesian components [Ang]: [  4.316153,   2.237872,   2.227761]
  ----------------------------------------------------------------------------


  Electron-attached state 8 (B2g)                                  [converged]
  ----------------------------------------------------------------------------
  Term symbol:  8 (2) B2g                                   R^2 =  3.49396e-14

  Total energy:                                            -77.8353930482 a.u.
  Electron attachment energy:                                     13.163484 eV

  Pole strength:                                                      0.000067

  Dip. moment [a.u.]:                  [   0.000000,   -0.000001,    0.000000]
  Total dipole [Debye]:                                               0.000003
  <r^2> [a.u.]:                        [ 108.498618,   53.349384,  105.538390]
  Total <r^2> [a.u.]:                                               267.386392

  V1^2 = 0.0001, V2^2 = 0.9999

  Important amplitudes:
       occ i       vir a        vir b           v   
    -------------------------------------------------
     1 (B1u) A    2 (B1u) A    1 (B2g) B      0.5700
     1 (B1u) B    1 (B2g) B    2 (B1u) B     -0.3643
    -------------------------------------------------

  Density matrix analysis:
  ------------------------
  NOs (alpha)
    Occupation of frontier NOs:
       0.2355   0.6502
    Number of electrons:  8.000000
  NOs (beta)
    Occupation of frontier NOs:
       0.3503   0.7033
    Number of electrons:  9.000000
  NOs (spin-traced)
    Occupation of frontier NOs:
       0.9372   1.0009
    Number of electrons: 17.000000
    Number of unpaired electrons: n_u =  3.27831, n_u,nl =  3.02286
    NO participation ratio (PR_NO):  3.729818
  
  
  Mulliken Population Analysis
  Atom  Charge (e)    Spin (e)  h+ (alpha)   h+ (beta)  e- (alpha)   e- (beta)
  ----------------------------------------------------------------------------
   1 C   -0.671759    0.497132    0.363006    0.131228   -0.367203   -0.632557
   2 C   -0.671759    0.497132    0.363006    0.131228   -0.367203   -0.632557
   3 H    0.085879    0.001434    0.002129    0.000770   -0.000030   -0.000105
   4 H    0.085883    0.001434    0.002129    0.000770   -0.000030   -0.000105
   5 H    0.085880    0.001434    0.002129    0.000770   -0.000030   -0.000105
   6 H    0.085877    0.001434    0.002129    0.000770   -0.000030   -0.000105
  ----------------------------------------------------------------------------
  Sum:   -1.000000    1.000000    0.734528    0.265536   -0.734528   -1.265536
  
  Multipole moment analysis of the density matrix
    Molecular charge:                      -1.000000
    Number of electrons:                   17.000000
      Center of electronic charge [Ang]: [ -0.000000,   0.000000,  -0.000000]
    Total nuclear charge:                  16.000000
      Center of nuclear charge [Ang]:    [  0.000000,   0.000000,   0.000000]
    Dipole moment [D]:                     0.000003
      Cartesian components [D]:          [  0.000000,  -0.000003,   0.000000]
    RMS size of the density [Ang]:         2.098680
      Cartesian components [Ang]:        [  1.336869,   0.937435,   1.318505]
  
  Exciton analysis of the difference density matrix
  Total:
    <r_h> [Ang]:                  [ -0.000000,   0.000000,   0.000000]
    <r_e> [Ang]:                  [  0.000000,   0.000000,   0.000000]
    |<r_e - r_h>| [Ang]:            0.000000
    Hole size [Ang]:                1.252616
      Cartesian components [Ang]: [  0.748132,   0.510643,   0.865211]
    Electron size [Ang]:            5.173409
      Cartesian components [Ang]: [  2.961920,   2.120855,   3.673304]
  
  Alpha spin:
    <r_h> [Ang]:                  [ -0.000000,   0.000000,   0.000000]
    <r_e> [Ang]:                  [  0.000000,   0.000000,   0.000000]
    |<r_e - r_h>| [Ang]:            0.000000
    Hole size [Ang]:                1.252557
      Cartesian components [Ang]: [  0.748102,   0.510606,   0.865173]
    Electron size [Ang]:            5.019256
      Cartesian components [Ang]: [  2.435807,   2.194322,   3.800622]
  
  Beta spin:
    <r_h> [Ang]:                  [ -0.000000,   0.000000,   0.000000]
    <r_e> [Ang]:                  [  0.000000,   0.000000,   0.000000]
    |<r_e - r_h>| [Ang]:            0.000000
    Hole size [Ang]:                1.252780
      Cartesian components [Ang]: [  0.748215,   0.510744,   0.865317]
    Electron size [Ang]:            5.260809
      Cartesian components [Ang]: [  3.228191,   2.077023,   3.597341]
  ----------------------------------------------------------------------------


  Electron-attached state 9 (B2g)                                  [converged]
  ----------------------------------------------------------------------------
  Term symbol:  9 (2) B2g                                   R^2 =  8.89684e-15

  Total energy:                                            -77.8353745725 a.u.
  Electron attachment energy:                                     13.163986 eV

  Pole strength:                                                      0.000142

  Dip. moment [a.u.]:                  [   0.000000,   -0.000001,    0.000000]
  Total dipole [Debye]:                                               0.000003
  <r^2> [a.u.]:                        [ 108.509291,   53.351068,  105.543051]
  Total <r^2> [a.u.]:                                               267.403409

  V1^2 = 0.0001, V2^2 = 0.9999

  Important amplitudes:
       occ i       vir a        vir b           v   
    -------------------------------------------------
     1 (B1u) A    1 (B2g) A    2 (B1u) B      0.5394
     1 (B1u) B    1 (B2g) B    2 (B1u) B      0.4478
    -------------------------------------------------

  Density matrix analysis:
  ------------------------
  NOs (alpha)
    Occupation of frontier NOs:
       0.3706   0.5824
    Number of electrons:  8.000000
  NOs (beta)
    Occupation of frontier NOs:
       0.4185   0.5676
    Number of electrons:  9.000000
  NOs (spin-traced)
    Occupation of frontier NOs:
       0.9369   1.0009
    Number of electrons: 17.000000
    Number of unpaired electrons: n_u =  3.27780, n_u,nl =  3.02277
    NO participation ratio (PR_NO):  3.729990
  
  
  Mulliken Population Analysis
  Atom  Charge (e)    Spin (e)  h+ (alpha)   h+ (beta)  e- (alpha)   e- (beta)
  ----------------------------------------------------------------------------
   1 C   -0.671755    0.498868    0.295932    0.198287   -0.299260   -0.700483
   2 C   -0.671755    0.498868    0.295932    0.198287   -0.299260   -0.700483
   3 H    0.085877    0.000566    0.001736    0.001163   -0.000072   -0.000065
   4 H    0.085880    0.000566    0.001736    0.001163   -0.000072   -0.000065
   5 H    0.085878    0.000566    0.001736    0.001163   -0.000072   -0.000065
   6 H    0.085874    0.000566    0.001736    0.001163   -0.000072   -0.000065
  ----------------------------------------------------------------------------
  Sum:   -1.000000    1.000000    0.598807    0.401226   -0.598807   -1.401226
  
  Multipole moment analysis of the density matrix
    Molecular charge:                      -1.000000
    Number of electrons:                   17.000000
      Center of electronic charge [Ang]: [ -0.000000,   0.000000,  -0.000000]
    Total nuclear charge:                  16.000000
      Center of nuclear charge [Ang]:    [  0.000000,   0.000000,   0.000000]
    Dipole moment [D]:                     0.000003
      Cartesian components [D]:          [  0.000000,  -0.000003,   0.000000]
    RMS size of the density [Ang]:         2.098747
      Cartesian components [Ang]:        [  1.336935,   0.937450,   1.318534]
  
  Exciton analysis of the difference density matrix
  Total:
    <r_h> [Ang]:                  [ -0.000000,   0.000000,   0.000000]
    <r_e> [Ang]:                  [  0.000000,   0.000000,   0.000000]
    |<r_e - r_h>| [Ang]:            0.000000
    Hole size [Ang]:                1.252220
      Cartesian components [Ang]: [  0.747983,   0.510451,   0.864879]
    Electron size [Ang]:            5.173628
      Cartesian components [Ang]: [  2.962175,   2.120903,   3.673380]
  
  Alpha spin:
    <r_h> [Ang]:                  [ -0.000000,   0.000000,   0.000000]
    <r_e> [Ang]:                  [  0.000000,   0.000000,   0.000000]
    |<r_e - r_h>| [Ang]:            0.000000
    Hole size [Ang]:                1.251059
      Cartesian components [Ang]: [  0.747560,   0.509890,   0.863895]
    Electron size [Ang]:            5.357338
      Cartesian components [Ang]: [  3.501460,   2.027485,   3.511432]
  
  Beta spin:
    <r_h> [Ang]:                  [ -0.000000,   0.000000,   0.000000]
    <r_e> [Ang]:                  [  0.000000,   0.000000,   0.000000]
    |<r_e - r_h>| [Ang]:            0.000000
    Hole size [Ang]:                1.253951
      Cartesian components [Ang]: [  0.748613,   0.511288,   0.866346]
    Electron size [Ang]:            5.093100
      Cartesian components [Ang]: [  2.699048,   2.159593,   3.740450]
  ----------------------------------------------------------------------------


  Electron-attached state 10 (B2g)                                  [converged]
  ----------------------------------------------------------------------------
  Term symbol:  10 (2) B2g                                  R^2 =  9.28075e-15

  Total energy:                                            -77.8033711586 a.u.
  Electron attachment energy:                                     14.034843 eV

  Pole strength:                                                      0.000006

  Dip. moment [a.u.]:                  [  -0.000000,   -0.000001,    0.000000]
  Total dipole [Debye]:                                               0.000003
  <r^2> [a.u.]:                        [ 122.188754,   51.127240,   41.785521]
  Total <r^2> [a.u.]:                                               215.101516

  V1^2 = 0.0000, V2^2 = 1.0000

  Important amplitudes:
       occ i       vir a        vir b           v   
    -------------------------------------------------
     1 (B1u) A    3 (B3u) A    5 (Ag ) B      0.5630
     1 (B1u) B    5 (Ag ) B    3 (B3u) B     -0.3923
    -------------------------------------------------

  Density matrix analysis:
  ------------------------
  NOs (alpha)
    Occupation of frontier NOs:
       0.2775   0.6341
    Number of electrons:  8.000000
  NOs (beta)
    Occupation of frontier NOs:
       0.3662   0.6611
    Number of electrons:  9.000000
  NOs (spin-traced)
    Occupation of frontier NOs:
       0.9382   1.0003
    Number of electrons: 17.000000
    Number of unpaired electrons: n_u =  3.27678, n_u,nl =  3.02319
    NO participation ratio (PR_NO):  3.725746
  
  
  Mulliken Population Analysis
  Atom  Charge (e)    Spin (e)  h+ (alpha)   h+ (beta)  e- (alpha)   e- (beta)
  ----------------------------------------------------------------------------
   1 C   -0.805833    0.616679    0.342108    0.152092   -0.353569   -0.780232
   2 C   -0.805833    0.616679    0.342108    0.152092   -0.353569   -0.780232
   3 H    0.152916   -0.058339    0.002007    0.000892    0.003724    0.063178
   4 H    0.152919   -0.058339    0.002007    0.000892    0.003724    0.063178
   5 H    0.152917   -0.058339    0.002007    0.000892    0.003724    0.063178
   6 H    0.152914   -0.058339    0.002007    0.000892    0.003724    0.063178
  ----------------------------------------------------------------------------
  Sum:   -1.000000    1.000000    0.692242    0.307753   -0.692242   -1.307753
  
  Multipole moment analysis of the density matrix
    Molecular charge:                      -1.000000
    Number of electrons:                   17.000000
      Center of electronic charge [Ang]: [  0.000000,   0.000000,  -0.000000]
    Total nuclear charge:                  16.000000
      Center of nuclear charge [Ang]:    [  0.000000,   0.000000,   0.000000]
    Dipole moment [D]:                     0.000003
      Cartesian components [D]:          [ -0.000000,  -0.000003,   0.000000]
    RMS size of the density [Ang]:         1.882341
      Cartesian components [Ang]:        [  1.418706,   0.917704,   0.829640]
  
  Exciton analysis of the difference density matrix
  Total:
    <r_h> [Ang]:                  [ -0.000000,   0.000000,   0.000000]
    <r_e> [Ang]:                  [  0.000000,   0.000000,  -0.000000]
    |<r_e - r_h>| [Ang]:            0.000000
    Hole size [Ang]:                1.251981
      Cartesian components [Ang]: [  0.747871,   0.510313,   0.864712]
    Electron size [Ang]:            4.409489
      Cartesian components [Ang]: [  3.269538,   2.046185,   2.137017]
  
  Alpha spin:
    <r_h> [Ang]:                  [ -0.000000,   0.000000,   0.000000]
    <r_e> [Ang]:                  [ -0.000000,   0.000000,  -0.000000]
    |<r_e - r_h>| [Ang]:            0.000000
    Hole size [Ang]:                1.251981
      Cartesian components [Ang]: [  0.747871,   0.510313,   0.864712]
    Electron size [Ang]:            5.155690
      Cartesian components [Ang]: [  3.932293,   2.351207,   2.364327]
  
  Beta spin:
    <r_h> [Ang]:                  [ -0.000000,   0.000000,   0.000000]
    <r_e> [Ang]:                  [  0.000000,   0.000000,  -0.000000]
    |<r_e - r_h>| [Ang]:            0.000000
    Hole size [Ang]:                1.251980
      Cartesian components [Ang]: [  0.747871,   0.510313,   0.864711]
    Electron size [Ang]:            3.957958
      Cartesian components [Ang]: [  2.857155,   1.864638,   2.006296]
  ----------------------------------------------------------------------------


--------------------------------------------------------------------------------
  Time of ADC calculation:  CPU 35.05 s  wall 10.27 s
================================================================================
 
 --------------------------------------------------------------
             Orbital Energies (a.u.) and Symmetries
 --------------------------------------------------------------
 
 Alpha MOs, Restricted
 -- Occupied --                  
-11.237 -11.235  -1.042  -0.782  -0.661  -0.567  -0.515  -0.377
  1 Ag    1 B3u   2 Ag    2 B3u   1 B2u   3 Ag    1 B1g   1 B1u                
 -- Virtual --                   
  0.039   0.041   0.047   0.059   0.060   0.063   0.100   0.130
  3 B3u   2 B2u   2 B1u   2 B1g   1 B2g   4 Ag    5 Ag    2 B2g                
  0.136   0.168   0.186   0.193   0.205   0.266   0.269   0.284
  4 B3u   3 B2u   3 B1g   3 B1u   6 Ag    7 Ag    3 B2g   5 B3u                
  0.340   0.349   0.468   0.507   0.693   0.777   0.860   0.875
  4 B2u   6 B3u   4 B1g   7 B3u   8 Ag    5 B2u   9 Ag    4 B1u                
  0.898   0.931   0.932   0.982   1.028   1.049   1.114   1.283
  6 B2u   4 B2g   8 B3u   9 B3u  10 Ag    5 B1g   1 B3g   5 B1u                
  1.284   1.333   1.346   1.607   1.615   1.698   1.849   1.914
  1 Au   10 B3u   6 B1g  11 Ag    7 B1g   7 B2u   5 B2g  11 B3u                
  1.938   1.985   2.017   2.042   2.171   2.284   2.412   2.442
  6 B1u  12 Ag    2 B3g   8 B2u   6 B2g  12 B3u   2 Au   13 Ag                 
  2.549   2.572   2.800   2.800   3.261   3.340
  8 B1g  13 B3u   9 B2u  14 Ag   14 B3u   9 B1g                                
 
 Beta MOs, Restricted
 -- Occupied --                  
-11.237 -11.235  -1.042  -0.782  -0.661  -0.567  -0.515  -0.377
  1 Ag    1 B3u   2 Ag    2 B3u   1 B2u   3 Ag    1 B1g   1 B1u                
 -- Virtual --                   
  0.039   0.041   0.047   0.059   0.060   0.063   0.100   0.130
  3 B3u   2 B2u   2 B1u   2 B1g   1 B2g   4 Ag    5 Ag    2 B2g                
  0.136   0.168   0.186   0.193   0.205   0.266   0.269   0.284
  4 B3u   3 B2u   3 B1g   3 B1u   6 Ag    7 Ag    3 B2g   5 B3u                
  0.340   0.349   0.468   0.507   0.693   0.777   0.860   0.875
  4 B2u   6 B3u   4 B1g   7 B3u   8 Ag    5 B2u   9 Ag    4 B1u                
  0.898   0.931   0.932   0.982   1.028   1.049   1.114   1.283
  6 B2u   4 B2g   8 B3u   9 B3u  10 Ag    5 B1g   1 B3g   5 B1u                
  1.284   1.333   1.346   1.607   1.615   1.698   1.849   1.914
  1 Au   10 B3u   6 B1g  11 Ag    7 B1g   7 B2u   5 B2g  11 B3u                
  1.938   1.985   2.017   2.042   2.171   2.284   2.412   2.442
  6 B1u  12 Ag    2 B3g   8 B2u   6 B2g  12 B3u   2 Au   13 Ag                 
  2.549   2.572   2.800   2.800   3.261   3.340
  8 B1g  13 B3u   9 B2u  14 Ag   14 B3u   9 B1g                                
 --------------------------------------------------------------
 
          Ground-State Mulliken Net Atomic Charges

     Atom                 Charge (a.u.)
  ----------------------------------------
      1 C                    -0.151942
      2 C                    -0.151942
      3 H                     0.075970
      4 H                     0.075974
      5 H                     0.075972
      6 H                     0.075968
  ----------------------------------------
  Sum of atomic charges =     0.000000

 -----------------------------------------------------------------
                    Cartesian Multipole Moments
 -----------------------------------------------------------------
    Charge (ESU x 10^10)
                 0.0000
    Dipole Moment (Debye)
         X       0.0000      Y      -0.0000      Z      -0.0000
       Tot       0.0000
    Quadrupole Moments (Debye-Ang)
        XX     -12.9350     XY       0.0000     YY     -11.9610
        XZ       0.0000     YZ       0.0000     ZZ     -16.1193
    Octopole Moments (Debye-Ang^2)
       XXX       0.0000    XXY      -0.0000    XYY       0.0000
       YYY      -0.0000    XXZ       0.0000    XYZ      -0.0000
       YYZ      -0.0000    XZZ       0.0000    YZZ      -0.0000
       ZZZ      -0.0000
    Hexadecapole Moments (Debye-Ang^3)
      XXXX     -68.1351   XXXY       0.0000   XXYY     -13.2234
      XYYY       0.0000   YYYY     -26.8081   XXXZ       0.0000
      XXYZ       0.0000   XYYZ       0.0000   YYYZ       0.0000
      XXZZ     -15.5030   XYZZ      -0.0000   YYZZ      -8.8850
      XZZZ       0.0000   YZZZ      -0.0000   ZZZZ     -21.2291
 -----------------------------------------------------------------
 Total job time:  91.03s(wall), 76.96s(cpu) 
 Fri Feb 25 15:07:32 2022

        *************************************************************
        *                                                           *
        *  Thank you very much for using Q-Chem.  Have a nice day.  *
        *                                                           *
        *************************************************************


