/src/tsommerfeld/qchem/exe/qcprog.exe .input2.333333.30249.qcin.1 /src/jdavis/qchem.scratch/qchem30249/

                  Welcome to Q-Chem
     A Quantum Leap Into The Future Of Chemistry


 Q-Chem 5.4 (devel), Q-Chem, Inc., Pleasanton, CA (2021)

 E. Epifanovsky,  A. T. B. Gilbert,  Xintian Feng,  Joonho Lee,  Yuezhi Mao,  
 N. Mardirossian,  P. Pokhilko,  A. White,  M. Wormit,  M. P. Coons,  
 A. L. Dempwolff,  Zhengting Gan,  D. Hait,  P. R. Horn,  L. D. Jacobson,  
 I. Kaliman,  J. Kussmann,  A. W. Lange,  Ka Un Lao,  D. S. Levine,  Jie Liu,  
 S. C. McKenzie,  A. F. Morrison,  K. Nanda,  F. Plasser,  D. R. Rehn,  
 M. L. Vidal,  Zhi-Qiang You,  Ying Zhu,  B. Alam,  B. Albrecht,  
 A. Aldossary,  E. Alguire,  J. H. Andersen,  D. Barton,  K. Begam,  A. Behn,  
 Y. A. Bernard,  E. J. Berquist,  H. Burton,  A. Carreras,  K. Carter-Fenk,  
 R. Chakraborty,  A. D. Chien,  K. D. Closser,  V. Cofer-Shabica,  
 S. Dasgupta,  Jia Deng,  M. de Wergifosse,  M. Diedenhofen,  Hainam Do,  
 S. Ehlert,  Po-Tung Fang,  S. Fatehi,  Qingguo Feng,  T. Friedhoff,  
 J. Gayvert,  Qinghui Ge,  G. Gidofalvi,  M. Goldey,  J. Gomes,  
 C. Gonzalez-Espinoza,  S. Gulania,  A. Gunina,  M. W. D. Hanson-Heine,  
 P. H. P. Harbach,  A. W. Hauser,  M. F. Herbst,  M. Hernandez Vera,  
 M. Hodecker,  Z. C. Holden,  S. Houck,  Xunkun Huang,  Kerwin Hui,  
 B. C. Huynh,  M. Ivanov,  Hyunjun Ji,  Hanjie Jiang,  B. Kaduk,  S. Kaehler,  
 K. Khistyaev,  Jaehoon Kim,  P. Klunzinger,  Z. Koczor-Benda,  
 Joong Hoon Koh,  D. Kosenkov,  L. Koulias,  T. Kowalczyk,  C. M. Krauter,  
 K. Kue,  A. Kunitsa,  T. Kus,  A. Landau,  K. V. Lawler,  D. Lefrancois,  
 S. Lehtola,  Rain Li,  Yi-Pei Li,  Jiashu Liang,  M. Liebenthal,  
 Hung-Hsuan Lin,  You-Sheng Lin,  Fenglai Liu,  Kuan-Yu Liu,  
 M. Loipersberger,  A. Luenser,  A. Manjanath,  P. Manohar,  E. Mansoor,  
 S. F. Manzer,  Shan-Ping Mao,  A. V. Marenich,  T. Markovich,  S. Mason,  
 S. A. Maurer,  P. F. McLaughlin,  M. F. S. J. Menger,  J.-M. Mewes,  
 S. A. Mewes,  P. Morgante,  J. W. Mullinax,  K. J. Oosterbaan,  G. Paran,  
 Alexander C. Paul,  Suranjan K. Paul,  F. Pavosevic,  Zheng Pei,  S. Prager,  
 E. I. Proynov,  E. Ramos,  B. Rana,  A. E. Rask,  A. Rettig,  R. M. Richard,  
 F. Rob,  E. Rossomme,  T. Scheele,  M. Scheurer,  M. Schneider,  
 N. Sergueev,  S. M. Sharada,  W. Skomorowski,  D. W. Small,  C. J. Stein,  
 Yu-Chuan Su,  E. J. Sundstrom,  Zhen Tao,  J. Thirman,  T. Tsuchimochi,  
 N. M. Tubman,  S. P. Veccham,  O. Vydrov,  J. Wenzel,  J. Witte,  A. Yamada,  
 Kun Yao,  S. Yeganeh,  S. R. Yost,  A. Zech,  Igor Ying Zhang,  Xing Zhang,  
 Yu Zhang,  D. Zuev,  A. Aspuru-Guzik,  A. T. Bell,  N. A. Besley,  
 K. B. Bravaya,  B. R. Brooks,  D. Casanova,  Jeng-Da Chai,  S. Coriani,  
 C. J. Cramer,  A. E. DePrince, III,  R. A. DiStasio Jr.,  A. Dreuw,  
 B. D. Dunietz,  T. R. Furlani,  W. A. Goddard III,  S. Grimme,  
 S. Hammes-Schiffer,  T. Head-Gordon,  W. J. Hehre,  Chao-Ping Hsu,  
 T.-C. Jagau,  Yousung Jung,  A. Klamt,  Jing Kong,  D. S. Lambrecht,  
 WanZhen Liang,  N. J. Mayhall,  C. W. McCurdy,  J. B. Neaton,  
 C. Ochsenfeld,  J. A. Parkhill,  R. Peverati,  V. A. Rassolov,  Yihan Shao,  
 L. V. Slipchenko,  T. Stauch,  R. P. Steele,  J. E. Subotnik,  
 A. J. W. Thom,  A. Tkatchenko,  D. G. Truhlar,  T. Van Voorhis,  
 T. A. Wesolowski,  K. B. Whaley,  H. L. Woodcock III,  P. M. Zimmerman,  
 S. Faraji,  P. M. W. Gill,  M. Head-Gordon,  J. M. Herbert,  A. I. Krylov

 Additional authors for Version 5.4.1: 
 S. Kotaru,  Shaozhi Li,  Xiangyuan Li,  F. Matz,  A. Molle,  Haisheng Ren,  
 Yingli Su,  Hung-Yi Tsai,  C. Utku,  Fang Wang

 Contributors to earlier versions of Q-Chem not listed above: 
 R. D. Adamson,  B. Austin,  R. Baer,  J. Baker,  G. J. O. Beran,  
 K. Brandhorst,  S. T. Brown,  E. F. C. Byrd,  A. K. Chakraborty,  
 G. K. L. Chan,  Chun-Min Chang,  Yunqing Chen,  C.-L. Cheng,  
 Siu Hung Chien,  D. M. Chipman,  D. L. Crittenden,  H. Dachsel,  
 R. J. Doerksen,  A. D. Dutoi,  R. G. Edgar,  J. Fosso-Tande,  
 L. Fusti-Molnar,  D. Ghosh,  A. Ghysels,  A. Golubeva-Zadorozhnaya,  
 J. Gonthier,  M. S. Gordon,  S. R. Gwaltney,  G. Hawkins,  J. E. Herr,  
 A. Heyden,  S. Hirata,  E. G. Hohenstein,  G. Kedziora,  F. J. Keil,  
 C. Kelley,  Jihan Kim,  R. A. King,  R. Z. Khaliullin,  P. P. Korambath,  
 W. Kurlancheek,  A. Laurent,  A. M. Lee,  M. S. Lee,  S. V. Levchenko,  
 Ching Yeh Lin,  D. Liotard,  E. Livshits,  R. C. Lochan,  I. Lotan,  
 L. A. Martinez-Martinez,  P. E. Maslen,  N. Nair,  D. P. O'Neill,  
 D. Neuhauser,  E. Neuscamman,  C. M. Oana,  R. Olivares-Amaya,  R. Olson,  
 T. M. Perrine,  B. Peters,  P. A. Pieniazek,  A. Prociuk,  Y. M. Rhee,  
 J. Ritchie,  M. A. Rohrdanz,  E. Rosta,  N. J. Russ,  H. F. Schaefer III,  
 M. W. Schmidt,  N. E. Schultz,  S. Sharma,  N. Shenvi,  C. D. Sherrill,  
 A. C. Simmonett,  A. Sodt,  T. Stein,  D. Stuck,  K. S. Thanthiriwatte,  
 V. Vanovschi,  L. Vogt,  Tao Wang,  A. Warshel,  M. A. Watson,  
 C. F. Williams,  Q. Wu,  X. Xu,  Jun Yang,  W. Zhang,  Yan Zhao

 Please cite Q-Chem as follows:
 Y. Shao et al., Mol. Phys. 113, 184-215 (2015)
 DOI: 10.1080/00268976.2014.952696

 Q-Chem 5.4.1 for Intel X86 EM64T Linux

 Parts of Q-Chem use Armadillo 9.900.5 (Nocturnal Misbehaviour).
 http://arma.sourceforge.net/

 Q-Chem begins on Wed Feb 23 19:58:05 2022  

 Host: node01
0

     Scratch files written to /src/jdavis/qchem.scratch/qchem30249//
 Processing $rem in /src/tsommerfeld/qchem/config/preferences:
 Processing $rem in /home/jdavis/.qchemrc:

 Checking the input file for inconsistencies... 	...done.

--------------------------------------------------------------
User input:
--------------------------------------------------------------
$molecule
0 1
C        -0.6645000000    0.0000000000   -0.2082049804
C         0.6645000000    0.0000000000   -0.2082049804
H        -1.1590800000    0.0000000000    0.7541440196
H         1.1590800000    0.0000000000    0.7541440196
H        -1.1590800000    0.0000000000   -1.1705529804
H         1.1590800000    0.0000000000   -1.1705529804
$end

$rem
   METHOD adc(2)
   BASIS gen
   PURECART 11
   EA_STATES [0,0,10,0,0,0,0,0]
   scf_convergence 8
   ADC_DAVIDSON_MAXITER 120
   ADC_DAVIDSON_MAXSUBSPACE 200
   adc_nguess_singles 100
   THRESH 14
   S2THRESH 14
   adc_davidson_conv 5
   adc_davidson_thresh 14
   THREADS 10
   MEM_TOTAL 95000
   STATE_ANALYSIS TRUE
$end
$basis
C 1
S   9   1.00
      6.665000D+03           6.920000D-04
      1.000000D+03           5.329000D-03
      2.280000D+02           2.707700D-02
      6.471000D+01           1.017180D-01
      2.106000D+01           2.747400D-01
      7.495000D+00           4.485640D-01
      2.797000D+00           2.850740D-01
      5.215000D-01           1.520400D-02
      1.596000D-01          -3.191000D-03
S   9   1.00
      6.665000D+03          -1.460000D-04
      1.000000D+03          -1.154000D-03
      2.280000D+02          -5.725000D-03
      6.471000D+01          -2.331200D-02
      2.106000D+01          -6.395500D-02
      7.495000D+00          -1.499810D-01
      2.797000D+00          -1.272620D-01
      5.215000D-01           5.445290D-01
      1.596000D-01           5.804960D-01
S   1   1.00
      1.596000D-01           1.000000D+00
S   1   1.00
      0.0469000              1.0000000
P   4   1.00
      9.439000D+00           3.810900D-02
      2.002000D+00           2.094800D-01
      5.456000D-01           5.085570D-01
      1.517000D-01           4.688420D-01
P   1   1.00
      1.517000D-01           1.000000D+00
P   1   1.00
      0.1011333      1.0000000
P   1   1.00
      0.0505667      1.0000000
D   1   1.00
      5.500000D-01           1.0000000
****
C 2
S   9   1.00
      6.665000D+03           6.920000D-04
      1.000000D+03           5.329000D-03
      2.280000D+02           2.707700D-02
      6.471000D+01           1.017180D-01
      2.106000D+01           2.747400D-01
      7.495000D+00           4.485640D-01
      2.797000D+00           2.850740D-01
      5.215000D-01           1.520400D-02
      1.596000D-01          -3.191000D-03
S   9   1.00
      6.665000D+03          -1.460000D-04
      1.000000D+03          -1.154000D-03
      2.280000D+02          -5.725000D-03
      6.471000D+01          -2.331200D-02
      2.106000D+01          -6.395500D-02
      7.495000D+00          -1.499810D-01
      2.797000D+00          -1.272620D-01
      5.215000D-01           5.445290D-01
      1.596000D-01           5.804960D-01
S   1   1.00
      1.596000D-01           1.000000D+00
S   1   1.00
      0.0469000              1.0000000
P   4   1.00
      9.439000D+00           3.810900D-02
      2.002000D+00           2.094800D-01
      5.456000D-01           5.085570D-01
      1.517000D-01           4.688420D-01
P   1   1.00
      1.517000D-01           1.000000D+00
P   1   1.00
      0.1011333      1.0000000
P   1   1.00
      0.0505667      1.0000000
D   1   1.00
      5.500000D-01           1.0000000
****
H 3
cc-pVDZ
****
H 4
cc-pVDZ
****
H 5
cc-pVDZ
****
H 6
cc-pVDZ
****
H 7
aug-cc-pVDZ
****
$end
--------------------------------------------------------------
 Atom   2: ( -0.6645000000, -0.0000001250,  0.0000000000)
         ->( -0.6645000000,  0.0000001250, -0.0000000000)
 Atom   1: (  0.6645000000, -0.0000001250, -0.0000000000)
         ->(  0.6645000000,  0.0000000000,  0.0000000000)
 Atom   6: ( -1.1590800000, -0.9623481250, -0.0000000000)
         ->( -1.1590800000, -0.9623488750,  0.0000000000)
 Atom   5: (  1.1590800000, -0.9623481250, -0.0000000000)
         ->(  1.1590800000, -0.9623488750, -0.0000000000)
 ----------------------------------------------------------------
             Standard Nuclear Orientation (Angstroms)
    I     Atom           X                Y                Z
 ----------------------------------------------------------------
    1      C       0.6645000000     0.0000000000     0.0000000000
    2      C      -0.6645000000     0.0000001250    -0.0000000000
    3      H       1.1590800000     0.9623488750     0.0000000000
    4      H      -1.1590800000     0.9623488750     0.0000000000
    5      H       1.1590800000    -0.9623488750    -0.0000000000
    6      H      -1.1590800000    -0.9623488750     0.0000000000
 ----------------------------------------------------------------
 Molecular Point Group                 D2h   NOp =  8
 Largest Abelian Subgroup              D2h   NOp =  8
 Nuclear Repulsion Energy =          33.58921667 hartrees
 There are        8 alpha and        8 beta electrons
 Requested basis set is non-standard
 There are 30 shells and 62 basis functions
 Total memory of 95000 MB is distributed as follows: 
   MEM_STATIC is set to 192 MB
   QALLOC/CCMAN JOB total memory use is  94808 MB
 Warning: actual memory use might exceed 95000 MB

 Total QAlloc Memory Limit  95000 MB
 Mega-Array Size       188 MB
 MEM_STATIC part       192 MB

                       Distance Matrix (Angstroms)
             C (  1)   C (  2)   H (  3)   H (  4)   H (  5)
   C (  2)  1.329000
   H (  3)  1.082000  2.061931
   H (  4)  2.061931  1.082000  2.318160
   H (  5)  1.082000  2.061931  1.924698  3.013026
   H (  6)  2.061931  1.082000  3.013026  1.924698  2.318160
 
 A cutoff of  1.0D-14 yielded    465 shell pairs
 There are      2009 function pairs (      2146 Cartesian)
 Smallest overlap matrix eigenvalue = 1.67E-04

 Scale SEOQF with 1.000000e-01/1.000000e-01/1.000000e-01

 Standard Electronic Orientation quadrupole field applied
 Nucleus-field energy     =     0.0000000006 hartrees
 ================ Generating on-the-fly SAD Guess ================
Attempting to make child job directory: /src/jdavis/qchem.scratch/qchem30249//Frg1/
Attempting to make child job directory: /src/jdavis/qchem.scratch/qchem30249//Frg2/
Creating input file /src/jdavis/qchem.scratch/qchem30249/Frg1.input
using default PutDataFrgm: nothing
calling putenv with: QCSCRATCH=/src/jdavis/qchem.scratch/qchem30249/ 
Spawning Job For Fragment 0
Done Job For Fragment 0
calling putenv with: QCSCRATCH=/src/jdavis/qchem.scratch 
calling putenv with: QCTHREADS=1 
Creating input file /src/jdavis/qchem.scratch/qchem30249/Frg2.input
using default PutDataFrgm: nothing
calling putenv with: QCSCRATCH=/src/jdavis/qchem.scratch/qchem30249/ 
Spawning Job For Fragment 1
Done Job For Fragment 1
calling putenv with: QCSCRATCH=/src/jdavis/qchem.scratch 
calling putenv with: QCTHREADS=1 
 Time for running child jobs:  CPU 1.77 s  wall 53.26 s
 ============= Method Specific SAD Guess Constructed =============
 Guess from on-the-fly superposition of atomic densities
 Warning: Energy on first SCF cycle will be non-variational
 A restricted Hartree-Fock SCF calculation will be
 performed using Pulay DIIS extrapolation
 SCF converges when DIIS error is below 1.0E-08
 using 10 threads for integral computing
 -------------------------------------------------------
 OpenMP Integral computing Module                
 Release: version 1.0, May 2013, Q-Chem Inc. Pittsburgh 
 -------------------------------------------------------
 ---------------------------------------
  Cycle       Energy         DIIS Error
 ---------------------------------------
    1     -78.4597895195      7.95E-02
    2     -78.0146445666      5.76E-03
    3     -78.0359287024      1.52E-03
    4     -78.0375662073      5.04E-04
    5     -78.0377362098      6.06E-05
    6     -78.0377409312      1.29E-05
    7     -78.0377413294      3.05E-06
    8     -78.0377414090      2.77E-07
    9     -78.0377414169      3.56E-08
   10     -78.0377414174      3.72E-09 Convergence criterion met
 ---------------------------------------
 SCF time:  CPU 9.07 s  wall 0.91 s
 SCF   energy in the final basis set = -78.03774142
 Total energy in the final basis set = -78.03774142
================================================================================
|                                                                              |
|                                 A D C  M A N                                 |
|                                                                              |
 ------------------------------------------------------------------------------ 
|                                                                              |
| Components:                                                                  |
|                                                                              |
| - libvmm - 1.3-trunk                                                         |
|   Authors:                                                                   |
|   Evgeny Epifanovsky, Ilya Kaliman                                           |
|                                                                              |
| - libtensor - 2.5-trunk                                                      |
|   Authors:                                                                   |
|   Evgeny Epifanovsky, Michael Wormit, Dmitry Zuev, Sam Manzer,               |
|   Ilya Kaliman                                                               |
|                                                                              |
| - libwfa - 1.1-trunk                                                         |
|   Authors:                                                                   |
|   Felix Plasser, Stefanie Mewes (Baeppler), Benjamin Thomitzni,              |
|   Michael Wormit, Feng Chen, Anna I. Krylov, Pavel Pokhilko                  |
|                                                                              |
| - libadc - 1.1-trunk                                                         |
|   Authors:                                                                   |
|   Michael Wormit, Adrian L. Dempwolff, Philipp H. P. Harbach,                |
|   Caroline Krauter, Dirk Rehn, Matthias Schneider, Jan Wenzel                |
|                                                                              |
| - adcman - 2.6-trunk                                                         |
|   Authors:                                                                   |
|   Michael Wormit, Adrian L. Dempwolff, Philipp H. P. Harbach,                |
|   Caroline Krauter, Daniel Lefrancois, Jan-Michael Mewes, Dirk Rehn,         |
|   Matthias Schneider, Jan Wenzel, Andreas Dreuw                              |
|                                                                              |
| Authors of earlier versions of ADCMAN:                                       |
| Andreas Dreuw, Jan Hendrik Starcke, Dirk Rehn, Michael Wormit                |
|                                                                              |
================================================================================

 
 Alpha MOs, Restricted
 -- Occupied --                  
-11.237 -11.235  -1.042  -0.782  -0.660  -0.567  -0.515  -0.377
  1 Ag    1 B3u   2 Ag    2 B3u   1 B2u   3 Ag    1 B1g   1 B1u                
 -- Virtual --                   
  0.096   0.098   0.104   0.109   0.118   0.143   0.157   0.207
  4 Ag    3 B3u   2 B2u   1 B2g   2 B1u   2 B1g   5 Ag    4 B3u                
  0.211   0.262   0.328   0.337   0.390   0.411   0.411   0.432
  2 B2g   6 Ag    3 B2u   5 B3u   6 B3u   4 B2u   7 Ag    3 B1u                
  0.447   0.520   0.554   0.618   0.841   0.848   0.916   1.003
  3 B1g   3 B2g   4 B1g   7 B3u   8 Ag    5 B2u   8 B3u   9 Ag                 
  1.050   1.114   1.139   1.152   1.171   1.225   1.285   1.290
  5 B1g   1 B3g  10 Ag    9 B3u   6 B2u   4 B1u   1 Au    4 B2g                
  1.313   1.401   1.499   1.629   1.746   1.805   1.884   1.946
  5 B1u  10 B3u   6 B1g  11 Ag    7 B2u   7 B1g   5 B2g   6 B1u                
  1.980   2.017   2.100   2.108   2.186   2.327   2.412   2.484
 11 B3u   2 B3g  12 Ag    8 B2u   6 B2g  12 B3u   2 Au   13 Ag                 
  2.553   2.584   2.885   2.891   3.314   3.359
  8 B1g  13 B3u  14 Ag    9 B2u  14 B3u   9 B1g                                
 
 Beta MOs, Restricted
 -- Occupied --                  
-11.237 -11.235  -1.042  -0.782  -0.660  -0.567  -0.515  -0.377
  1 Ag    1 B3u   2 Ag    2 B3u   1 B2u   3 Ag    1 B1g   1 B1u                
 -- Virtual --                   
  0.096   0.098   0.104   0.109   0.118   0.143   0.157   0.207
  4 Ag    3 B3u   2 B2u   1 B2g   2 B1u   2 B1g   5 Ag    4 B3u                
  0.211   0.262   0.328   0.337   0.390   0.411   0.411   0.432
  2 B2g   6 Ag    3 B2u   5 B3u   6 B3u   4 B2u   7 Ag    3 B1u                
  0.447   0.520   0.554   0.618   0.841   0.848   0.916   1.003
  3 B1g   3 B2g   4 B1g   7 B3u   8 Ag    5 B2u   8 B3u   9 Ag                 
  1.050   1.114   1.139   1.152   1.171   1.225   1.285   1.290
  5 B1g   1 B3g  10 Ag    9 B3u   6 B2u   4 B1u   1 Au    4 B2g                
  1.313   1.401   1.499   1.629   1.746   1.805   1.884   1.946
  5 B1u  10 B3u   6 B1g  11 Ag    7 B2u   7 B1g   5 B2g   6 B1u                
  1.980   2.017   2.100   2.108   2.186   2.327   2.412   2.484
 11 B3u   2 B3g  12 Ag    8 B2u   6 B2g  12 B3u   2 Au   13 Ag                 
  2.553   2.584   2.885   2.891   3.314   3.359
  8 B1g  13 B3u  14 Ag    9 B2u  14 B3u   9 B1g                                

--------------------------------------------------------------------------------
                                   HF Summary                                   
--------------------------------------------------------------------------------
  Energy:                                                  -78.0377414174 a.u.
  Dip. moment [a.u.]:                  [  -0.000000,   -0.000001,   -0.000000]
  Total dipole [Debye]:                                               0.000001
  <r^2> [a.u.]:                        [  47.701038,   22.114943,   12.011462]
  Total <r^2> [a.u.]:                                                81.827443
--------------------------------------------------------------------------------

--------------------------------------------------------------------------------
                                 MP(2) Summary                                  
--------------------------------------------------------------------------------
  MP energy contribution:                                   -0.2842509349 a.u.
  Total energy:                                            -78.3219923523 a.u.
  Dip. moment [a.u.]:                  [  -0.000000,   -0.000001,   -0.000000]
  Total dipole [Debye]:                                               0.000001
  <r^2> [a.u.]:                        [  47.806024,   22.143827,   11.862977]
  Total <r^2> [a.u.]:                                                81.812829

  Density matrix analysis:
  ------------------------
  NOs (alpha)
    Occupation of frontier NOs:
       0.0224   0.9685
    Number of electrons:  8.000000
  NOs (beta)
    Occupation of frontier NOs:
       0.0224   0.9685
    Number of electrons:  8.000000
  NOs (spin-traced)
    Occupation of frontier NOs:
       0.0448   1.9370
    Number of electrons: 16.000000
    Number of unpaired electrons: n_u =  0.41003, n_u,nl =  0.04614
    NO participation ratio (PR_NO): 13.976318
  
  
  Mulliken Population Analysis
  Atom  Charge (e)    Spin (e)  h+ (alpha)   h+ (beta)  e- (alpha)   e- (beta)
  ----------------------------------------------------------------------------
   1 C   -0.245224    0.000000    0.043266    0.043266   -0.051457   -0.051457
   2 C   -0.245224   -0.000000    0.043266    0.043266   -0.051457   -0.051457
   3 H    0.122606   -0.000000    0.009306    0.009306   -0.005211   -0.005211
   4 H    0.122625   -0.000000    0.009306    0.009306   -0.005211   -0.005211
   5 H    0.122618    0.000000    0.009306    0.009306   -0.005211   -0.005211
   6 H    0.122599    0.000000    0.009306    0.009306   -0.005211   -0.005211
  ----------------------------------------------------------------------------
  Sum:   -0.000000   -0.000000    0.123756    0.123756   -0.123756   -0.123756
  
  Multipole moment analysis of the density matrix
    Molecular charge:                      -0.000000
    Number of electrons:                   16.000000
      Center of electronic charge [Ang]: [  0.000000,   0.000000,   0.000000]
    Total nuclear charge:                  16.000000
      Center of nuclear charge [Ang]:    [  0.000000,   0.000000,   0.000000]
    Dipole moment [D]:                     0.000001
      Cartesian components [D]:          [ -0.000000,  -0.000001,  -0.000000]
    RMS size of the density [Ang]:         1.196608
      Cartesian components [Ang]:        [  0.914708,   0.622540,   0.455657]
  
  Exciton analysis of the difference density matrix
  Total:
    <r_h> [Ang]:                  [  0.000000,   0.000000,   0.000000]
    <r_e> [Ang]:                  [  0.000000,   0.000000,  -0.000000]
    |<r_e - r_h>| [Ang]:            0.000000
    Hole size [Ang]:                1.408428
      Cartesian components [Ang]: [  0.956755,   0.718275,   0.743216]
    Electron size [Ang]:            1.402546
      Cartesian components [Ang]: [  1.016936,   0.740674,   0.619982]
  
  Alpha spin:
    <r_h> [Ang]:                  [  0.000000,   0.000000,   0.000000]
    <r_e> [Ang]:                  [  0.000000,   0.000000,  -0.000000]
    |<r_e - r_h>| [Ang]:            0.000000
    Hole size [Ang]:                1.408428
      Cartesian components [Ang]: [  0.956755,   0.718275,   0.743216]
    Electron size [Ang]:            1.402546
      Cartesian components [Ang]: [  1.016936,   0.740674,   0.619982]
  
  Beta spin:
    <r_h> [Ang]:                  [  0.000000,   0.000000,   0.000000]
    <r_e> [Ang]:                  [  0.000000,   0.000000,  -0.000000]
    |<r_e - r_h>| [Ang]:            0.000000
    Hole size [Ang]:                1.408428
      Cartesian components [Ang]: [  0.956755,   0.718275,   0.743216]
    Electron size [Ang]:            1.402546
      Cartesian components [Ang]: [  1.016936,   0.740674,   0.619982]
--------------------------------------------------------------------------------
Less particle guess vectors found than requested: 6 (found), 100 (requested).
Adjusting number of hole-2particle guess vectors to 94.
  Starting Davidson for electron-attached states of irrep B2g ... 
--------------------------------------------------------------------------------
   It NVec Conv  Avg. Norm  Max. Norm  Conv. states           Remark
--------------------------------------------------------------------------------
       100    0  4.756e-02  3.230e-01  0.1114 n n n n n n n n Guess.
    1  110    7  2.071e-04  1.467e-03  0.0819 n n n y y y y y 
    2  120   10  1.079e-09  8.601e-09  0.0819 y y y y y y y y Converged.
--------------------------------------------------------------------------------
  Davidson Summary: 
 ------------------------------------------------------------
  State  0: electron attachment energy =   0.0819 a.u.   (converged)
  State  1: electron attachment energy =   0.1754 a.u.   (converged)
  State  2: electron attachment energy =   0.4692 a.u.   (converged)
  State  3: electron attachment energy =   0.5707 a.u.   (converged)
  State  4: electron attachment energy =   0.5709 a.u.   (converged)
  State  5: electron attachment energy =   0.6045 a.u.   (converged)
  State  6: electron attachment energy =   0.6060 a.u.   (converged)
  State  7: electron attachment energy =   0.6236 a.u.   (converged)
  State  8: electron attachment energy =   0.6236 a.u.   (converged)
  State  9: electron attachment energy =   0.6318 a.u.   (converged)
 ------------------------------------------------------------


--------------------------------------------------------------------------------
                        Electron-Attached State Summary
--------------------------------------------------------------------------------

  Electron-attached state 1 (B2g)                                  [converged]
  ----------------------------------------------------------------------------
  Term symbol:  1 (2) B2g                                   R^2 =  8.60106e-09

  Total energy:                                            -78.2400726314 a.u.
  Electron attachment energy:                                      2.229149 eV

  Pole strength:                                                      0.950690

  Dip. moment [a.u.]:                  [  -0.000000,   -0.000001,    0.000000]
  Total dipole [Debye]:                                               0.000002
  <r^2> [a.u.]:                        [  58.547243,   26.235622,   21.111366]
  Total <r^2> [a.u.]:                                               105.894231

  V1^2 = 0.9626, V2^2 = 0.0374

  Important amplitudes:
       occ i       vir a        vir b           v   
    -------------------------------------------------
                               1 (B2g) B     -0.9457
                               2 (B2g) B     -0.2542
    -------------------------------------------------

  Density matrix analysis:
  ------------------------
  NOs (alpha)
    Occupation of frontier NOs:
       0.0178   0.9672
    Number of electrons:  8.000000
  NOs (beta)
    Occupation of frontier NOs:
       0.0206   0.9758
    Number of electrons:  9.000000
  NOs (spin-traced)
    Occupation of frontier NOs:
       0.0290   0.9892
    Number of electrons: 17.000000
    Number of unpaired electrons: n_u =  1.41794, n_u,nl =  1.04405
    NO participation ratio (PR_NO):  2.030929
  
  
  Mulliken Population Analysis
  Atom  Charge (e)    Spin (e)  h+ (alpha)   h+ (beta)  e- (alpha)   e- (beta)
  ----------------------------------------------------------------------------
   1 C   -0.649552    0.538036    0.088641    0.071834   -0.021788   -0.543016
   2 C   -0.649552    0.538036    0.088641    0.071834   -0.021788   -0.543016
   3 H    0.074770   -0.019018    0.000164    0.005590   -0.033590   -0.019999
   4 H    0.074789   -0.019018    0.000164    0.005590   -0.033590   -0.019999
   5 H    0.074782   -0.019018    0.000164    0.005590   -0.033590   -0.019999
   6 H    0.074764   -0.019018    0.000164    0.005590   -0.033590   -0.019999
  ----------------------------------------------------------------------------
  Sum:   -1.000000    1.000000    0.177937    0.166028   -0.177937   -1.166028
  
  Multipole moment analysis of the density matrix
    Molecular charge:                      -1.000000
    Number of electrons:                   17.000000
      Center of electronic charge [Ang]: [  0.000000,   0.000000,  -0.000000]
    Total nuclear charge:                  16.000000
      Center of nuclear charge [Ang]:    [  0.000000,   0.000000,   0.000000]
    Dipole moment [D]:                     0.000002
      Cartesian components [D]:          [ -0.000000,  -0.000002,   0.000000]
    RMS size of the density [Ang]:         1.320726
      Cartesian components [Ang]:        [  0.982042,   0.657389,   0.589705]
  
  Exciton analysis of the difference density matrix
  Total:
    <r_h> [Ang]:                  [  0.000000,  -0.000000,  -0.000000]
    <r_e> [Ang]:                  [  0.000000,   0.000000,  -0.000000]
    |<r_e - r_h>| [Ang]:            0.000000
    Hole size [Ang]:                1.467821
      Cartesian components [Ang]: [  1.028993,   0.741888,   0.738426]
    Electron size [Ang]:            2.359875
      Cartesian components [Ang]: [  1.583992,   0.996710,   1.437549]
  
  Alpha spin:
    <r_h> [Ang]:                  [  0.000000,  -0.000000,  -0.000000]
    <r_e> [Ang]:                  [  0.000000,   0.000000,  -0.000000]
    |<r_e - r_h>| [Ang]:            0.000000
    Hole size [Ang]:                1.411972
      Cartesian components [Ang]: [  1.010657,   0.712372,   0.681735]
    Electron size [Ang]:            2.176067
      Cartesian components [Ang]: [  1.417375,   1.251846,   1.076659]
  
  Beta spin:
    <r_h> [Ang]:                  [  0.000000,  -0.000000,  -0.000000]
    <r_e> [Ang]:                  [  0.000000,   0.000000,  -0.000000]
    |<r_e - r_h>| [Ang]:            0.000000
    Hole size [Ang]:                1.525407
      Cartesian components [Ang]: [  1.048288,   0.772270,   0.794706]
    Electron size [Ang]:            2.386679
      Cartesian components [Ang]: [  1.607900,   0.951781,   1.484928]
  ----------------------------------------------------------------------------


  Electron-attached state 2 (B2g)                                  [converged]
  ----------------------------------------------------------------------------
  Term symbol:  2 (2) B2g                                   R^2 =  6.45008e-09

  Total energy:                                            -78.1465779504 a.u.
  Electron attachment energy:                                      4.773269 eV

  Pole strength:                                                      0.963121

  Dip. moment [a.u.]:                  [  -0.000000,   -0.000001,   -0.000000]
  Total dipole [Debye]:                                               0.000002
  <r^2> [a.u.]:                        [  65.716965,   28.448989,   28.709272]
  Total <r^2> [a.u.]:                                               122.875227

  V1^2 = 0.9694, V2^2 = 0.0306

  Important amplitudes:
       occ i       vir a        vir b           v   
    -------------------------------------------------
                               2 (B2g) B      0.9371
                               1 (B2g) B     -0.2879
    -------------------------------------------------

  Density matrix analysis:
  ------------------------
  NOs (alpha)
    Occupation of frontier NOs:
       0.0230   0.9620
    Number of electrons:  8.000000
  NOs (beta)
    Occupation of frontier NOs:
       0.0295   0.9725
    Number of electrons:  9.000000
  NOs (spin-traced)
    Occupation of frontier NOs:
       0.0456   0.9827
    Number of electrons: 17.000000
    Number of unpaired electrons: n_u =  1.43999, n_u,nl =  1.05295
    NO participation ratio (PR_NO):  2.116500
  
  
  Mulliken Population Analysis
  Atom  Charge (e)    Spin (e)  h+ (alpha)   h+ (beta)  e- (alpha)   e- (beta)
  ----------------------------------------------------------------------------
   1 C   -0.660637    0.505843    0.062193    0.041331   -0.016979   -0.501959
   2 C   -0.660637    0.505843    0.062193    0.041331   -0.016979   -0.501959
   3 H    0.080312   -0.002921    0.000007    0.001204   -0.022614   -0.020890
   4 H    0.080331   -0.002921    0.000007    0.001204   -0.022614   -0.020890
   5 H    0.080325   -0.002921    0.000007    0.001204   -0.022614   -0.020890
   6 H    0.080306   -0.002921    0.000007    0.001204   -0.022614   -0.020890
  ----------------------------------------------------------------------------
  Sum:   -1.000000    1.000000    0.124415    0.087476   -0.124415   -1.087476
  
  Multipole moment analysis of the density matrix
    Molecular charge:                      -1.000000
    Number of electrons:                   17.000000
      Center of electronic charge [Ang]: [  0.000000,   0.000000,   0.000000]
    Total nuclear charge:                  16.000000
      Center of nuclear charge [Ang]:    [  0.000000,   0.000000,   0.000000]
    Dipole moment [D]:                     0.000002
      Cartesian components [D]:          [ -0.000000,  -0.000002,  -0.000000]
    RMS size of the density [Ang]:         1.422685
      Cartesian components [Ang]:        [  1.040436,   0.684558,   0.687682]
  
  Exciton analysis of the difference density matrix
  Total:
    <r_h> [Ang]:                  [  0.000000,  -0.000000,  -0.000000]
    <r_e> [Ang]:                  [  0.000000,   0.000000,   0.000000]
    |<r_e - r_h>| [Ang]:            0.000000
    Hole size [Ang]:                1.294531
      Cartesian components [Ang]: [  0.959334,   0.668891,   0.555044]
    Electron size [Ang]:            3.127489
      Cartesian components [Ang]: [  2.073535,   1.239010,   1.986579]
  
  Alpha spin:
    <r_h> [Ang]:                  [  0.000000,  -0.000000,  -0.000000]
    <r_e> [Ang]:                  [  0.000000,   0.000000,  -0.000000]
    |<r_e - r_h>| [Ang]:            0.000000
    Hole size [Ang]:                1.303359
      Cartesian components [Ang]: [  0.954485,   0.651988,   0.602175]
    Electron size [Ang]:            2.124949
      Cartesian components [Ang]: [  1.395011,   1.220983,   1.038534]
  
  Beta spin:
    <r_h> [Ang]:                  [  0.000000,  -0.000000,  -0.000000]
    <r_e> [Ang]:                  [  0.000000,   0.000000,   0.000000]
    |<r_e - r_h>| [Ang]:            0.000000
    Hole size [Ang]:                1.281870
      Cartesian components [Ang]: [  0.966188,   0.692221,   0.480107]
    Electron size [Ang]:            3.222364
      Cartesian components [Ang]: [  2.137476,   1.241055,   2.067512]
  ----------------------------------------------------------------------------


  Electron-attached state 3 (B2g)                                  [converged]
  ----------------------------------------------------------------------------
  Term symbol:  3 (2) B2g                                   R^2 =  9.40022e-10

  Total energy:                                            -77.8527831032 a.u.
  Electron attachment energy:                                     12.767833 eV

  Pole strength:                                                      0.932911

  Dip. moment [a.u.]:                  [  -0.000000,   -0.000001,   -0.000000]
  Total dipole [Debye]:                                               0.000002
  <r^2> [a.u.]:                        [  60.556811,   26.916976,   24.226043]
  Total <r^2> [a.u.]:                                               111.699829

  V1^2 = 0.9349, V2^2 = 0.0651

  Important amplitudes:
       occ i       vir a        vir b           v   
    -------------------------------------------------
                               3 (B2g) B      0.9531
                               2 (B2g) B      0.1439
    -------------------------------------------------

  Density matrix analysis:
  ------------------------
  NOs (alpha)
    Occupation of frontier NOs:
       0.0419   0.9334
    Number of electrons:  8.000000
  NOs (beta)
    Occupation of frontier NOs:
       0.0450   0.9400
    Number of electrons:  9.000000
  NOs (spin-traced)
    Occupation of frontier NOs:
       0.0851   0.9424
    Number of electrons: 17.000000
    Number of unpaired electrons: n_u =  1.52746, n_u,nl =  1.09630
    NO participation ratio (PR_NO):  2.547760
  
  
  Mulliken Population Analysis
  Atom  Charge (e)    Spin (e)  h+ (alpha)   h+ (beta)  e- (alpha)   e- (beta)
  ----------------------------------------------------------------------------
   1 C   -0.666960    0.512339    0.063807    0.044372   -0.018505   -0.511410
   2 C   -0.666960    0.512339    0.063807    0.044372   -0.018505   -0.511410
   3 H    0.083474   -0.006170   -0.001384   -0.000103   -0.021267   -0.016378
   4 H    0.083493   -0.006170   -0.001384   -0.000103   -0.021267   -0.016378
   5 H    0.083486   -0.006170   -0.001384   -0.000103   -0.021267   -0.016378
   6 H    0.083467   -0.006170   -0.001384   -0.000103   -0.021267   -0.016378
  ----------------------------------------------------------------------------
  Sum:   -1.000000    1.000000    0.122077    0.088331   -0.122077   -1.088331
  
  Multipole moment analysis of the density matrix
    Molecular charge:                      -1.000000
    Number of electrons:                   17.000000
      Center of electronic charge [Ang]: [  0.000000,   0.000000,   0.000000]
    Total nuclear charge:                  16.000000
      Center of nuclear charge [Ang]:    [  0.000000,   0.000000,   0.000000]
    Dipole moment [D]:                     0.000002
      Cartesian components [D]:          [ -0.000000,  -0.000002,  -0.000000]
    RMS size of the density [Ang]:         1.356447
      Cartesian components [Ang]:        [  0.998753,   0.665871,   0.631710]
  
  Exciton analysis of the difference density matrix
  Total:
    <r_h> [Ang]:                  [  0.000000,  -0.000000,   0.000000]
    <r_e> [Ang]:                  [  0.000000,   0.000000,   0.000000]
    |<r_e - r_h>| [Ang]:            0.000000
    Hole size [Ang]:                1.311228
      Cartesian components [Ang]: [  0.954062,   0.678190,   0.590881]
    Electron size [Ang]:            2.685749
      Cartesian components [Ang]: [  1.762989,   1.088220,   1.709062]
  
  Alpha spin:
    <r_h> [Ang]:                  [  0.000000,  -0.000000,   0.000000]
    <r_e> [Ang]:                  [  0.000000,   0.000000,  -0.000000]
    |<r_e - r_h>| [Ang]:            0.000000
    Hole size [Ang]:                1.217541
      Cartesian components [Ang]: [  0.904257,   0.610441,   0.540453]
    Electron size [Ang]:            2.103302
      Cartesian components [Ang]: [  1.382629,   1.181294,   1.056769]
  
  Beta spin:
    <r_h> [Ang]:                  [  0.000000,  -0.000000,   0.000000]
    <r_e> [Ang]:                  [  0.000000,   0.000000,   0.000000]
    |<r_e - r_h>| [Ang]:            0.000000
    Hole size [Ang]:                1.430642
      Cartesian components [Ang]: [  1.018897,   0.761971,   0.654207]
    Electron size [Ang]:            2.743379
      Cartesian components [Ang]: [  1.800649,   1.077279,   1.767275]
  ----------------------------------------------------------------------------


  Electron-attached state 4 (B2g)                                  [converged]
  ----------------------------------------------------------------------------
  Term symbol:  4 (2) B2g                                   R^2 =  1.82922e-13

  Total energy:                                            -77.7512531050 a.u.
  Electron attachment energy:                                     15.530605 eV

  Pole strength:                                                      0.000006

  Dip. moment [a.u.]:                  [   0.000000,    0.000000,    0.000000]
  Total dipole [Debye]:                                               0.000001
  <r^2> [a.u.]:                        [ 102.016235,   37.503929,   27.294420]
  Total <r^2> [a.u.]:                                               166.814585

  V1^2 = 0.0000, V2^2 = 1.0000

  Important amplitudes:
       occ i       vir a        vir b           v   
    -------------------------------------------------
     1 (B1u) A    3 (B3u) A    4 (Ag ) B      0.5461
     1 (B1u) B    4 (Ag ) B    3 (B3u) B     -0.4352
    -------------------------------------------------

  Density matrix analysis:
  ------------------------
  NOs (alpha)
    Occupation of frontier NOs:
       0.3481   0.5972
    Number of electrons:  8.000000
  NOs (beta)
    Occupation of frontier NOs:
       0.4041   0.5899
    Number of electrons:  9.000000
  NOs (spin-traced)
    Occupation of frontier NOs:
       0.9379   1.0013
    Number of electrons: 17.000000
    Number of unpaired electrons: n_u =  3.27628, n_u,nl =  3.02319
    NO participation ratio (PR_NO):  3.726983
  
  
  Mulliken Population Analysis
  Atom  Charge (e)    Spin (e)  h+ (alpha)   h+ (beta)  e- (alpha)   e- (beta)
  ----------------------------------------------------------------------------
   1 C   -0.843421    0.597811    0.307047    0.187289   -0.307240   -0.785293
   2 C   -0.843421    0.597811    0.307047    0.187289   -0.307240   -0.785293
   3 H    0.171705   -0.048906    0.001758    0.001073   -0.001662    0.047930
   4 H    0.171723   -0.048905    0.001758    0.001073   -0.001662    0.047929
   5 H    0.171717   -0.048905    0.001758    0.001073   -0.001662    0.047929
   6 H    0.171699   -0.048906    0.001758    0.001073   -0.001662    0.047930
  ----------------------------------------------------------------------------
  Sum:   -1.000000    1.000000    0.621128    0.378868   -0.621128   -1.378868
  
  Multipole moment analysis of the density matrix
    Molecular charge:                      -1.000000
    Number of electrons:                   17.000000
      Center of electronic charge [Ang]: [ -0.000000,   0.000000,  -0.000000]
    Total nuclear charge:                  16.000000
      Center of nuclear charge [Ang]:    [  0.000000,   0.000000,   0.000000]
    Dipole moment [D]:                     0.000001
      Cartesian components [D]:          [  0.000000,   0.000001,   0.000000]
    RMS size of the density [Ang]:         1.657653
      Cartesian components [Ang]:        [  1.296317,   0.785986,   0.670523]
  
  Exciton analysis of the difference density matrix
  Total:
    <r_h> [Ang]:                  [ -0.000000,   0.000000,   0.000000]
    <r_e> [Ang]:                  [ -0.000000,  -0.000000,  -0.000000]
    |<r_e - r_h>| [Ang]:            0.000000
    Hole size [Ang]:                1.251864
      Cartesian components [Ang]: [  0.748191,   0.509912,   0.864502]
    Electron size [Ang]:            3.561609
      Cartesian components [Ang]: [  2.805372,   1.510179,   1.591951]
  
  Alpha spin:
    <r_h> [Ang]:                  [ -0.000000,   0.000000,   0.000000]
    <r_e> [Ang]:                  [ -0.000000,  -0.000000,  -0.000000]
    |<r_e - r_h>| [Ang]:            0.000000
    Hole size [Ang]:                1.251864
      Cartesian components [Ang]: [  0.748191,   0.509911,   0.864502]
    Electron size [Ang]:            3.638475
      Cartesian components [Ang]: [  2.867331,   1.585446,   1.582175]
  
  Beta spin:
    <r_h> [Ang]:                  [ -0.000000,   0.000000,   0.000000]
    <r_e> [Ang]:                  [  0.000000,  -0.000000,  -0.000000]
    |<r_e - r_h>| [Ang]:            0.000000
    Hole size [Ang]:                1.251865
      Cartesian components [Ang]: [  0.748191,   0.509912,   0.864502]
    Electron size [Ang]:            3.526437
      Cartesian components [Ang]: [  2.777010,   1.475021,   1.596335]
  ----------------------------------------------------------------------------


  Electron-attached state 5 (B2g)                                  [converged]
  ----------------------------------------------------------------------------
  Term symbol:  5 (2) B2g                                   R^2 =  2.52288e-12

  Total energy:                                            -77.7510827249 a.u.
  Electron attachment energy:                                     15.535241 eV

  Pole strength:                                                      0.000750

  Dip. moment [a.u.]:                  [   0.000000,    0.000000,    0.000000]
  Total dipole [Debye]:                                               0.000001
  <r^2> [a.u.]:                        [ 102.120936,   37.484963,   27.250247]
  Total <r^2> [a.u.]:                                               166.856145

  V1^2 = 0.0008, V2^2 = 0.9992

  Important amplitudes:
       occ i       vir a        vir b           v   
    -------------------------------------------------
     1 (B1u) A    4 (Ag ) A    3 (B3u) B      0.5663
     1 (B1u) B    4 (Ag ) B    3 (B3u) B      0.3791
    -------------------------------------------------

  Density matrix analysis:
  ------------------------
  NOs (alpha)
    Occupation of frontier NOs:
       0.2580   0.6425
    Number of electrons:  8.000000
  NOs (beta)
    Occupation of frontier NOs:
       0.3587   0.6811
    Number of electrons:  9.000000
  NOs (spin-traced)
    Occupation of frontier NOs:
       0.9387   1.0002
    Number of electrons: 17.000000
    Number of unpaired electrons: n_u =  3.28100, n_u,nl =  3.02350
    NO participation ratio (PR_NO):  3.729794
  
  
  Mulliken Population Analysis
  Atom  Charge (e)    Spin (e)  h+ (alpha)   h+ (beta)  e- (alpha)   e- (beta)
  ----------------------------------------------------------------------------
   1 C   -0.841374    0.460102    0.351846    0.142172   -0.419870   -0.670298
   2 C   -0.841374    0.460102    0.351846    0.142172   -0.419870   -0.670298
   3 H    0.170681    0.019949    0.002012    0.000814    0.032001    0.013249
   4 H    0.170699    0.019949    0.002012    0.000814    0.032000    0.013249
   5 H    0.170693    0.019949    0.002012    0.000814    0.032000    0.013249
   6 H    0.170675    0.019949    0.002012    0.000814    0.032001    0.013250
  ----------------------------------------------------------------------------
  Sum:   -1.000000    1.000000    0.711738    0.287599   -0.711738   -1.287599
  
  Multipole moment analysis of the density matrix
    Molecular charge:                      -1.000000
    Number of electrons:                   17.000000
      Center of electronic charge [Ang]: [ -0.000000,   0.000000,  -0.000000]
    Total nuclear charge:                  16.000000
      Center of nuclear charge [Ang]:    [  0.000000,   0.000000,   0.000000]
    Dipole moment [D]:                     0.000001
      Cartesian components [D]:          [  0.000000,   0.000001,   0.000000]
    RMS size of the density [Ang]:         1.657860
      Cartesian components [Ang]:        [  1.296982,   0.785788,   0.669980]
  
  Exciton analysis of the difference density matrix
  Total:
    <r_h> [Ang]:                  [ -0.000000,   0.000000,   0.000000]
    <r_e> [Ang]:                  [ -0.000000,  -0.000000,  -0.000000]
    |<r_e - r_h>| [Ang]:            0.000000
    Hole size [Ang]:                1.251791
      Cartesian components [Ang]: [  0.748213,   0.509900,   0.864385]
    Electron size [Ang]:            3.562928
      Cartesian components [Ang]: [  2.808416,   1.509518,   1.590160]
  
  Alpha spin:
    <r_h> [Ang]:                  [ -0.000000,   0.000000,   0.000000]
    <r_e> [Ang]:                  [  0.000000,  -0.000000,   0.000000]
    |<r_e - r_h>| [Ang]:            0.000000
    Hole size [Ang]:                1.251939
      Cartesian components [Ang]: [  0.748242,   0.509961,   0.864537]
    Electron size [Ang]:            3.495562
      Cartesian components [Ang]: [  2.754899,   1.440910,   1.597892]
  
  Beta spin:
    <r_h> [Ang]:                  [ -0.000000,   0.000000,   0.000000]
    <r_e> [Ang]:                  [ -0.000000,  -0.000000,  -0.000000]
    |<r_e - r_h>| [Ang]:            0.000000
    Hole size [Ang]:                1.251426
      Cartesian components [Ang]: [  0.748140,   0.509749,   0.864008]
    Electron size [Ang]:            3.599624
      Cartesian components [Ang]: [  2.837565,   1.546136,   1.585869]
  ----------------------------------------------------------------------------


  Electron-attached state 6 (B2g)                                  [converged]
  ----------------------------------------------------------------------------
  Term symbol:  6 (2) B2g                                   R^2 =  3.58879e-13

  Total energy:                                            -77.7174505734 a.u.
  Electron attachment energy:                                     16.450418 eV

  Pole strength:                                                      0.002348

  Dip. moment [a.u.]:                  [  -0.000000,   -0.000001,   -0.000000]
  Total dipole [Debye]:                                               0.000002
  <r^2> [a.u.]:                        [  69.093105,   34.007166,   47.398683]
  Total <r^2> [a.u.]:                                               150.498954

  V1^2 = 0.0024, V2^2 = 0.9976

  Important amplitudes:
       occ i       vir a        vir b           v   
    -------------------------------------------------
     1 (B1u) B    1 (B2g) B    2 (B1u) B      0.5666
     1 (B1u) A    2 (B1u) A    1 (B2g) B     -0.3756
    -------------------------------------------------

  Density matrix analysis:
  ------------------------
  NOs (alpha)
    Occupation of frontier NOs:
       0.2810   0.6158
    Number of electrons:  8.000000
  NOs (beta)
    Occupation of frontier NOs:
       0.3229   0.7205
    Number of electrons:  9.000000
  NOs (spin-traced)
    Occupation of frontier NOs:
       0.8947   1.0131
    Number of electrons: 17.000000
    Number of unpaired electrons: n_u =  3.16714, n_u,nl =  3.00064
    NO participation ratio (PR_NO):  3.725351
  
  
  Mulliken Population Analysis
  Atom  Charge (e)    Spin (e)  h+ (alpha)   h+ (beta)  e- (alpha)   e- (beta)
  ----------------------------------------------------------------------------
   1 C   -0.744476    0.498156    0.177504    0.319299   -0.178053   -0.818004
   2 C   -0.744476    0.498156    0.177504    0.319299   -0.178053   -0.818004
   3 H    0.122232    0.000922    0.001011    0.001844   -0.000736   -0.002491
   4 H    0.122251    0.000922    0.001011    0.001844   -0.000736   -0.002491
   5 H    0.122244    0.000922    0.001011    0.001844   -0.000736   -0.002491
   6 H    0.122225    0.000922    0.001011    0.001844   -0.000736   -0.002491
  ----------------------------------------------------------------------------
  Sum:   -1.000000    1.000000    0.359051    0.645973   -0.359051   -1.645973
  
  Multipole moment analysis of the density matrix
    Molecular charge:                      -1.000000
    Number of electrons:                   17.000000
      Center of electronic charge [Ang]: [  0.000000,   0.000000,   0.000000]
    Total nuclear charge:                  16.000000
      Center of nuclear charge [Ang]:    [  0.000000,   0.000000,   0.000000]
    Dipole moment [D]:                     0.000002
      Cartesian components [D]:          [ -0.000000,  -0.000002,  -0.000000]
    RMS size of the density [Ang]:         1.574503
      Cartesian components [Ang]:        [  1.066827,   0.748448,   0.883608]
  
  Exciton analysis of the difference density matrix
  Total:
    <r_h> [Ang]:                  [ -0.000000,   0.000000,   0.000000]
    <r_e> [Ang]:                  [  0.000000,   0.000000,  -0.000000]
    |<r_e - r_h>| [Ang]:            0.000000
    Hole size [Ang]:                1.281127
      Cartesian components [Ang]: [  0.759602,   0.525055,   0.888036]
    Electron size [Ang]:            3.227327
      Cartesian components [Ang]: [  1.806169,   1.339799,   2.314807]
  
  Alpha spin:
    <r_h> [Ang]:                  [ -0.000000,   0.000000,   0.000000]
    <r_e> [Ang]:                  [ -0.000000,   0.000000,  -0.000000]
    |<r_e - r_h>| [Ang]:            0.000000
    Hole size [Ang]:                1.287963
      Cartesian components [Ang]: [  0.762396,   0.528755,   0.893319]
    Electron size [Ang]:            3.332797
      Cartesian components [Ang]: [  1.666935,   1.446396,   2.497359]
  
  Beta spin:
    <r_h> [Ang]:                  [ -0.000000,   0.000000,   0.000000]
    <r_e> [Ang]:                  [  0.000000,   0.000000,   0.000000]
    |<r_e - r_h>| [Ang]:            0.000000
    Hole size [Ang]:                1.277312
      Cartesian components [Ang]: [  0.758045,   0.522988,   0.885086]
    Electron size [Ang]:            3.203858
      Cartesian components [Ang]: [  1.835139,   1.315399,   2.273038]
  ----------------------------------------------------------------------------


  Electron-attached state 7 (B2g)                                  [converged]
  ----------------------------------------------------------------------------
  Term symbol:  7 (2) B2g                                   R^2 =  3.31017e-13

  Total energy:                                            -77.7160336772 a.u.
  Electron attachment energy:                                     16.488974 eV

  Pole strength:                                                      0.012599

  Dip. moment [a.u.]:                  [  -0.000000,   -0.000001,   -0.000000]
  Total dipole [Debye]:                                               0.000002
  <r^2> [a.u.]:                        [  69.456341,   34.173262,   47.886588]
  Total <r^2> [a.u.]:                                               151.516192

  V1^2 = 0.0127, V2^2 = 0.9873

  Important amplitudes:
       occ i       vir a        vir b           v   
    -------------------------------------------------
     1 (B1u) A    1 (B2g) A    2 (B1u) B     -0.5400
     1 (B1u) A    2 (B1u) A    1 (B2g) B     -0.4351
    -------------------------------------------------

  Density matrix analysis:
  ------------------------
  NOs (alpha)
    Occupation of frontier NOs:
       0.3806   0.5905
    Number of electrons:  8.000000
  NOs (beta)
    Occupation of frontier NOs:
       0.4081   0.6070
    Number of electrons:  9.000000
  NOs (spin-traced)
    Occupation of frontier NOs:
       0.9498   0.9895
    Number of electrons: 17.000000
    Number of unpaired electrons: n_u =  3.28584, n_u,nl =  3.02470
    NO participation ratio (PR_NO):  3.741077
  
  
  Mulliken Population Analysis
  Atom  Charge (e)    Spin (e)  h+ (alpha)   h+ (beta)  e- (alpha)   e- (beta)
  ----------------------------------------------------------------------------
   1 C   -0.744576    0.495674    0.477683    0.011974   -0.479522   -0.509487
   2 C   -0.744576    0.495674    0.477683    0.011974   -0.479522   -0.509487
   3 H    0.122281    0.002163    0.002722    0.000060   -0.001803   -0.001304
   4 H    0.122300    0.002163    0.002722    0.000060   -0.001803   -0.001304
   5 H    0.122294    0.002163    0.002722    0.000060   -0.001803   -0.001304
   6 H    0.122275    0.002163    0.002722    0.000060   -0.001803   -0.001304
  ----------------------------------------------------------------------------
  Sum:   -1.000000    1.000000    0.966256    0.024189   -0.966256   -1.024189
  
  Multipole moment analysis of the density matrix
    Molecular charge:                      -1.000000
    Number of electrons:                   17.000000
      Center of electronic charge [Ang]: [  0.000000,   0.000000,   0.000000]
    Total nuclear charge:                  16.000000
      Center of nuclear charge [Ang]:    [  0.000000,   0.000000,   0.000000]
    Dipole moment [D]:                     0.000002
      Cartesian components [D]:          [ -0.000000,  -0.000002,  -0.000000]
    RMS size of the density [Ang]:         1.579815
      Cartesian components [Ang]:        [  1.069628,   0.750274,   0.888144]
  
  Exciton analysis of the difference density matrix
  Total:
    <r_h> [Ang]:                  [ -0.000000,   0.000000,   0.000000]
    <r_e> [Ang]:                  [ -0.000000,   0.000000,   0.000000]
    |<r_e - r_h>| [Ang]:            0.000000
    Hole size [Ang]:                1.247385
      Cartesian components [Ang]: [  0.747796,   0.508776,   0.859021]
    Electron size [Ang]:            3.252778
      Cartesian components [Ang]: [  1.823228,   1.349512,   2.331355]
  
  Alpha spin:
    <r_h> [Ang]:                  [ -0.000000,   0.000000,   0.000000]
    <r_e> [Ang]:                  [  0.000000,   0.000000,   0.000000]
    |<r_e - r_h>| [Ang]:            0.000000
    Hole size [Ang]:                1.246954
      Cartesian components [Ang]: [  0.747169,   0.508027,   0.859385]
    Electron size [Ang]:            3.215013
      Cartesian components [Ang]: [  1.870942,   1.310263,   2.262542]
  
  Beta spin:
    <r_h> [Ang]:                  [  0.000000,   0.000000,   0.000000]
    <r_e> [Ang]:                  [ -0.000000,   0.000000,   0.000000]
    |<r_e - r_h>| [Ang]:            0.000000
    Hole size [Ang]:                1.264475
      Cartesian components [Ang]: [  0.772456,   0.537847,   0.844351]
    Electron size [Ang]:            3.288008
      Cartesian components [Ang]: [  1.777040,   1.385522,   2.394464]
  ----------------------------------------------------------------------------


  Electron-attached state 8 (B2g)                                  [converged]
  ----------------------------------------------------------------------------
  Term symbol:  8 (2) B2g                                   R^2 =  1.64224e-14

  Total energy:                                            -77.6983827798 a.u.
  Electron attachment energy:                                     16.969279 eV

  Pole strength:                                                      0.000000

  Dip. moment [a.u.]:                  [   0.000000,   -0.000002,    0.000000]
  Total dipole [Debye]:                                               0.000004
  <r^2> [a.u.]:                        [  76.899190,   67.400885,   24.527389]
  Total <r^2> [a.u.]:                                               168.827463

  V1^2 = 0.0000, V2^2 = 1.0000

  Important amplitudes:
       occ i       vir a        vir b           v   
    -------------------------------------------------
     1 (B1u) B    2 (B1g) B    2 (B2u) B      0.5012
     1 (B1u) A    2 (B1g) A    2 (B2u) B      0.4988
    -------------------------------------------------

  Density matrix analysis:
  ------------------------
  NOs (alpha)
    Occupation of frontier NOs:
       0.4713   0.4984
    Number of electrons:  8.000000
  NOs (beta)
    Occupation of frontier NOs:
       0.4666   0.5031
    Number of electrons:  9.000000
  NOs (spin-traced)
    Occupation of frontier NOs:
       0.9379   1.0015
    Number of electrons: 17.000000
    Number of unpaired electrons: n_u =  3.27669, n_u,nl =  3.02315
    NO participation ratio (PR_NO):  3.727478
  
  
  Mulliken Population Analysis
  Atom  Charge (e)    Spin (e)  h+ (alpha)   h+ (beta)  e- (alpha)   e- (beta)
  ----------------------------------------------------------------------------
   1 C   -0.728154    0.485761    0.246007    0.248331   -0.244591   -0.732677
   2 C   -0.728154    0.485761    0.246007    0.248331   -0.244591   -0.732677
   3 H    0.114071    0.007119    0.001409    0.001422   -0.002117   -0.009249
   4 H    0.114090    0.007119    0.001409    0.001422   -0.002117   -0.009249
   5 H    0.114083    0.007119    0.001409    0.001422   -0.002117   -0.009249
   6 H    0.114064    0.007119    0.001409    0.001422   -0.002117   -0.009249
  ----------------------------------------------------------------------------
  Sum:   -1.000000    1.000000    0.497649    0.502351   -0.497649   -1.502351
  
  Multipole moment analysis of the density matrix
    Molecular charge:                      -1.000000
    Number of electrons:                   17.000000
      Center of electronic charge [Ang]: [ -0.000000,   0.000000,   0.000000]
    Total nuclear charge:                  16.000000
      Center of nuclear charge [Ang]:    [  0.000000,   0.000000,   0.000000]
    Dipole moment [D]:                     0.000004
      Cartesian components [D]:          [  0.000000,  -0.000004,   0.000000]
    RMS size of the density [Ang]:         1.667624
      Cartesian components [Ang]:        [  1.125479,   1.053682,   0.635627]
  
  Exciton analysis of the difference density matrix
  Total:
    <r_h> [Ang]:                  [ -0.000000,   0.000000,   0.000000]
    <r_e> [Ang]:                  [ -0.000000,   0.000000,   0.000000]
    |<r_e - r_h>| [Ang]:            0.000000
    Hole size [Ang]:                1.251867
      Cartesian components [Ang]: [  0.748191,   0.509912,   0.864507]
    Electron size [Ang]:            3.600955
      Cartesian components [Ang]: [  2.086469,   2.542959,   1.465225]
  
  Alpha spin:
    <r_h> [Ang]:                  [ -0.000000,   0.000000,   0.000000]
    <r_e> [Ang]:                  [ -0.000000,   0.000000,  -0.000000]
    |<r_e - r_h>| [Ang]:            0.000000
    Hole size [Ang]:                1.251867
      Cartesian components [Ang]: [  0.748191,   0.509912,   0.864507]
    Electron size [Ang]:            3.782303
      Cartesian components [Ang]: [  2.496342,   2.461272,   1.419940]
  
  Beta spin:
    <r_h> [Ang]:                  [ -0.000000,   0.000000,   0.000000]
    <r_e> [Ang]:                  [ -0.000000,   0.000000,   0.000000]
    |<r_e - r_h>| [Ang]:            0.000000
    Hole size [Ang]:                1.251867
      Cartesian components [Ang]: [  0.748191,   0.509912,   0.864507]
    Electron size [Ang]:            3.538835
      Cartesian components [Ang]: [  1.931618,   2.569445,   1.479920]
  ----------------------------------------------------------------------------


  Electron-attached state 9 (B2g)                                  [converged]
  ----------------------------------------------------------------------------
  Term symbol:  9 (2) B2g                                   R^2 =  2.99174e-14

  Total energy:                                            -77.6983794117 a.u.
  Electron attachment energy:                                     16.969371 eV

  Pole strength:                                                      0.000009

  Dip. moment [a.u.]:                  [   0.000000,   -0.000002,    0.000000]
  Total dipole [Debye]:                                               0.000004
  <r^2> [a.u.]:                        [  76.899405,   67.400212,   24.527619]
  Total <r^2> [a.u.]:                                               168.827236

  V1^2 = 0.0000, V2^2 = 1.0000

  Important amplitudes:
       occ i       vir a        vir b           v   
    -------------------------------------------------
     1 (B1u) A    2 (B2u) A    2 (B1g) B      0.5773
     1 (B1u) A    2 (B1g) A    2 (B2u) B      0.2907
    -------------------------------------------------

  Density matrix analysis:
  ------------------------
  NOs (alpha)
    Occupation of frontier NOs:
       0.1698   0.6677
    Number of electrons:  8.000000
  NOs (beta)
    Occupation of frontier NOs:
       0.3344   0.8042
    Number of electrons:  9.000000
  NOs (spin-traced)
    Occupation of frontier NOs:
       0.9379   1.0015
    Number of electrons: 17.000000
    Number of unpaired electrons: n_u =  3.27680, n_u,nl =  3.02315
    NO participation ratio (PR_NO):  3.727562
  
  
  Mulliken Population Analysis
  Atom  Charge (e)    Spin (e)  h+ (alpha)   h+ (beta)  e- (alpha)   e- (beta)
  ----------------------------------------------------------------------------
   1 C   -0.728121    0.495303    0.413103    0.081231   -0.406900   -0.570331
   2 C   -0.728121    0.495303    0.413103    0.081231   -0.406900   -0.570331
   3 H    0.114054    0.002348    0.002366    0.000465   -0.005467   -0.005915
   4 H    0.114073    0.002348    0.002366    0.000465   -0.005467   -0.005915
   5 H    0.114067    0.002348    0.002366    0.000465   -0.005467   -0.005915
   6 H    0.114048    0.002348    0.002366    0.000465   -0.005467   -0.005915
  ----------------------------------------------------------------------------
  Sum:   -1.000000    1.000000    0.835670    0.164323   -0.835670   -1.164323
  
  Multipole moment analysis of the density matrix
    Molecular charge:                      -1.000000
    Number of electrons:                   17.000000
      Center of electronic charge [Ang]: [ -0.000000,   0.000000,   0.000000]
    Total nuclear charge:                  16.000000
      Center of nuclear charge [Ang]:    [  0.000000,   0.000000,   0.000000]
    Dipole moment [D]:                     0.000004
      Cartesian components [D]:          [  0.000000,  -0.000004,   0.000000]
    RMS size of the density [Ang]:         1.667623
      Cartesian components [Ang]:        [  1.125481,   1.053677,   0.635630]
  
  Exciton analysis of the difference density matrix
  Total:
    <r_h> [Ang]:                  [ -0.000000,   0.000000,   0.000000]
    <r_e> [Ang]:                  [ -0.000000,   0.000000,   0.000000]
    |<r_e - r_h>| [Ang]:            0.000000
    Hole size [Ang]:                1.251875
      Cartesian components [Ang]: [  0.748194,   0.509916,   0.864512]
    Electron size [Ang]:            3.600958
      Cartesian components [Ang]: [  2.086480,   2.542945,   1.465239]
  
  Alpha spin:
    <r_h> [Ang]:                  [ -0.000000,   0.000000,   0.000000]
    <r_e> [Ang]:                  [ -0.000000,   0.000000,   0.000000]
    |<r_e - r_h>| [Ang]:            0.000000
    Hole size [Ang]:                1.251868
      Cartesian components [Ang]: [  0.748192,   0.509913,   0.864507]
    Electron size [Ang]:            3.488496
      Cartesian components [Ang]: [  1.798567,   2.590378,   1.491542]
  
  Beta spin:
    <r_h> [Ang]:                  [ -0.000000,   0.000000,   0.000000]
    <r_e> [Ang]:                  [ -0.000000,   0.000000,   0.000000]
    |<r_e - r_h>| [Ang]:            0.000000
    Hole size [Ang]:                1.251907
      Cartesian components [Ang]: [  0.748208,   0.509932,   0.864537]
    Electron size [Ang]:            3.679557
      Cartesian components [Ang]: [  2.270731,   2.508348,   1.446066]
  ----------------------------------------------------------------------------


  Electron-attached state 10 (B2g)                                  [converged]
  ----------------------------------------------------------------------------
  Term symbol:  10 (2) B2g                                  R^2 =  1.18080e-13

  Total energy:                                            -77.6902254923 a.u.
  Electron attachment energy:                                     17.191251 eV

  Pole strength:                                                      0.000018

  Dip. moment [a.u.]:                  [   0.000000,   -0.000000,   -0.000000]
  Total dipole [Debye]:                                               0.000001
  <r^2> [a.u.]:                        [  91.229069,   39.133312,   28.742345]
  Total <r^2> [a.u.]:                                               159.104726

  V1^2 = 0.0000, V2^2 = 1.0000

  Important amplitudes:
       occ i       vir a        vir b           v   
    -------------------------------------------------
     1 (B1u) A    3 (B3u) A    5 (Ag ) B      0.5765
     1 (B1u) B    5 (Ag ) B    3 (B3u) B     -0.3153
    -------------------------------------------------

  Density matrix analysis:
  ------------------------
  NOs (alpha)
    Occupation of frontier NOs:
       0.1695   0.6654
    Number of electrons:  8.000000
  NOs (beta)
    Occupation of frontier NOs:
       0.3360   0.7697
    Number of electrons:  9.000000
  NOs (spin-traced)
    Occupation of frontier NOs:
       0.9379   1.0013
    Number of electrons: 17.000000
    Number of unpaired electrons: n_u =  3.27766, n_u,nl =  3.02327
    NO participation ratio (PR_NO):  3.728375
  
  
  Mulliken Population Analysis
  Atom  Charge (e)    Spin (e)  h+ (alpha)   h+ (beta)  e- (alpha)   e- (beta)
  ----------------------------------------------------------------------------
   1 C   -0.802936    0.544853    0.396032    0.098298   -0.402462   -0.649580
   2 C   -0.802936    0.544853    0.396032    0.098298   -0.402462   -0.649580
   3 H    0.151462   -0.022427    0.002268    0.000563    0.000946    0.025079
   4 H    0.151480   -0.022426    0.002268    0.000563    0.000946    0.025078
   5 H    0.151474   -0.022426    0.002268    0.000563    0.000947    0.025078
   6 H    0.151456   -0.022427    0.002268    0.000563    0.000947    0.025079
  ----------------------------------------------------------------------------
  Sum:   -1.000000    1.000000    0.801137    0.198847   -0.801137   -1.198847
  
  Multipole moment analysis of the density matrix
    Molecular charge:                      -1.000000
    Number of electrons:                   17.000000
      Center of electronic charge [Ang]: [ -0.000000,   0.000000,   0.000000]
    Total nuclear charge:                  16.000000
      Center of nuclear charge [Ang]:    [  0.000000,   0.000000,   0.000000]
    Dipole moment [D]:                     0.000001
      Cartesian components [D]:          [  0.000000,  -0.000001,  -0.000000]
    RMS size of the density [Ang]:         1.618893
      Cartesian components [Ang]:        [  1.225867,   0.802879,   0.688078]
  
  Exciton analysis of the difference density matrix
  Total:
    <r_h> [Ang]:                  [ -0.000000,   0.000000,   0.000000]
    <r_e> [Ang]:                  [ -0.000000,  -0.000000,   0.000000]
    |<r_e - r_h>| [Ang]:            0.000000
    Hole size [Ang]:                1.251867
      Cartesian components [Ang]: [  0.748192,   0.509913,   0.864505]
    Electron size [Ang]:            3.406704
      Cartesian components [Ang]: [  2.521862,   1.583917,   1.654404]
  
  Alpha spin:
    <r_h> [Ang]:                  [ -0.000000,   0.000000,   0.000000]
    <r_e> [Ang]:                  [ -0.000000,  -0.000000,  -0.000000]
    |<r_e - r_h>| [Ang]:            0.000000
    Hole size [Ang]:                1.251868
      Cartesian components [Ang]: [  0.748192,   0.509913,   0.864506]
    Electron size [Ang]:            3.565649
      Cartesian components [Ang]: [  2.758225,   1.589083,   1.606507]
  
  Beta spin:
    <r_h> [Ang]:                  [ -0.000000,   0.000000,   0.000000]
    <r_e> [Ang]:                  [ -0.000000,  -0.000000,   0.000000]
    |<r_e - r_h>| [Ang]:            0.000000
    Hole size [Ang]:                1.251865
      Cartesian components [Ang]: [  0.748194,   0.509913,   0.864500]
    Electron size [Ang]:            3.296219
      Cartesian components [Ang]: [  2.350701,   1.580456,   1.685653]
  ----------------------------------------------------------------------------


--------------------------------------------------------------------------------
  Time of ADC calculation:  CPU 35.18 s  wall 10.14 s
================================================================================
 
 --------------------------------------------------------------
             Orbital Energies (a.u.) and Symmetries
 --------------------------------------------------------------
 
 Alpha MOs, Restricted
 -- Occupied --                  
-11.237 -11.235  -1.042  -0.782  -0.660  -0.567  -0.515  -0.377
  1 Ag    1 B3u   2 Ag    2 B3u   1 B2u   3 Ag    1 B1g   1 B1u                
 -- Virtual --                   
  0.096   0.098   0.104   0.109   0.118   0.143   0.157   0.207
  4 Ag    3 B3u   2 B2u   1 B2g   2 B1u   2 B1g   5 Ag    4 B3u                
  0.211   0.262   0.328   0.337   0.390   0.411   0.411   0.432
  2 B2g   6 Ag    3 B2u   5 B3u   6 B3u   4 B2u   7 Ag    3 B1u                
  0.447   0.520   0.554   0.618   0.841   0.848   0.916   1.003
  3 B1g   3 B2g   4 B1g   7 B3u   8 Ag    5 B2u   8 B3u   9 Ag                 
  1.050   1.114   1.139   1.152   1.171   1.225   1.285   1.290
  5 B1g   1 B3g  10 Ag    9 B3u   6 B2u   4 B1u   1 Au    4 B2g                
  1.313   1.401   1.499   1.629   1.746   1.805   1.884   1.946
  5 B1u  10 B3u   6 B1g  11 Ag    7 B2u   7 B1g   5 B2g   6 B1u                
  1.980   2.017   2.100   2.108   2.186   2.327   2.412   2.484
 11 B3u   2 B3g  12 Ag    8 B2u   6 B2g  12 B3u   2 Au   13 Ag                 
  2.553   2.584   2.885   2.891   3.314   3.359
  8 B1g  13 B3u  14 Ag    9 B2u  14 B3u   9 B1g                                
 
 Beta MOs, Restricted
 -- Occupied --                  
-11.237 -11.235  -1.042  -0.782  -0.660  -0.567  -0.515  -0.377
  1 Ag    1 B3u   2 Ag    2 B3u   1 B2u   3 Ag    1 B1g   1 B1u                
 -- Virtual --                   
  0.096   0.098   0.104   0.109   0.118   0.143   0.157   0.207
  4 Ag    3 B3u   2 B2u   1 B2g   2 B1u   2 B1g   5 Ag    4 B3u                
  0.211   0.262   0.328   0.337   0.390   0.411   0.411   0.432
  2 B2g   6 Ag    3 B2u   5 B3u   6 B3u   4 B2u   7 Ag    3 B1u                
  0.447   0.520   0.554   0.618   0.841   0.848   0.916   1.003
  3 B1g   3 B2g   4 B1g   7 B3u   8 Ag    5 B2u   8 B3u   9 Ag                 
  1.050   1.114   1.139   1.152   1.171   1.225   1.285   1.290
  5 B1g   1 B3g  10 Ag    9 B3u   6 B2u   4 B1u   1 Au    4 B2g                
  1.313   1.401   1.499   1.629   1.746   1.805   1.884   1.946
  5 B1u  10 B3u   6 B1g  11 Ag    7 B2u   7 B1g   5 B2g   6 B1u                
  1.980   2.017   2.100   2.108   2.186   2.327   2.412   2.484
 11 B3u   2 B3g  12 Ag    8 B2u   6 B2g  12 B3u   2 Au   13 Ag                 
  2.553   2.584   2.885   2.891   3.314   3.359
  8 B1g  13 B3u  14 Ag    9 B2u  14 B3u   9 B1g                                
 --------------------------------------------------------------
 
          Ground-State Mulliken Net Atomic Charges

     Atom                 Charge (a.u.)
  ----------------------------------------
      1 C                    -0.228842
      2 C                    -0.228842
      3 H                     0.114415
      4 H                     0.114434
      5 H                     0.114427
      6 H                     0.114408
  ----------------------------------------
  Sum of atomic charges =     0.000000

 -----------------------------------------------------------------
                    Cartesian Multipole Moments
 -----------------------------------------------------------------
    Charge (ESU x 10^10)
                -0.0000
    Dipole Moment (Debye)
         X      -0.0000      Y      -0.0000      Z      -0.0000
       Tot       0.0000
    Quadrupole Moments (Debye-Ang)
        XX     -12.8969     XY       0.0000     YY     -11.9521
        XZ      -0.0000     YZ       0.0000     ZZ     -16.1558
    Octopole Moments (Debye-Ang^2)
       XXX       0.0000    XXY      -0.0000    XYY       0.0000
       YYY      -0.0000    XXZ      -0.0000    XYZ      -0.0000
       YYZ      -0.0000    XZZ       0.0000    YZZ      -0.0000
       ZZZ      -0.0000
    Hexadecapole Moments (Debye-Ang^3)
      XXXX     -67.8193   XXXY       0.0000   XXYY     -13.0923
      XYYY       0.0000   YYYY     -26.7513   XXXZ      -0.0000
      XXYZ       0.0000   XYYZ      -0.0000   YYYZ       0.0000
      XXZZ     -15.6185   XYZZ       0.0000   YYZZ      -9.0113
      XZZZ      -0.0000   YZZZ       0.0000   ZZZZ     -21.6823
 -----------------------------------------------------------------
 Total job time:  91.02s(wall), 77.73s(cpu) 
 Wed Feb 23 19:59:36 2022

        *************************************************************
        *                                                           *
        *  Thank you very much for using Q-Chem.  Have a nice day.  *
        *                                                           *
        *************************************************************


