/src/tsommerfeld/qchem/exe/qcprog.exe .input1.011111.27741.qcin.1 /src/jdavis/qchem.scratch/qchem27741/

                  Welcome to Q-Chem
     A Quantum Leap Into The Future Of Chemistry


 Q-Chem 5.4 (devel), Q-Chem, Inc., Pleasanton, CA (2021)

 E. Epifanovsky,  A. T. B. Gilbert,  Xintian Feng,  Joonho Lee,  Yuezhi Mao,  
 N. Mardirossian,  P. Pokhilko,  A. White,  M. Wormit,  M. P. Coons,  
 A. L. Dempwolff,  Zhengting Gan,  D. Hait,  P. R. Horn,  L. D. Jacobson,  
 I. Kaliman,  J. Kussmann,  A. W. Lange,  Ka Un Lao,  D. S. Levine,  Jie Liu,  
 S. C. McKenzie,  A. F. Morrison,  K. Nanda,  F. Plasser,  D. R. Rehn,  
 M. L. Vidal,  Zhi-Qiang You,  Ying Zhu,  B. Alam,  B. Albrecht,  
 A. Aldossary,  E. Alguire,  J. H. Andersen,  D. Barton,  K. Begam,  A. Behn,  
 Y. A. Bernard,  E. J. Berquist,  H. Burton,  A. Carreras,  K. Carter-Fenk,  
 R. Chakraborty,  A. D. Chien,  K. D. Closser,  V. Cofer-Shabica,  
 S. Dasgupta,  Jia Deng,  M. de Wergifosse,  M. Diedenhofen,  Hainam Do,  
 S. Ehlert,  Po-Tung Fang,  S. Fatehi,  Qingguo Feng,  T. Friedhoff,  
 J. Gayvert,  Qinghui Ge,  G. Gidofalvi,  M. Goldey,  J. Gomes,  
 C. Gonzalez-Espinoza,  S. Gulania,  A. Gunina,  M. W. D. Hanson-Heine,  
 P. H. P. Harbach,  A. W. Hauser,  M. F. Herbst,  M. Hernandez Vera,  
 M. Hodecker,  Z. C. Holden,  S. Houck,  Xunkun Huang,  Kerwin Hui,  
 B. C. Huynh,  M. Ivanov,  Hyunjun Ji,  Hanjie Jiang,  B. Kaduk,  S. Kaehler,  
 K. Khistyaev,  Jaehoon Kim,  P. Klunzinger,  Z. Koczor-Benda,  
 Joong Hoon Koh,  D. Kosenkov,  L. Koulias,  T. Kowalczyk,  C. M. Krauter,  
 K. Kue,  A. Kunitsa,  T. Kus,  A. Landau,  K. V. Lawler,  D. Lefrancois,  
 S. Lehtola,  Rain Li,  Yi-Pei Li,  Jiashu Liang,  M. Liebenthal,  
 Hung-Hsuan Lin,  You-Sheng Lin,  Fenglai Liu,  Kuan-Yu Liu,  
 M. Loipersberger,  A. Luenser,  A. Manjanath,  P. Manohar,  E. Mansoor,  
 S. F. Manzer,  Shan-Ping Mao,  A. V. Marenich,  T. Markovich,  S. Mason,  
 S. A. Maurer,  P. F. McLaughlin,  M. F. S. J. Menger,  J.-M. Mewes,  
 S. A. Mewes,  P. Morgante,  J. W. Mullinax,  K. J. Oosterbaan,  G. Paran,  
 Alexander C. Paul,  Suranjan K. Paul,  F. Pavosevic,  Zheng Pei,  S. Prager,  
 E. I. Proynov,  E. Ramos,  B. Rana,  A. E. Rask,  A. Rettig,  R. M. Richard,  
 F. Rob,  E. Rossomme,  T. Scheele,  M. Scheurer,  M. Schneider,  
 N. Sergueev,  S. M. Sharada,  W. Skomorowski,  D. W. Small,  C. J. Stein,  
 Yu-Chuan Su,  E. J. Sundstrom,  Zhen Tao,  J. Thirman,  T. Tsuchimochi,  
 N. M. Tubman,  S. P. Veccham,  O. Vydrov,  J. Wenzel,  J. Witte,  A. Yamada,  
 Kun Yao,  S. Yeganeh,  S. R. Yost,  A. Zech,  Igor Ying Zhang,  Xing Zhang,  
 Yu Zhang,  D. Zuev,  A. Aspuru-Guzik,  A. T. Bell,  N. A. Besley,  
 K. B. Bravaya,  B. R. Brooks,  D. Casanova,  Jeng-Da Chai,  S. Coriani,  
 C. J. Cramer,  A. E. DePrince, III,  R. A. DiStasio Jr.,  A. Dreuw,  
 B. D. Dunietz,  T. R. Furlani,  W. A. Goddard III,  S. Grimme,  
 S. Hammes-Schiffer,  T. Head-Gordon,  W. J. Hehre,  Chao-Ping Hsu,  
 T.-C. Jagau,  Yousung Jung,  A. Klamt,  Jing Kong,  D. S. Lambrecht,  
 WanZhen Liang,  N. J. Mayhall,  C. W. McCurdy,  J. B. Neaton,  
 C. Ochsenfeld,  J. A. Parkhill,  R. Peverati,  V. A. Rassolov,  Yihan Shao,  
 L. V. Slipchenko,  T. Stauch,  R. P. Steele,  J. E. Subotnik,  
 A. J. W. Thom,  A. Tkatchenko,  D. G. Truhlar,  T. Van Voorhis,  
 T. A. Wesolowski,  K. B. Whaley,  H. L. Woodcock III,  P. M. Zimmerman,  
 S. Faraji,  P. M. W. Gill,  M. Head-Gordon,  J. M. Herbert,  A. I. Krylov

 Additional authors for Version 5.4.1: 
 S. Kotaru,  Shaozhi Li,  Xiangyuan Li,  F. Matz,  A. Molle,  Haisheng Ren,  
 Yingli Su,  Hung-Yi Tsai,  C. Utku,  Fang Wang

 Contributors to earlier versions of Q-Chem not listed above: 
 R. D. Adamson,  B. Austin,  R. Baer,  J. Baker,  G. J. O. Beran,  
 K. Brandhorst,  S. T. Brown,  E. F. C. Byrd,  A. K. Chakraborty,  
 G. K. L. Chan,  Chun-Min Chang,  Yunqing Chen,  C.-L. Cheng,  
 Siu Hung Chien,  D. M. Chipman,  D. L. Crittenden,  H. Dachsel,  
 R. J. Doerksen,  A. D. Dutoi,  R. G. Edgar,  J. Fosso-Tande,  
 L. Fusti-Molnar,  D. Ghosh,  A. Ghysels,  A. Golubeva-Zadorozhnaya,  
 J. Gonthier,  M. S. Gordon,  S. R. Gwaltney,  G. Hawkins,  J. E. Herr,  
 A. Heyden,  S. Hirata,  E. G. Hohenstein,  G. Kedziora,  F. J. Keil,  
 C. Kelley,  Jihan Kim,  R. A. King,  R. Z. Khaliullin,  P. P. Korambath,  
 W. Kurlancheek,  A. Laurent,  A. M. Lee,  M. S. Lee,  S. V. Levchenko,  
 Ching Yeh Lin,  D. Liotard,  E. Livshits,  R. C. Lochan,  I. Lotan,  
 L. A. Martinez-Martinez,  P. E. Maslen,  N. Nair,  D. P. O'Neill,  
 D. Neuhauser,  E. Neuscamman,  C. M. Oana,  R. Olivares-Amaya,  R. Olson,  
 T. M. Perrine,  B. Peters,  P. A. Pieniazek,  A. Prociuk,  Y. M. Rhee,  
 J. Ritchie,  M. A. Rohrdanz,  E. Rosta,  N. J. Russ,  H. F. Schaefer III,  
 M. W. Schmidt,  N. E. Schultz,  S. Sharma,  N. Shenvi,  C. D. Sherrill,  
 A. C. Simmonett,  A. Sodt,  T. Stein,  D. Stuck,  K. S. Thanthiriwatte,  
 V. Vanovschi,  L. Vogt,  Tao Wang,  A. Warshel,  M. A. Watson,  
 C. F. Williams,  Q. Wu,  X. Xu,  Jun Yang,  W. Zhang,  Yan Zhao

 Please cite Q-Chem as follows:
 Y. Shao et al., Mol. Phys. 113, 184-215 (2015)
 DOI: 10.1080/00268976.2014.952696

 Q-Chem 5.4.1 for Intel X86 EM64T Linux

 Parts of Q-Chem use Armadillo 9.900.5 (Nocturnal Misbehaviour).
 http://arma.sourceforge.net/

 Q-Chem begins on Wed Feb 23 19:06:23 2022  

 Host: node01
0

     Scratch files written to /src/jdavis/qchem.scratch/qchem27741//
 Processing $rem in /src/tsommerfeld/qchem/config/preferences:
 Processing $rem in /home/jdavis/.qchemrc:

 Checking the input file for inconsistencies... 	...done.

--------------------------------------------------------------
User input:
--------------------------------------------------------------
$molecule
0 1
C        -0.6645000000    0.0000000000   -0.2082049804
C         0.6645000000    0.0000000000   -0.2082049804
H        -1.1590800000    0.0000000000    0.7541440196
H         1.1590800000    0.0000000000    0.7541440196
H        -1.1590800000    0.0000000000   -1.1705529804
H         1.1590800000    0.0000000000   -1.1705529804
$end

$rem
   METHOD adc(2)
   BASIS gen
   PURECART 11
   EA_STATES [0,0,10,0,0,0,0,0]
   scf_convergence 8
   ADC_DAVIDSON_MAXITER 120
   ADC_DAVIDSON_MAXSUBSPACE 200
   adc_nguess_singles 100
   THRESH 14
   S2THRESH 14
   adc_davidson_conv 5
   adc_davidson_thresh 14
   THREADS 10
   MEM_TOTAL 95000
   STATE_ANALYSIS TRUE
$end
$basis
C 1
S   9   1.00
      6.665000D+03           6.920000D-04
      1.000000D+03           5.329000D-03
      2.280000D+02           2.707700D-02
      6.471000D+01           1.017180D-01
      2.106000D+01           2.747400D-01
      7.495000D+00           4.485640D-01
      2.797000D+00           2.850740D-01
      5.215000D-01           1.520400D-02
      1.596000D-01          -3.191000D-03
S   9   1.00
      6.665000D+03          -1.460000D-04
      1.000000D+03          -1.154000D-03
      2.280000D+02          -5.725000D-03
      6.471000D+01          -2.331200D-02
      2.106000D+01          -6.395500D-02
      7.495000D+00          -1.499810D-01
      2.797000D+00          -1.272620D-01
      5.215000D-01           5.445290D-01
      1.596000D-01           5.804960D-01
S   1   1.00
      1.596000D-01           1.000000D+00
S   1   1.00
      0.0469000              1.0000000
P   4   1.00
      9.439000D+00           3.810900D-02
      2.002000D+00           2.094800D-01
      5.456000D-01           5.085570D-01
      1.517000D-01           4.688420D-01
P   1   1.00
      1.517000D-01           1.000000D+00
P   1   1.00
      0.0438244      1.0000000
P   1   1.00
      0.0219122      1.0000000
D   1   1.00
      5.500000D-01           1.0000000
****
C 2
S   9   1.00
      6.665000D+03           6.920000D-04
      1.000000D+03           5.329000D-03
      2.280000D+02           2.707700D-02
      6.471000D+01           1.017180D-01
      2.106000D+01           2.747400D-01
      7.495000D+00           4.485640D-01
      2.797000D+00           2.850740D-01
      5.215000D-01           1.520400D-02
      1.596000D-01          -3.191000D-03
S   9   1.00
      6.665000D+03          -1.460000D-04
      1.000000D+03          -1.154000D-03
      2.280000D+02          -5.725000D-03
      6.471000D+01          -2.331200D-02
      2.106000D+01          -6.395500D-02
      7.495000D+00          -1.499810D-01
      2.797000D+00          -1.272620D-01
      5.215000D-01           5.445290D-01
      1.596000D-01           5.804960D-01
S   1   1.00
      1.596000D-01           1.000000D+00
S   1   1.00
      0.0469000              1.0000000
P   4   1.00
      9.439000D+00           3.810900D-02
      2.002000D+00           2.094800D-01
      5.456000D-01           5.085570D-01
      1.517000D-01           4.688420D-01
P   1   1.00
      1.517000D-01           1.000000D+00
P   1   1.00
      0.0438244      1.0000000
P   1   1.00
      0.0219122      1.0000000
D   1   1.00
      5.500000D-01           1.0000000
****
H 3
cc-pVDZ
****
H 4
cc-pVDZ
****
H 5
cc-pVDZ
****
H 6
cc-pVDZ
****
H 7
aug-cc-pVDZ
****
$end
--------------------------------------------------------------
 Atom   2: ( -0.6645000000, -0.0000001250,  0.0000000000)
         ->( -0.6645000000,  0.0000001250, -0.0000000000)
 Atom   1: (  0.6645000000, -0.0000001250, -0.0000000000)
         ->(  0.6645000000,  0.0000000000,  0.0000000000)
 Atom   6: ( -1.1590800000, -0.9623481250, -0.0000000000)
         ->( -1.1590800000, -0.9623488750,  0.0000000000)
 Atom   5: (  1.1590800000, -0.9623481250, -0.0000000000)
         ->(  1.1590800000, -0.9623488750, -0.0000000000)
 ----------------------------------------------------------------
             Standard Nuclear Orientation (Angstroms)
    I     Atom           X                Y                Z
 ----------------------------------------------------------------
    1      C       0.6645000000     0.0000000000     0.0000000000
    2      C      -0.6645000000     0.0000001250    -0.0000000000
    3      H       1.1590800000     0.9623488750     0.0000000000
    4      H      -1.1590800000     0.9623488750     0.0000000000
    5      H       1.1590800000    -0.9623488750    -0.0000000000
    6      H      -1.1590800000    -0.9623488750     0.0000000000
 ----------------------------------------------------------------
 Molecular Point Group                 D2h   NOp =  8
 Largest Abelian Subgroup              D2h   NOp =  8
 Nuclear Repulsion Energy =          33.58921667 hartrees
 There are        8 alpha and        8 beta electrons
 Requested basis set is non-standard
 There are 30 shells and 62 basis functions
 Total memory of 95000 MB is distributed as follows: 
   MEM_STATIC is set to 192 MB
   QALLOC/CCMAN JOB total memory use is  94808 MB
 Warning: actual memory use might exceed 95000 MB

 Total QAlloc Memory Limit  95000 MB
 Mega-Array Size       188 MB
 MEM_STATIC part       192 MB

                       Distance Matrix (Angstroms)
             C (  1)   C (  2)   H (  3)   H (  4)   H (  5)
   C (  2)  1.329000
   H (  3)  1.082000  2.061931
   H (  4)  2.061931  1.082000  2.318160
   H (  5)  1.082000  2.061931  1.924698  3.013026
   H (  6)  2.061931  1.082000  3.013026  1.924698  2.318160
 
 A cutoff of  1.0D-14 yielded    465 shell pairs
 There are      2009 function pairs (      2146 Cartesian)
 Smallest overlap matrix eigenvalue = 2.01E-04

 Scale SEOQF with 1.000000e-01/1.000000e-01/1.000000e-01

 Standard Electronic Orientation quadrupole field applied
 Nucleus-field energy     =     0.0000000006 hartrees
 ================ Generating on-the-fly SAD Guess ================
Attempting to make child job directory: /src/jdavis/qchem.scratch/qchem27741//Frg1/
Attempting to make child job directory: /src/jdavis/qchem.scratch/qchem27741//Frg2/
Creating input file /src/jdavis/qchem.scratch/qchem27741/Frg1.input
using default PutDataFrgm: nothing
calling putenv with: QCSCRATCH=/src/jdavis/qchem.scratch/qchem27741/ 
Spawning Job For Fragment 0
Done Job For Fragment 0
calling putenv with: QCSCRATCH=/src/jdavis/qchem.scratch 
calling putenv with: QCTHREADS=1 
Creating input file /src/jdavis/qchem.scratch/qchem27741/Frg2.input
using default PutDataFrgm: nothing
calling putenv with: QCSCRATCH=/src/jdavis/qchem.scratch/qchem27741/ 
Spawning Job For Fragment 1
Done Job For Fragment 1
calling putenv with: QCSCRATCH=/src/jdavis/qchem.scratch 
calling putenv with: QCTHREADS=1 
 Time for running child jobs:  CPU 1.80 s  wall 53.16 s
 ============= Method Specific SAD Guess Constructed =============
 Guess from on-the-fly superposition of atomic densities
 Warning: Energy on first SCF cycle will be non-variational
 A restricted Hartree-Fock SCF calculation will be
 performed using Pulay DIIS extrapolation
 SCF converges when DIIS error is below 1.0E-08
 using 10 threads for integral computing
 -------------------------------------------------------
 OpenMP Integral computing Module                
 Release: version 1.0, May 2013, Q-Chem Inc. Pittsburgh 
 -------------------------------------------------------
 ---------------------------------------
  Cycle       Energy         DIIS Error
 ---------------------------------------
    1     -78.4569514458      7.95E-02
    2     -78.0142384015      5.76E-03
    3     -78.0355801555      1.51E-03
    4     -78.0372165595      5.02E-04
    5     -78.0373868687      6.04E-05
    6     -78.0373917374      1.26E-05
    7     -78.0373921187      2.98E-06
    8     -78.0373921813      2.69E-07
    9     -78.0373921874      3.26E-08
   10     -78.0373921878      3.53E-09 Convergence criterion met
 ---------------------------------------
 SCF time:  CPU 8.06 s  wall 0.81 s
 SCF   energy in the final basis set = -78.03739219
 Total energy in the final basis set = -78.03739219
================================================================================
|                                                                              |
|                                 A D C  M A N                                 |
|                                                                              |
 ------------------------------------------------------------------------------ 
|                                                                              |
| Components:                                                                  |
|                                                                              |
| - libvmm - 1.3-trunk                                                         |
|   Authors:                                                                   |
|   Evgeny Epifanovsky, Ilya Kaliman                                           |
|                                                                              |
| - libtensor - 2.5-trunk                                                      |
|   Authors:                                                                   |
|   Evgeny Epifanovsky, Michael Wormit, Dmitry Zuev, Sam Manzer,               |
|   Ilya Kaliman                                                               |
|                                                                              |
| - libwfa - 1.1-trunk                                                         |
|   Authors:                                                                   |
|   Felix Plasser, Stefanie Mewes (Baeppler), Benjamin Thomitzni,              |
|   Michael Wormit, Feng Chen, Anna I. Krylov, Pavel Pokhilko                  |
|                                                                              |
| - libadc - 1.1-trunk                                                         |
|   Authors:                                                                   |
|   Michael Wormit, Adrian L. Dempwolff, Philipp H. P. Harbach,                |
|   Caroline Krauter, Dirk Rehn, Matthias Schneider, Jan Wenzel                |
|                                                                              |
| - adcman - 2.6-trunk                                                         |
|   Authors:                                                                   |
|   Michael Wormit, Adrian L. Dempwolff, Philipp H. P. Harbach,                |
|   Caroline Krauter, Daniel Lefrancois, Jan-Michael Mewes, Dirk Rehn,         |
|   Matthias Schneider, Jan Wenzel, Andreas Dreuw                              |
|                                                                              |
| Authors of earlier versions of ADCMAN:                                       |
| Andreas Dreuw, Jan Hendrik Starcke, Dirk Rehn, Michael Wormit                |
|                                                                              |
================================================================================

 
 Alpha MOs, Restricted
 -- Occupied --                  
-11.237 -11.235  -1.042  -0.782  -0.661  -0.567  -0.515  -0.377
  1 Ag    1 B3u   2 Ag    2 B3u   1 B2u   3 Ag    1 B1g   1 B1u                
 -- Virtual --                   
  0.043   0.044   0.051   0.062   0.064   0.066   0.103   0.135
  3 B3u   2 B2u   2 B1u   2 B1g   1 B2g   4 Ag    5 Ag    2 B2g                
  0.152   0.181   0.199   0.207   0.215   0.261   0.266   0.283
  4 B3u   3 B2u   3 B1g   3 B1u   6 Ag    5 B3u   7 Ag    3 B2g                
  0.341   0.349   0.482   0.517   0.710   0.795   0.861   0.893
  4 B2u   6 B3u   4 B1g   7 B3u   8 Ag    5 B2u   9 Ag    4 B1u                
  0.896   0.933   0.947   0.976   1.030   1.057   1.114   1.284
  6 B2u   8 B3u   4 B2g   9 B3u  10 Ag    5 B1g   1 B3g   5 B1u                
  1.284   1.336   1.346   1.608   1.615   1.700   1.852   1.911
  1 Au   10 B3u   6 B1g  11 Ag    7 B1g   7 B2u   5 B2g  11 B3u                
  1.939   1.993   2.017   2.048   2.172   2.297   2.412   2.444
  6 B1u  12 Ag    2 B3g   8 B2u   6 B2g  12 B3u   2 Au   13 Ag                 
  2.555   2.570   2.799   2.802   3.257   3.340
  8 B1g  13 B3u   9 B2u  14 Ag   14 B3u   9 B1g                                
 
 Beta MOs, Restricted
 -- Occupied --                  
-11.237 -11.235  -1.042  -0.782  -0.661  -0.567  -0.515  -0.377
  1 Ag    1 B3u   2 Ag    2 B3u   1 B2u   3 Ag    1 B1g   1 B1u                
 -- Virtual --                   
  0.043   0.044   0.051   0.062   0.064   0.066   0.103   0.135
  3 B3u   2 B2u   2 B1u   2 B1g   1 B2g   4 Ag    5 Ag    2 B2g                
  0.152   0.181   0.199   0.207   0.215   0.261   0.266   0.283
  4 B3u   3 B2u   3 B1g   3 B1u   6 Ag    5 B3u   7 Ag    3 B2g                
  0.341   0.349   0.482   0.517   0.710   0.795   0.861   0.893
  4 B2u   6 B3u   4 B1g   7 B3u   8 Ag    5 B2u   9 Ag    4 B1u                
  0.896   0.933   0.947   0.976   1.030   1.057   1.114   1.284
  6 B2u   8 B3u   4 B2g   9 B3u  10 Ag    5 B1g   1 B3g   5 B1u                
  1.284   1.336   1.346   1.608   1.615   1.700   1.852   1.911
  1 Au   10 B3u   6 B1g  11 Ag    7 B1g   7 B2u   5 B2g  11 B3u                
  1.939   1.993   2.017   2.048   2.172   2.297   2.412   2.444
  6 B1u  12 Ag    2 B3g   8 B2u   6 B2g  12 B3u   2 Au   13 Ag                 
  2.555   2.570   2.799   2.802   3.257   3.340
  8 B1g  13 B3u   9 B2u  14 Ag   14 B3u   9 B1g                                

--------------------------------------------------------------------------------
                                   HF Summary                                   
--------------------------------------------------------------------------------
  Energy:                                                  -78.0373921878 a.u.
  Dip. moment [a.u.]:                  [   0.000000,   -0.000001,    0.000000]
  Total dipole [Debye]:                                               0.000001
  <r^2> [a.u.]:                        [  47.726401,   22.122427,   11.984786]
  Total <r^2> [a.u.]:                                                81.833614
--------------------------------------------------------------------------------

--------------------------------------------------------------------------------
                                 MP(2) Summary                                  
--------------------------------------------------------------------------------
  MP energy contribution:                                   -0.2818001586 a.u.
  Total energy:                                            -78.3191923464 a.u.
  Dip. moment [a.u.]:                  [   0.000000,   -0.000001,    0.000000]
  Total dipole [Debye]:                                               0.000002
  <r^2> [a.u.]:                        [  47.834929,   22.155319,   11.839269]
  Total <r^2> [a.u.]:                                                81.829517

  Density matrix analysis:
  ------------------------
  NOs (alpha)
    Occupation of frontier NOs:
       0.0223   0.9686
    Number of electrons:  8.000000
  NOs (beta)
    Occupation of frontier NOs:
       0.0223   0.9686
    Number of electrons:  8.000000
  NOs (spin-traced)
    Occupation of frontier NOs:
       0.0447   1.9372
    Number of electrons: 16.000000
    Number of unpaired electrons: n_u =  0.40876, n_u,nl =  0.04592
    NO participation ratio (PR_NO): 13.958658
  
  
  Mulliken Population Analysis
  Atom  Charge (e)    Spin (e)  h+ (alpha)   h+ (beta)  e- (alpha)   e- (beta)
  ----------------------------------------------------------------------------
   1 C   -0.167361    0.000000    0.043929    0.043929   -0.051116   -0.051116
   2 C   -0.167361    0.000000    0.043929    0.043929   -0.051116   -0.051116
   3 H    0.083680    0.000000    0.008813    0.008813   -0.005219   -0.005219
   4 H    0.083684    0.000000    0.008813    0.008813   -0.005219   -0.005219
   5 H    0.083681    0.000000    0.008813    0.008813   -0.005219   -0.005219
   6 H    0.083677    0.000000    0.008813    0.008813   -0.005219   -0.005219
  ----------------------------------------------------------------------------
  Sum:    0.000000    0.000000    0.123109    0.123109   -0.123109   -0.123109
  
  Multipole moment analysis of the density matrix
    Molecular charge:                      0.000000
    Number of electrons:                   16.000000
      Center of electronic charge [Ang]: [ -0.000000,   0.000000,  -0.000000]
    Total nuclear charge:                  16.000000
      Center of nuclear charge [Ang]:    [  0.000000,   0.000000,   0.000000]
    Dipole moment [D]:                     0.000002
      Cartesian components [D]:          [  0.000000,  -0.000002,   0.000000]
    RMS size of the density [Ang]:         1.196730
      Cartesian components [Ang]:        [  0.914984,   0.622702,   0.455201]
  
  Exciton analysis of the difference density matrix
  Total:
    <r_h> [Ang]:                  [  0.000000,   0.000000,  -0.000000]
    <r_e> [Ang]:                  [  0.000000,   0.000000,  -0.000000]
    |<r_e - r_h>| [Ang]:            0.000000
    Hole size [Ang]:                1.421846
      Cartesian components [Ang]: [  0.967349,   0.727694,   0.745886]
    Electron size [Ang]:            1.420207
      Cartesian components [Ang]: [  1.029172,   0.752959,   0.625177]
  
  Alpha spin:
    <r_h> [Ang]:                  [  0.000000,   0.000000,  -0.000000]
    <r_e> [Ang]:                  [  0.000000,   0.000000,  -0.000000]
    |<r_e - r_h>| [Ang]:            0.000000
    Hole size [Ang]:                1.421846
      Cartesian components [Ang]: [  0.967349,   0.727694,   0.745886]
    Electron size [Ang]:            1.420207
      Cartesian components [Ang]: [  1.029172,   0.752959,   0.625177]
  
  Beta spin:
    <r_h> [Ang]:                  [  0.000000,   0.000000,  -0.000000]
    <r_e> [Ang]:                  [  0.000000,   0.000000,  -0.000000]
    |<r_e - r_h>| [Ang]:            0.000000
    Hole size [Ang]:                1.421846
      Cartesian components [Ang]: [  0.967349,   0.727694,   0.745886]
    Electron size [Ang]:            1.420207
      Cartesian components [Ang]: [  1.029172,   0.752959,   0.625177]
--------------------------------------------------------------------------------
Less particle guess vectors found than requested: 6 (found), 100 (requested).
Adjusting number of hole-2particle guess vectors to 94.
  Starting Davidson for electron-attached states of irrep B2g ... 
--------------------------------------------------------------------------------
   It NVec Conv  Avg. Norm  Max. Norm  Conv. states           Remark
--------------------------------------------------------------------------------
       100    0  4.271e-02  3.287e-01  0.0635 n n n n n n n n Guess.
    1  110    7  9.062e-05  7.121e-04  0.0596 n n n y y y y y 
    2  120   10  5.237e-10  4.577e-09  0.0596 y y y y y y y y Converged.
--------------------------------------------------------------------------------
  Davidson Summary: 
 ------------------------------------------------------------
  State  0: electron attachment energy =   0.0596 a.u.   (converged)
  State  1: electron attachment energy =   0.0994 a.u.   (converged)
  State  2: electron attachment energy =   0.2453 a.u.   (converged)
  State  3: electron attachment energy =   0.4838 a.u.   (converged)
  State  4: electron attachment energy =   0.4838 a.u.   (converged)
  State  5: electron attachment energy =   0.4855 a.u.   (converged)
  State  6: electron attachment energy =   0.4855 a.u.   (converged)
  State  7: electron attachment energy =   0.4910 a.u.   (converged)
  State  8: electron attachment energy =   0.4911 a.u.   (converged)
  State  9: electron attachment energy =   0.5227 a.u.   (converged)
 ------------------------------------------------------------


--------------------------------------------------------------------------------
                        Electron-Attached State Summary
--------------------------------------------------------------------------------

  Electron-attached state 1 (B2g)                                  [converged]
  ----------------------------------------------------------------------------
  Term symbol:  1 (2) B2g                                   R^2 =  2.17687e-09

  Total energy:                                            -78.2595925738 a.u.
  Electron attachment energy:                                      1.621792 eV

  Pole strength:                                                      0.989360

  Dip. moment [a.u.]:                  [   0.000000,   -0.000001,    0.000000]
  Total dipole [Debye]:                                               0.000002
  <r^2> [a.u.]:                        [  83.631823,   34.025690,   46.764695]
  Total <r^2> [a.u.]:                                               164.422208

  V1^2 = 0.9918, V2^2 = 0.0082

  Important amplitudes:
       occ i       vir a        vir b           v   
    -------------------------------------------------
                               1 (B2g) B      0.9776
                               2 (B2g) B      0.1818
    -------------------------------------------------

  Density matrix analysis:
  ------------------------
  NOs (alpha)
    Occupation of frontier NOs:
       0.0215   0.9678
    Number of electrons:  8.000000
  NOs (beta)
    Occupation of frontier NOs:
       0.0243   0.9693
    Number of electrons:  9.000000
  NOs (spin-traced)
    Occupation of frontier NOs:
       0.0434   0.9951
    Number of electrons: 17.000000
    Number of unpaired electrons: n_u =  1.41497, n_u,nl =  1.04681
    NO participation ratio (PR_NO):  1.997371
  
  
  Mulliken Population Analysis
  Atom  Charge (e)    Spin (e)  h+ (alpha)   h+ (beta)  e- (alpha)   e- (beta)
  ----------------------------------------------------------------------------
   1 C   -0.644625    0.509428    0.017991    0.017664   -0.001909   -0.511010
   2 C   -0.644625    0.509428    0.017991    0.017664   -0.001909   -0.511010
   3 H    0.072312   -0.004714   -0.000199    0.001221   -0.007842   -0.004548
   4 H    0.072316   -0.004714   -0.000199    0.001221   -0.007842   -0.004548
   5 H    0.072313   -0.004714   -0.000199    0.001221   -0.007842   -0.004548
   6 H    0.072309   -0.004714   -0.000199    0.001221   -0.007842   -0.004548
  ----------------------------------------------------------------------------
  Sum:   -1.000000    1.000000    0.035185    0.040212   -0.035185   -1.040212
  
  Multipole moment analysis of the density matrix
    Molecular charge:                      -1.000000
    Number of electrons:                   17.000000
      Center of electronic charge [Ang]: [ -0.000000,   0.000000,  -0.000000]
    Total nuclear charge:                  16.000000
      Center of nuclear charge [Ang]:    [  0.000000,   0.000000,   0.000000]
    Dipole moment [D]:                     0.000002
      Cartesian components [D]:          [  0.000000,  -0.000002,   0.000000]
    RMS size of the density [Ang]:         1.645724
      Cartesian components [Ang]:        [  1.173714,   0.748652,   0.877679]
  
  Exciton analysis of the difference density matrix
  Total:
    <r_h> [Ang]:                  [  0.000000,   0.000000,  -0.000000]
    <r_e> [Ang]:                  [ -0.000000,   0.000000,  -0.000000]
    |<r_e - r_h>| [Ang]:            0.000000
    Hole size [Ang]:                1.736069
      Cartesian components [Ang]: [  1.132970,   0.874213,   0.982887]
    Electron size [Ang]:            4.660266
      Cartesian components [Ang]: [  3.067792,   1.773295,   3.026906]
  
  Alpha spin:
    <r_h> [Ang]:                  [  0.000000,   0.000000,  -0.000000]
    <r_e> [Ang]:                  [  0.000000,   0.000000,   0.000000]
    |<r_e - r_h>| [Ang]:            0.000000
    Hole size [Ang]:                1.475587
      Cartesian components [Ang]: [  1.042747,   0.770571,   0.704456]
    Electron size [Ang]:            2.202504
      Cartesian components [Ang]: [  1.412490,   1.312491,   1.064547]
  
  Beta spin:
    <r_h> [Ang]:                  [  0.000000,  -0.000000,  -0.000000]
    <r_e> [Ang]:                  [ -0.000000,   0.000000,  -0.000000]
    |<r_e - r_h>| [Ang]:            0.000000
    Hole size [Ang]:                1.935439
      Cartesian components [Ang]: [  1.206391,   0.955722,   1.173517]
    Electron size [Ang]:            4.721080
      Cartesian components [Ang]: [  3.108408,   1.786805,   3.071438]
  ----------------------------------------------------------------------------


  Electron-attached state 2 (B2g)                                  [converged]
  ----------------------------------------------------------------------------
  Term symbol:  2 (2) B2g                                   R^2 =  4.57704e-09

  Total energy:                                            -78.2198268056 a.u.
  Electron attachment energy:                                      2.703874 eV

  Pole strength:                                                      0.947604

  Dip. moment [a.u.]:                  [   0.000000,   -0.000001,   -0.000000]
  Total dipole [Debye]:                                               0.000002
  <r^2> [a.u.]:                        [  66.261099,   28.880432,   28.761340]
  Total <r^2> [a.u.]:                                               123.902871

  V1^2 = 0.9600, V2^2 = 0.0400

  Important amplitudes:
       occ i       vir a        vir b           v   
    -------------------------------------------------
                               2 (B2g) B     -0.9402
                               1 (B2g) B      0.2023
    -------------------------------------------------

  Density matrix analysis:
  ------------------------
  NOs (alpha)
    Occupation of frontier NOs:
       0.0181   0.9669
    Number of electrons:  8.000000
  NOs (beta)
    Occupation of frontier NOs:
       0.0208   0.9767
    Number of electrons:  9.000000
  NOs (spin-traced)
    Occupation of frontier NOs:
       0.0285   0.9887
    Number of electrons: 17.000000
    Number of unpaired electrons: n_u =  1.41855, n_u,nl =  1.04425
    NO participation ratio (PR_NO):  2.034610
  
  
  Mulliken Population Analysis
  Atom  Charge (e)    Spin (e)  h+ (alpha)   h+ (beta)  e- (alpha)   e- (beta)
  ----------------------------------------------------------------------------
   1 C   -0.552264    0.527954    0.095575    0.071428   -0.024050   -0.527857
   2 C   -0.552264    0.527954    0.095575    0.071428   -0.024050   -0.527857
   3 H    0.026131   -0.013977    0.000538    0.005260   -0.036301   -0.027046
   4 H    0.026135   -0.013977    0.000538    0.005260   -0.036301   -0.027046
   5 H    0.026133   -0.013977    0.000538    0.005260   -0.036301   -0.027046
   6 H    0.026129   -0.013977    0.000538    0.005260   -0.036301   -0.027046
  ----------------------------------------------------------------------------
  Sum:   -1.000000    1.000000    0.193302    0.163899   -0.193302   -1.163899
  
  Multipole moment analysis of the density matrix
    Molecular charge:                      -1.000000
    Number of electrons:                   17.000000
      Center of electronic charge [Ang]: [ -0.000000,   0.000000,   0.000000]
    Total nuclear charge:                  16.000000
      Center of nuclear charge [Ang]:    [  0.000000,   0.000000,   0.000000]
    Dipole moment [D]:                     0.000002
      Cartesian components [D]:          [  0.000000,  -0.000002,  -0.000000]
    RMS size of the density [Ang]:         1.428622
      Cartesian components [Ang]:        [  1.044735,   0.689729,   0.688305]
  
  Exciton analysis of the difference density matrix
  Total:
    <r_h> [Ang]:                  [  0.000000,   0.000000,  -0.000000]
    <r_e> [Ang]:                  [  0.000000,   0.000000,   0.000000]
    |<r_e - r_h>| [Ang]:            0.000000
    Hole size [Ang]:                1.429761
      Cartesian components [Ang]: [  1.015720,   0.726732,   0.695981]
    Electron size [Ang]:            3.036268
      Cartesian components [Ang]: [  2.018257,   1.235548,   1.902362]
  
  Alpha spin:
    <r_h> [Ang]:                  [  0.000000,   0.000000,  -0.000000]
    <r_e> [Ang]:                  [  0.000000,  -0.000000,   0.000000]
    |<r_e - r_h>| [Ang]:            0.000000
    Hole size [Ang]:                1.411707
      Cartesian components [Ang]: [  1.008189,   0.708582,   0.688756]
    Electron size [Ang]:            2.178611
      Cartesian components [Ang]: [  1.423472,   1.246878,   1.079523]
  
  Beta spin:
    <r_h> [Ang]:                  [  0.000000,  -0.000000,  -0.000000]
    <r_e> [Ang]:                  [  0.000000,   0.000000,   0.000000]
    |<r_e - r_h>| [Ang]:            0.000000
    Hole size [Ang]:                1.450764
      Cartesian components [Ang]: [  1.024531,   0.747573,   0.704406]
    Electron size [Ang]:            3.156222
      Cartesian components [Ang]: [  2.100797,   1.233657,   2.006610]
  ----------------------------------------------------------------------------


  Electron-attached state 3 (B2g)                                  [converged]
  ----------------------------------------------------------------------------
  Term symbol:  3 (2) B2g                                   R^2 =  1.31672e-09

  Total energy:                                            -78.0739086079 a.u.
  Electron attachment energy:                                      6.674510 eV

  Pole strength:                                                      0.961650

  Dip. moment [a.u.]:                  [   0.000000,   -0.000001,   -0.000000]
  Total dipole [Debye]:                                               0.000002
  <r^2> [a.u.]:                        [  67.982380,   29.238790,   31.214587]
  Total <r^2> [a.u.]:                                               128.435757

  V1^2 = 0.9661, V2^2 = 0.0339

  Important amplitudes:
       occ i       vir a        vir b           v   
    -------------------------------------------------
                               3 (B2g) B      0.9549
                               2 (B2g) B      0.2248
    -------------------------------------------------

  Density matrix analysis:
  ------------------------
  NOs (alpha)
    Occupation of frontier NOs:
       0.0263   0.9578
    Number of electrons:  8.000000
  NOs (beta)
    Occupation of frontier NOs:
       0.0321   0.9710
    Number of electrons:  9.000000
  NOs (spin-traced)
    Occupation of frontier NOs:
       0.0533   0.9766
    Number of electrons: 17.000000
    Number of unpaired electrons: n_u =  1.45335, n_u,nl =  1.05900
    NO participation ratio (PR_NO):  2.178566
  
  
  Mulliken Population Analysis
  Atom  Charge (e)    Spin (e)  h+ (alpha)   h+ (beta)  e- (alpha)   e- (beta)
  ----------------------------------------------------------------------------
   1 C   -0.589317    0.507733    0.058321    0.039191   -0.015433   -0.504035
   2 C   -0.589317    0.507733    0.058321    0.039191   -0.015433   -0.504035
   3 H    0.044658   -0.003866   -0.000240    0.000373   -0.021204   -0.017951
   4 H    0.044662   -0.003866   -0.000241    0.000373   -0.021204   -0.017951
   5 H    0.044659   -0.003866   -0.000241    0.000373   -0.021204   -0.017951
   6 H    0.044655   -0.003866   -0.000240    0.000373   -0.021204   -0.017951
  ----------------------------------------------------------------------------
  Sum:   -1.000000    1.000000    0.115680    0.079874   -0.115680   -1.079874
  
  Multipole moment analysis of the density matrix
    Molecular charge:                      -1.000000
    Number of electrons:                   17.000000
      Center of electronic charge [Ang]: [ -0.000000,   0.000000,   0.000000]
    Total nuclear charge:                  16.000000
      Center of nuclear charge [Ang]:    [  0.000000,   0.000000,   0.000000]
    Dipole moment [D]:                     0.000002
      Cartesian components [D]:          [  0.000000,  -0.000002,  -0.000000]
    RMS size of the density [Ang]:         1.454520
      Cartesian components [Ang]:        [  1.058217,   0.693995,   0.717060]
  
  Exciton analysis of the difference density matrix
  Total:
    <r_h> [Ang]:                  [  0.000000,   0.000000,  -0.000000]
    <r_e> [Ang]:                  [  0.000000,   0.000000,   0.000000]
    |<r_e - r_h>| [Ang]:            0.000000
    Hole size [Ang]:                1.336242
      Cartesian components [Ang]: [  0.974651,   0.691267,   0.598121]
    Electron size [Ang]:            3.347895
      Cartesian components [Ang]: [  2.207808,   1.318061,   2.143991]
  
  Alpha spin:
    <r_h> [Ang]:                  [  0.000000,   0.000000,  -0.000000]
    <r_e> [Ang]:                  [  0.000000,   0.000000,  -0.000000]
    |<r_e - r_h>| [Ang]:            0.000000
    Hole size [Ang]:                1.297484
      Cartesian components [Ang]: [  0.945792,   0.651695,   0.603520]
    Electron size [Ang]:            2.126532
      Cartesian components [Ang]: [  1.399787,   1.219488,   1.037103]
  
  Beta spin:
    <r_h> [Ang]:                  [  0.000000,   0.000000,  -0.000000]
    <r_e> [Ang]:                  [  0.000000,   0.000000,   0.000000]
    |<r_e - r_h>| [Ang]:            0.000000
    Hole size [Ang]:                1.390461
      Cartesian components [Ang]: [  1.014993,   0.744860,   0.590215]
    Electron size [Ang]:            3.453210
      Cartesian components [Ang]: [  2.277429,   1.328187,   2.230223]
  ----------------------------------------------------------------------------


  Electron-attached state 4 (B2g)                                  [converged]
  ----------------------------------------------------------------------------
  Term symbol:  4 (2) B2g                                   R^2 =  1.72006e-13

  Total energy:                                            -77.8354271298 a.u.
  Electron attachment energy:                                     13.163921 eV

  Pole strength:                                                      0.000000

  Dip. moment [a.u.]:                  [   0.000000,   -0.000000,    0.000000]
  Total dipole [Debye]:                                               0.000001
  <r^2> [a.u.]:                        [ 109.744262,  116.320753,   40.571843]
  Total <r^2> [a.u.]:                                               266.636858

  V1^2 = 0.0000, V2^2 = 1.0000

  Important amplitudes:
       occ i       vir a        vir b           v   
    -------------------------------------------------
     1 (B1u) A    2 (B1g) A    2 (B2u) B      0.5228
     1 (B1u) B    2 (B1g) B    2 (B2u) B      0.4736
    -------------------------------------------------

  Density matrix analysis:
  ------------------------
  NOs (alpha)
    Occupation of frontier NOs:
       0.4178   0.5467
    Number of electrons:  8.000000
  NOs (beta)
    Occupation of frontier NOs:
       0.4535   0.5204
    Number of electrons:  9.000000
  NOs (spin-traced)
    Occupation of frontier NOs:
       0.9382   1.0002
    Number of electrons: 17.000000
    Number of unpaired electrons: n_u =  3.28169, n_u,nl =  3.02338
    NO participation ratio (PR_NO):  3.730746
  
  
  Mulliken Population Analysis
  Atom  Charge (e)    Spin (e)  h+ (alpha)   h+ (beta)  e- (alpha)   e- (beta)
  ----------------------------------------------------------------------------
   1 C   -0.613385    0.474892    0.272498    0.221699   -0.258063   -0.682156
   2 C   -0.613385    0.474892    0.272498    0.221699   -0.258063   -0.682156
   3 H    0.056691    0.012554    0.001600    0.001302   -0.008817   -0.021073
   4 H    0.056696    0.012554    0.001600    0.001302   -0.008817   -0.021073
   5 H    0.056693    0.012554    0.001600    0.001302   -0.008817   -0.021073
   6 H    0.056689    0.012554    0.001600    0.001302   -0.008817   -0.021073
  ----------------------------------------------------------------------------
  Sum:   -1.000000    1.000000    0.551396    0.448604   -0.551396   -1.448604
  
  Multipole moment analysis of the density matrix
    Molecular charge:                      -1.000000
    Number of electrons:                   17.000000
      Center of electronic charge [Ang]: [ -0.000000,   0.000000,  -0.000000]
    Total nuclear charge:                  16.000000
      Center of nuclear charge [Ang]:    [  0.000000,   0.000000,   0.000000]
    Dipole moment [D]:                     0.000001
      Cartesian components [D]:          [  0.000000,  -0.000001,   0.000000]
    RMS size of the density [Ang]:         2.095737
      Cartesian components [Ang]:        [  1.344521,   1.384220,   0.817502]
  
  Exciton analysis of the difference density matrix
  Total:
    <r_h> [Ang]:                  [ -0.000000,   0.000000,  -0.000000]
    <r_e> [Ang]:                  [  0.000000,  -0.000000,  -0.000000]
    |<r_e - r_h>| [Ang]:            0.000000
    Hole size [Ang]:                1.251955
      Cartesian components [Ang]: [  0.747848,   0.510315,   0.864693]
    Electron size [Ang]:            5.163270
      Cartesian components [Ang]: [  2.991292,   3.648933,   2.096859]
  
  Alpha spin:
    <r_h> [Ang]:                  [ -0.000000,   0.000000,  -0.000000]
    <r_e> [Ang]:                  [ -0.000000,  -0.000000,  -0.000000]
    |<r_e - r_h>| [Ang]:            0.000000
    Hole size [Ang]:                1.251955
      Cartesian components [Ang]: [  0.747848,   0.510315,   0.864693]
    Electron size [Ang]:            5.485204
      Cartesian components [Ang]: [  3.601815,   3.587118,   2.060818]
  
  Beta spin:
    <r_h> [Ang]:                  [ -0.000000,   0.000000,  -0.000000]
    <r_e> [Ang]:                  [  0.000000,   0.000000,  -0.000000]
    |<r_e - r_h>| [Ang]:            0.000000
    Hole size [Ang]:                1.251955
      Cartesian components [Ang]: [  0.747848,   0.510315,   0.864693]
    Electron size [Ang]:            5.035324
      Cartesian components [Ang]: [  2.723171,   3.672189,   2.110416]
  ----------------------------------------------------------------------------


  Electron-attached state 5 (B2g)                                  [converged]
  ----------------------------------------------------------------------------
  Term symbol:  5 (2) B2g                                   R^2 =  4.74304e-14

  Total energy:                                            -77.8354268432 a.u.
  Electron attachment energy:                                     13.163929 eV

  Pole strength:                                                      0.000001

  Dip. moment [a.u.]:                  [   0.000000,   -0.000000,    0.000000]
  Total dipole [Debye]:                                               0.000001
  <r^2> [a.u.]:                        [ 109.744363,  116.320879,   40.571932]
  Total <r^2> [a.u.]:                                               266.637174

  V1^2 = 0.0000, V2^2 = 1.0000

  Important amplitudes:
       occ i       vir a        vir b           v   
    -------------------------------------------------
     1 (B1u) A    2 (B2u) A    2 (B1g) B      0.5753
     1 (B1u) B    2 (B1g) B    2 (B2u) B     -0.3302
    -------------------------------------------------

  Density matrix analysis:
  ------------------------
  NOs (alpha)
    Occupation of frontier NOs:
       0.1885   0.6621
    Number of electrons:  8.000000
  NOs (beta)
    Occupation of frontier NOs:
       0.3384   0.7507
    Number of electrons:  9.000000
  NOs (spin-traced)
    Occupation of frontier NOs:
       0.9382   1.0002
    Number of electrons: 17.000000
    Number of unpaired electrons: n_u =  3.28169, n_u,nl =  3.02338
    NO participation ratio (PR_NO):  3.730749
  
  
  Mulliken Population Analysis
  Atom  Charge (e)    Spin (e)  h+ (alpha)   h+ (beta)  e- (alpha)   e- (beta)
  ----------------------------------------------------------------------------
   1 C   -0.613384    0.481385    0.386430    0.107766   -0.368749   -0.571470
   2 C   -0.613384    0.481385    0.386430    0.107766   -0.368749   -0.571470
   3 H    0.056691    0.009307    0.002269    0.000633   -0.011110   -0.018781
   4 H    0.056696    0.009307    0.002269    0.000633   -0.011110   -0.018781
   5 H    0.056693    0.009307    0.002269    0.000633   -0.011110   -0.018781
   6 H    0.056689    0.009307    0.002269    0.000633   -0.011110   -0.018781
  ----------------------------------------------------------------------------
  Sum:   -1.000000    1.000000    0.781937    0.218062   -0.781937   -1.218062
  
  Multipole moment analysis of the density matrix
    Molecular charge:                      -1.000000
    Number of electrons:                   17.000000
      Center of electronic charge [Ang]: [ -0.000000,   0.000000,  -0.000000]
    Total nuclear charge:                  16.000000
      Center of nuclear charge [Ang]:    [  0.000000,   0.000000,   0.000000]
    Dipole moment [D]:                     0.000001
      Cartesian components [D]:          [  0.000000,  -0.000001,   0.000000]
    RMS size of the density [Ang]:         2.095738
      Cartesian components [Ang]:        [  1.344522,   1.384221,   0.817503]
  
  Exciton analysis of the difference density matrix
  Total:
    <r_h> [Ang]:                  [ -0.000000,   0.000000,  -0.000000]
    <r_e> [Ang]:                  [  0.000000,  -0.000000,  -0.000000]
    |<r_e - r_h>| [Ang]:            0.000000
    Hole size [Ang]:                1.251955
      Cartesian components [Ang]: [  0.747848,   0.510315,   0.864693]
    Electron size [Ang]:            5.163275
      Cartesian components [Ang]: [  2.991295,   3.648936,   2.096862]
  
  Alpha spin:
    <r_h> [Ang]:                  [ -0.000000,   0.000000,  -0.000000]
    <r_e> [Ang]:                  [  0.000000,   0.000000,  -0.000000]
    |<r_e - r_h>| [Ang]:            0.000000
    Hole size [Ang]:                1.251955
      Cartesian components [Ang]: [  0.747848,   0.510315,   0.864693]
    Electron size [Ang]:            4.923622
      Cartesian components [Ang]: [  2.471717,   3.691906,   2.121909]
  
  Beta spin:
    <r_h> [Ang]:                  [ -0.000000,   0.000000,  -0.000000]
    <r_e> [Ang]:                  [ -0.000000,  -0.000000,  -0.000000]
    |<r_e - r_h>| [Ang]:            0.000000
    Hole size [Ang]:                1.251954
      Cartesian components [Ang]: [  0.747848,   0.510314,   0.864693]
    Electron size [Ang]:            5.311425
      Cartesian components [Ang]: [  3.281768,   3.621083,   2.080624]
  ----------------------------------------------------------------------------


  Electron-attached state 6 (B2g)                                  [converged]
  ----------------------------------------------------------------------------
  Term symbol:  6 (2) B2g                                   R^2 =  1.80210e-14

  Total energy:                                            -77.8336491063 a.u.
  Electron attachment energy:                                     13.212304 eV

  Pole strength:                                                      0.000000

  Dip. moment [a.u.]:                  [  -0.000000,   -0.000001,   -0.000000]
  Total dipole [Debye]:                                               0.000003
  <r^2> [a.u.]:                        [ 167.792931,   54.847279,   42.451456]
  Total <r^2> [a.u.]:                                               265.091667

  V1^2 = 0.0000, V2^2 = 1.0000

  Important amplitudes:
       occ i       vir a        vir b           v   
    -------------------------------------------------
     1 (B1u) B    4 (Ag ) B    3 (B3u) B      0.5689
     1 (B1u) A    4 (Ag ) A    3 (B3u) B      0.3697
    -------------------------------------------------

  Density matrix analysis:
  ------------------------
  NOs (alpha)
    Occupation of frontier NOs:
       0.2734   0.6161
    Number of electrons:  8.000000
  NOs (beta)
    Occupation of frontier NOs:
       0.3222   0.7267
    Number of electrons:  9.000000
  NOs (spin-traced)
    Occupation of frontier NOs:
       0.9382   1.0001
    Number of electrons: 17.000000
    Number of unpaired electrons: n_u =  3.28222, n_u,nl =  3.02341
    NO participation ratio (PR_NO):  3.731250
  
  
  Mulliken Population Analysis
  Atom  Charge (e)    Spin (e)  h+ (alpha)   h+ (beta)  e- (alpha)   e- (beta)
  ----------------------------------------------------------------------------
   1 C   -0.669689    0.496693    0.174308    0.319889   -0.177125   -0.819399
   2 C   -0.669689    0.496693    0.174308    0.319889   -0.177125   -0.819399
   3 H    0.084844    0.001654    0.001023    0.001878    0.000385   -0.002123
   4 H    0.084848    0.001654    0.001023    0.001878    0.000385   -0.002123
   5 H    0.084845    0.001654    0.001023    0.001878    0.000385   -0.002123
   6 H    0.084841    0.001654    0.001023    0.001878    0.000385   -0.002123
  ----------------------------------------------------------------------------
  Sum:   -1.000000    1.000000    0.352710    0.647290   -0.352710   -1.647290
  
  Multipole moment analysis of the density matrix
    Molecular charge:                      -1.000000
    Number of electrons:                   17.000000
      Center of electronic charge [Ang]: [  0.000000,   0.000000,   0.000000]
    Total nuclear charge:                  16.000000
      Center of nuclear charge [Ang]:    [  0.000000,   0.000000,   0.000000]
    Dipole moment [D]:                     0.000003
      Cartesian components [D]:          [ -0.000000,  -0.000003,  -0.000000]
    RMS size of the density [Ang]:         2.089656
      Cartesian components [Ang]:        [  1.662507,   0.950505,   0.836225]
  
  Exciton analysis of the difference density matrix
  Total:
    <r_h> [Ang]:                  [ -0.000000,   0.000000,  -0.000000]
    <r_e> [Ang]:                  [  0.000000,   0.000000,   0.000000]
    |<r_e - r_h>| [Ang]:            0.000000
    Hole size [Ang]:                1.251955
      Cartesian components [Ang]: [  0.747848,   0.510315,   0.864693]
    Electron size [Ang]:            5.142277
      Cartesian components [Ang]: [  4.132248,   2.169689,   2.158701]
  
  Alpha spin:
    <r_h> [Ang]:                  [ -0.000000,   0.000000,  -0.000000]
    <r_e> [Ang]:                  [  0.000000,   0.000000,   0.000000]
    |<r_e - r_h>| [Ang]:            0.000000
    Hole size [Ang]:                1.251955
      Cartesian components [Ang]: [  0.747848,   0.510315,   0.864693]
    Electron size [Ang]:            5.185759
      Cartesian components [Ang]: [  4.266381,   2.090094,   2.078845]
  
  Beta spin:
    <r_h> [Ang]:                  [ -0.000000,   0.000000,  -0.000000]
    <r_e> [Ang]:                  [ -0.000000,   0.000000,   0.000000]
    |<r_e - r_h>| [Ang]:            0.000000
    Hole size [Ang]:                1.251955
      Cartesian components [Ang]: [  0.747848,   0.510315,   0.864693]
    Electron size [Ang]:            5.132919
      Cartesian components [Ang]: [  4.102958,   2.186355,   2.175419]
  ----------------------------------------------------------------------------


  Electron-attached state 7 (B2g)                                  [converged]
  ----------------------------------------------------------------------------
  Term symbol:  7 (2) B2g                                   R^2 =  8.55608e-15

  Total energy:                                            -77.8336484893 a.u.
  Electron attachment energy:                                     13.212320 eV

  Pole strength:                                                      0.000002

  Dip. moment [a.u.]:                  [  -0.000000,   -0.000001,   -0.000000]
  Total dipole [Debye]:                                               0.000003
  <r^2> [a.u.]:                        [ 167.792734,   54.848458,   42.452595]
  Total <r^2> [a.u.]:                                               265.093787

  V1^2 = 0.0000, V2^2 = 1.0000

  Important amplitudes:
       occ i       vir a        vir b           v   
    -------------------------------------------------
     1 (B1u) A    3 (B3u) A    4 (Ag ) B     -0.5419
     1 (B1u) A    4 (Ag ) A    3 (B3u) B     -0.4435
    -------------------------------------------------

  Density matrix analysis:
  ------------------------
  NOs (alpha)
    Occupation of frontier NOs:
       0.3934   0.5875
    Number of electrons:  8.000000
  NOs (beta)
    Occupation of frontier NOs:
       0.4129   0.6067
    Number of electrons:  9.000000
  NOs (spin-traced)
    Occupation of frontier NOs:
       0.9382   1.0001
    Number of electrons: 17.000000
    Number of unpaired electrons: n_u =  3.28223, n_u,nl =  3.02341
    NO participation ratio (PR_NO):  3.731259
  
  
  Mulliken Population Analysis
  Atom  Charge (e)    Spin (e)  h+ (alpha)   h+ (beta)  e- (alpha)   e- (beta)
  ----------------------------------------------------------------------------
   1 C   -0.669676    0.497132    0.484620    0.009576   -0.487211   -0.509300
   2 C   -0.669676    0.497132    0.484620    0.009576   -0.487211   -0.509300
   3 H    0.084837    0.001434    0.002846    0.000056   -0.001550   -0.000194
   4 H    0.084842    0.001434    0.002846    0.000056   -0.001550   -0.000194
   5 H    0.084839    0.001434    0.002846    0.000056   -0.001550   -0.000194
   6 H    0.084835    0.001434    0.002846    0.000056   -0.001550   -0.000194
  ----------------------------------------------------------------------------
  Sum:   -1.000000    1.000000    0.980621    0.019377   -0.980621   -1.019377
  
  Multipole moment analysis of the density matrix
    Molecular charge:                      -1.000000
    Number of electrons:                   17.000000
      Center of electronic charge [Ang]: [  0.000000,   0.000000,   0.000000]
    Total nuclear charge:                  16.000000
      Center of nuclear charge [Ang]:    [  0.000000,   0.000000,   0.000000]
    Dipole moment [D]:                     0.000003
      Cartesian components [D]:          [ -0.000000,  -0.000003,  -0.000000]
    RMS size of the density [Ang]:         2.089664
      Cartesian components [Ang]:        [  1.662506,   0.950515,   0.836236]
  
  Exciton analysis of the difference density matrix
  Total:
    <r_h> [Ang]:                  [ -0.000000,   0.000000,  -0.000000]
    <r_e> [Ang]:                  [  0.000000,   0.000000,   0.000000]
    |<r_e - r_h>| [Ang]:            0.000000
    Hole size [Ang]:                1.251955
      Cartesian components [Ang]: [  0.747848,   0.510315,   0.864693]
    Electron size [Ang]:            5.142308
      Cartesian components [Ang]: [  4.132246,   2.169728,   2.158739]
  
  Alpha spin:
    <r_h> [Ang]:                  [ -0.000000,   0.000000,  -0.000000]
    <r_e> [Ang]:                  [ -0.000000,   0.000000,   0.000000]
    |<r_e - r_h>| [Ang]:            0.000000
    Hole size [Ang]:                1.251956
      Cartesian components [Ang]: [  0.747848,   0.510315,   0.864694]
    Electron size [Ang]:            5.126591
      Cartesian components [Ang]: [  4.082911,   2.197682,   2.186772]
  
  Beta spin:
    <r_h> [Ang]:                  [ -0.000000,   0.000000,  -0.000000]
    <r_e> [Ang]:                  [  0.000000,   0.000000,   0.000000]
    |<r_e - r_h>| [Ang]:            0.000000
    Hole size [Ang]:                1.251928
      Cartesian components [Ang]: [  0.747840,   0.510303,   0.864667]
    Electron size [Ang]:            5.157382
      Cartesian components [Ang]: [  4.179156,   2.142493,   2.131424]
  ----------------------------------------------------------------------------


  Electron-attached state 8 (B2g)                                  [converged]
  ----------------------------------------------------------------------------
  Term symbol:  8 (2) B2g                                   R^2 =  1.46836e-14

  Total energy:                                            -77.8281447138 a.u.
  Electron attachment energy:                                     13.362086 eV

  Pole strength:                                                      0.000100

  Dip. moment [a.u.]:                  [   0.000000,   -0.000001,   -0.000000]
  Total dipole [Debye]:                                               0.000002
  <r^2> [a.u.]:                        [ 104.157817,   51.201892,   99.089979]
  Total <r^2> [a.u.]:                                               254.449688

  V1^2 = 0.0001, V2^2 = 0.9999

  Important amplitudes:
       occ i       vir a        vir b           v   
    -------------------------------------------------
     1 (B1u) A    2 (B1u) A    1 (B2g) B     -0.5664
     1 (B1u) B    1 (B2g) B    2 (B1u) B      0.3798
    -------------------------------------------------

  Density matrix analysis:
  ------------------------
  NOs (alpha)
    Occupation of frontier NOs:
       0.2583   0.6421
    Number of electrons:  8.000000
  NOs (beta)
    Occupation of frontier NOs:
       0.3584   0.6804
    Number of electrons:  9.000000
  NOs (spin-traced)
    Occupation of frontier NOs:
       0.9367   1.0012
    Number of electrons: 17.000000
    Number of unpaired electrons: n_u =  3.27672, n_u,nl =  3.02265
    NO participation ratio (PR_NO):  3.729512
  
  
  Mulliken Population Analysis
  Atom  Charge (e)    Spin (e)  h+ (alpha)   h+ (beta)  e- (alpha)   e- (beta)
  ----------------------------------------------------------------------------
   1 C   -0.672779    0.497325    0.351630    0.142622   -0.355676   -0.643993
   2 C   -0.672779    0.497325    0.351630    0.142622   -0.355676   -0.643993
   3 H    0.086388    0.001337    0.002065    0.000838   -0.000041   -0.000153
   4 H    0.086393    0.001337    0.002065    0.000838   -0.000041   -0.000153
   5 H    0.086390    0.001337    0.002065    0.000838   -0.000041   -0.000153
   6 H    0.086386    0.001337    0.002065    0.000838   -0.000041   -0.000153
  ----------------------------------------------------------------------------
  Sum:   -1.000000    1.000000    0.711519    0.288598   -0.711519   -1.288598
  
  Multipole moment analysis of the density matrix
    Molecular charge:                      -1.000000
    Number of electrons:                   17.000000
      Center of electronic charge [Ang]: [ -0.000000,   0.000000,   0.000000]
    Total nuclear charge:                  16.000000
      Center of nuclear charge [Ang]:    [  0.000000,   0.000000,   0.000000]
    Dipole moment [D]:                     0.000002
      Cartesian components [D]:          [  0.000000,  -0.000002,  -0.000000]
    RMS size of the density [Ang]:         2.047282
      Cartesian components [Ang]:        [  1.309853,   0.918374,   1.277590]
  
  Exciton analysis of the difference density matrix
  Total:
    <r_h> [Ang]:                  [ -0.000000,   0.000000,  -0.000000]
    <r_e> [Ang]:                  [ -0.000000,   0.000000,  -0.000000]
    |<r_e - r_h>| [Ang]:            0.000000
    Hole size [Ang]:                1.253027
      Cartesian components [Ang]: [  0.748284,   0.510870,   0.865541]
    Electron size [Ang]:            4.995294
      Cartesian components [Ang]: [  2.857539,   2.048707,   3.548272]
  
  Alpha spin:
    <r_h> [Ang]:                  [ -0.000000,   0.000000,  -0.000000]
    <r_e> [Ang]:                  [  0.000000,   0.000000,  -0.000000]
    |<r_e - r_h>| [Ang]:            0.000000
    Hole size [Ang]:                1.252924
      Cartesian components [Ang]: [  0.748234,   0.510808,   0.865471]
    Electron size [Ang]:            4.855894
      Cartesian components [Ang]: [  2.334140,   2.129095,   3.687608]
  
  Beta spin:
    <r_h> [Ang]:                  [ -0.000000,   0.000000,  -0.000000]
    <r_e> [Ang]:                  [ -0.000000,   0.000000,  -0.000000]
    |<r_e - r_h>| [Ang]:            0.000000
    Hole size [Ang]:                1.253282
      Cartesian components [Ang]: [  0.748407,   0.511022,   0.865713]
    Electron size [Ang]:            5.070625
      Cartesian components [Ang]: [  3.109010,   2.002937,   3.468938]
  ----------------------------------------------------------------------------


  Electron-attached state 9 (B2g)                                  [converged]
  ----------------------------------------------------------------------------
  Term symbol:  9 (2) B2g                                   R^2 =  1.52369e-14

  Total energy:                                            -77.8281204945 a.u.
  Electron attachment energy:                                     13.362745 eV

  Pole strength:                                                      0.000210

  Dip. moment [a.u.]:                  [   0.000000,   -0.000001,   -0.000000]
  Total dipole [Debye]:                                               0.000002
  <r^2> [a.u.]:                        [ 104.168659,   51.203852,   99.095783]
  Total <r^2> [a.u.]:                                               254.468295

  V1^2 = 0.0002, V2^2 = 0.9998

  Important amplitudes:
       occ i       vir a        vir b           v   
    -------------------------------------------------
     1 (B1u) A    1 (B2g) A    2 (B1u) B     -0.5463
     1 (B1u) B    1 (B2g) B    2 (B1u) B     -0.4348
    -------------------------------------------------

  Density matrix analysis:
  ------------------------
  NOs (alpha)
    Occupation of frontier NOs:
       0.3477   0.5975
    Number of electrons:  8.000000
  NOs (beta)
    Occupation of frontier NOs:
       0.4037   0.5906
    Number of electrons:  9.000000
  NOs (spin-traced)
    Occupation of frontier NOs:
       0.9367   1.0012
    Number of electrons: 17.000000
    Number of unpaired electrons: n_u =  3.27683, n_u,nl =  3.02263
    NO participation ratio (PR_NO):  3.729587
  
  
  Mulliken Population Analysis
  Atom  Charge (e)    Spin (e)  h+ (alpha)   h+ (beta)  e- (alpha)   e- (beta)
  ----------------------------------------------------------------------------
   1 C   -0.672796    0.498619    0.307293    0.186905   -0.310700   -0.688932
   2 C   -0.672796    0.498619    0.307293    0.186905   -0.310700   -0.688932
   3 H    0.086397    0.000690    0.001804    0.001097   -0.000101   -0.000084
   4 H    0.086401    0.000690    0.001804    0.001097   -0.000101   -0.000084
   5 H    0.086399    0.000690    0.001804    0.001097   -0.000101   -0.000084
   6 H    0.086395    0.000690    0.001804    0.001097   -0.000101   -0.000084
  ----------------------------------------------------------------------------
  Sum:   -1.000000    1.000000    0.621803    0.378199   -0.621803   -1.378199
  
  Multipole moment analysis of the density matrix
    Molecular charge:                      -1.000000
    Number of electrons:                   17.000000
      Center of electronic charge [Ang]: [ -0.000000,   0.000000,   0.000000]
    Total nuclear charge:                  16.000000
      Center of nuclear charge [Ang]:    [  0.000000,   0.000000,   0.000000]
    Dipole moment [D]:                     0.000002
      Cartesian components [D]:          [  0.000000,  -0.000002,  -0.000000]
    RMS size of the density [Ang]:         2.047357
      Cartesian components [Ang]:        [  1.309921,   0.918392,   1.277628]
  
  Exciton analysis of the difference density matrix
  Total:
    <r_h> [Ang]:                  [ -0.000000,   0.000000,  -0.000000]
    <r_e> [Ang]:                  [ -0.000000,   0.000000,  -0.000000]
    |<r_e - r_h>| [Ang]:            0.000000
    Hole size [Ang]:                1.252074
      Cartesian components [Ang]: [  0.747922,   0.510401,   0.864751]
    Electron size [Ang]:            4.995570
      Cartesian components [Ang]: [  2.857834,   2.048770,   3.548386]
  
  Alpha spin:
    <r_h> [Ang]:                  [ -0.000000,   0.000000,  -0.000000]
    <r_e> [Ang]:                  [ -0.000000,   0.000000,  -0.000000]
    |<r_e - r_h>| [Ang]:            0.000000
    Hole size [Ang]:                1.250617
      Cartesian components [Ang]: [  0.747392,   0.509695,   0.863516]
    Electron size [Ang]:            5.151274
      Cartesian components [Ang]: [  3.358445,   1.953143,   3.382559]
  
  Beta spin:
    <r_h> [Ang]:                  [ -0.000000,   0.000000,  -0.000000]
    <r_e> [Ang]:                  [  0.000000,   0.000000,  -0.000000]
    |<r_e - r_h>| [Ang]:            0.000000
    Hole size [Ang]:                1.254466
      Cartesian components [Ang]: [  0.748792,   0.511559,   0.866777]
    Electron size [Ang]:            4.923709
      Cartesian components [Ang]: [  2.600615,   2.090483,   3.620717]
  ----------------------------------------------------------------------------


  Electron-attached state 10 (B2g)                                  [converged]
  ----------------------------------------------------------------------------
  Term symbol:  10 (2) B2g                                  R^2 =  2.68361e-14

  Total energy:                                            -77.7965080394 a.u.
  Electron attachment energy:                                     14.222963 eV

  Pole strength:                                                      0.000007

  Dip. moment [a.u.]:                  [   0.000000,   -0.000001,   -0.000000]
  Total dipole [Debye]:                                               0.000002
  <r^2> [a.u.]:                        [ 114.793710,   49.928461,   40.599895]
  Total <r^2> [a.u.]:                                               205.322067

  V1^2 = 0.0000, V2^2 = 1.0000

  Important amplitudes:
       occ i       vir a        vir b           v   
    -------------------------------------------------
     1 (B1u) A    3 (B3u) A    5 (Ag ) B     -0.5661
     1 (B1u) B    5 (Ag ) B    3 (B3u) B      0.3815
    -------------------------------------------------

  Density matrix analysis:
  ------------------------
  NOs (alpha)
    Occupation of frontier NOs:
       0.2608   0.6410
    Number of electrons:  8.000000
  NOs (beta)
    Occupation of frontier NOs:
       0.3593   0.6778
    Number of electrons:  9.000000
  NOs (spin-traced)
    Occupation of frontier NOs:
       0.9382   1.0003
    Number of electrons: 17.000000
    Number of unpaired electrons: n_u =  3.27654, n_u,nl =  3.02318
    NO participation ratio (PR_NO):  3.725641
  
  
  Mulliken Population Analysis
  Atom  Charge (e)    Spin (e)  h+ (alpha)   h+ (beta)  e- (alpha)   e- (beta)
  ----------------------------------------------------------------------------
   1 C   -0.804182    0.620913    0.350375    0.143818   -0.358330   -0.772685
   2 C   -0.804182    0.620913    0.350375    0.143818   -0.358330   -0.772685
   3 H    0.152090   -0.060456    0.002057    0.000844    0.001920    0.063589
   4 H    0.152094   -0.060456    0.002057    0.000844    0.001920    0.063589
   5 H    0.152092   -0.060456    0.002057    0.000844    0.001920    0.063589
   6 H    0.152088   -0.060457    0.002057    0.000844    0.001920    0.063589
  ----------------------------------------------------------------------------
  Sum:   -1.000000    1.000000    0.708980    0.291014   -0.708980   -1.291014
  
  Multipole moment analysis of the density matrix
    Molecular charge:                      -1.000000
    Number of electrons:                   17.000000
      Center of electronic charge [Ang]: [ -0.000000,   0.000000,   0.000000]
    Total nuclear charge:                  16.000000
      Center of nuclear charge [Ang]:    [  0.000000,   0.000000,   0.000000]
    Dipole moment [D]:                     0.000002
      Cartesian components [D]:          [  0.000000,  -0.000002,  -0.000000]
    RMS size of the density [Ang]:         1.839054
      Cartesian components [Ang]:        [  1.375105,   0.906882,   0.817785]
  
  Exciton analysis of the difference density matrix
  Total:
    <r_h> [Ang]:                  [ -0.000000,   0.000000,  -0.000000]
    <r_e> [Ang]:                  [ -0.000000,   0.000000,   0.000000]
    |<r_e - r_h>| [Ang]:            0.000000
    Hole size [Ang]:                1.251955
      Cartesian components [Ang]: [  0.747848,   0.510315,   0.864692]
    Electron size [Ang]:            4.251407
      Cartesian components [Ang]: [  3.107226,   2.004709,   2.097798]
  
  Alpha spin:
    <r_h> [Ang]:                  [ -0.000000,   0.000000,  -0.000000]
    <r_e> [Ang]:                  [ -0.000000,   0.000000,   0.000000]
    |<r_e - r_h>| [Ang]:            0.000000
    Hole size [Ang]:                1.251955
      Cartesian components [Ang]: [  0.747848,   0.510315,   0.864693]
    Electron size [Ang]:            4.916834
      Cartesian components [Ang]: [  3.740966,   2.252386,   2.259908]
  
  Beta spin:
    <r_h> [Ang]:                  [ -0.000000,   0.000000,  -0.000000]
    <r_e> [Ang]:                  [ -0.000000,   0.000000,   0.000000]
    |<r_e - r_h>| [Ang]:            0.000000
    Hole size [Ang]:                1.251954
      Cartesian components [Ang]: [  0.747848,   0.510315,   0.864691]
    Electron size [Ang]:            3.837202
      Cartesian components [Ang]: [  2.696570,   1.854677,   2.003199]
  ----------------------------------------------------------------------------


--------------------------------------------------------------------------------
  Time of ADC calculation:  CPU 35.37 s  wall 10.21 s
================================================================================
 
 --------------------------------------------------------------
             Orbital Energies (a.u.) and Symmetries
 --------------------------------------------------------------
 
 Alpha MOs, Restricted
 -- Occupied --                  
-11.237 -11.235  -1.042  -0.782  -0.661  -0.567  -0.515  -0.377
  1 Ag    1 B3u   2 Ag    2 B3u   1 B2u   3 Ag    1 B1g   1 B1u                
 -- Virtual --                   
  0.043   0.044   0.051   0.062   0.064   0.066   0.103   0.135
  3 B3u   2 B2u   2 B1u   2 B1g   1 B2g   4 Ag    5 Ag    2 B2g                
  0.152   0.181   0.199   0.207   0.215   0.261   0.266   0.283
  4 B3u   3 B2u   3 B1g   3 B1u   6 Ag    5 B3u   7 Ag    3 B2g                
  0.341   0.349   0.482   0.517   0.710   0.795   0.861   0.893
  4 B2u   6 B3u   4 B1g   7 B3u   8 Ag    5 B2u   9 Ag    4 B1u                
  0.896   0.933   0.947   0.976   1.030   1.057   1.114   1.284
  6 B2u   8 B3u   4 B2g   9 B3u  10 Ag    5 B1g   1 B3g   5 B1u                
  1.284   1.336   1.346   1.608   1.615   1.700   1.852   1.911
  1 Au   10 B3u   6 B1g  11 Ag    7 B1g   7 B2u   5 B2g  11 B3u                
  1.939   1.993   2.017   2.048   2.172   2.297   2.412   2.444
  6 B1u  12 Ag    2 B3g   8 B2u   6 B2g  12 B3u   2 Au   13 Ag                 
  2.555   2.570   2.799   2.802   3.257   3.340
  8 B1g  13 B3u   9 B2u  14 Ag   14 B3u   9 B1g                                
 
 Beta MOs, Restricted
 -- Occupied --                  
-11.237 -11.235  -1.042  -0.782  -0.661  -0.567  -0.515  -0.377
  1 Ag    1 B3u   2 Ag    2 B3u   1 B2u   3 Ag    1 B1g   1 B1u                
 -- Virtual --                   
  0.043   0.044   0.051   0.062   0.064   0.066   0.103   0.135
  3 B3u   2 B2u   2 B1u   2 B1g   1 B2g   4 Ag    5 Ag    2 B2g                
  0.152   0.181   0.199   0.207   0.215   0.261   0.266   0.283
  4 B3u   3 B2u   3 B1g   3 B1u   6 Ag    5 B3u   7 Ag    3 B2g                
  0.341   0.349   0.482   0.517   0.710   0.795   0.861   0.893
  4 B2u   6 B3u   4 B1g   7 B3u   8 Ag    5 B2u   9 Ag    4 B1u                
  0.896   0.933   0.947   0.976   1.030   1.057   1.114   1.284
  6 B2u   8 B3u   4 B2g   9 B3u  10 Ag    5 B1g   1 B3g   5 B1u                
  1.284   1.336   1.346   1.608   1.615   1.700   1.852   1.911
  1 Au   10 B3u   6 B1g  11 Ag    7 B1g   7 B2u   5 B2g  11 B3u                
  1.939   1.993   2.017   2.048   2.172   2.297   2.412   2.444
  6 B1u  12 Ag    2 B3g   8 B2u   6 B2g  12 B3u   2 Au   13 Ag                 
  2.555   2.570   2.799   2.802   3.257   3.340
  8 B1g  13 B3u   9 B2u  14 Ag   14 B3u   9 B1g                                
 --------------------------------------------------------------
 
          Ground-State Mulliken Net Atomic Charges

     Atom                 Charge (a.u.)
  ----------------------------------------
      1 C                    -0.152987
      2 C                    -0.152987
      3 H                     0.076492
      4 H                     0.076497
      5 H                     0.076494
      6 H                     0.076490
  ----------------------------------------
  Sum of atomic charges =     0.000000

 -----------------------------------------------------------------
                    Cartesian Multipole Moments
 -----------------------------------------------------------------
    Charge (ESU x 10^10)
                 0.0000
    Dipole Moment (Debye)
         X       0.0000      Y      -0.0000      Z       0.0000
       Tot       0.0000
    Quadrupole Moments (Debye-Ang)
        XX     -12.9310     XY       0.0000     YY     -11.9621
        XZ      -0.0000     YZ       0.0000     ZZ     -16.1199
    Octopole Moments (Debye-Ang^2)
       XXX       0.0000    XXY      -0.0000    XYY       0.0000
       YYY      -0.0000    XXZ       0.0000    XYZ      -0.0000
       YYZ       0.0000    XZZ       0.0000    YZZ      -0.0000
       ZZZ       0.0000
    Hexadecapole Moments (Debye-Ang^3)
      XXXX     -68.0983   XXXY       0.0000   XXYY     -13.2211
      XYYY       0.0000   YYYY     -26.8134   XXXZ      -0.0000
      XXYZ       0.0000   XYYZ      -0.0000   YYYZ      -0.0000
      XXZZ     -15.5018   XYZZ      -0.0000   YYZZ      -8.8861
      XZZZ      -0.0000   YZZZ      -0.0000   ZZZZ     -21.2277
 -----------------------------------------------------------------
 Total job time:  90.80s(wall), 76.95s(cpu) 
 Wed Feb 23 19:07:54 2022

        *************************************************************
        *                                                           *
        *  Thank you very much for using Q-Chem.  Have a nice day.  *
        *                                                           *
        *************************************************************


