/src/tsommerfeld/qchem/exe/qcprog.exe .input0.816667.27367.qcin.1 /src/jdavis/qchem.scratch/qchem27367/

                  Welcome to Q-Chem
     A Quantum Leap Into The Future Of Chemistry


 Q-Chem 5.4 (devel), Q-Chem, Inc., Pleasanton, CA (2021)

 E. Epifanovsky,  A. T. B. Gilbert,  Xintian Feng,  Joonho Lee,  Yuezhi Mao,  
 N. Mardirossian,  P. Pokhilko,  A. White,  M. Wormit,  M. P. Coons,  
 A. L. Dempwolff,  Zhengting Gan,  D. Hait,  P. R. Horn,  L. D. Jacobson,  
 I. Kaliman,  J. Kussmann,  A. W. Lange,  Ka Un Lao,  D. S. Levine,  Jie Liu,  
 S. C. McKenzie,  A. F. Morrison,  K. Nanda,  F. Plasser,  D. R. Rehn,  
 M. L. Vidal,  Zhi-Qiang You,  Ying Zhu,  B. Alam,  B. Albrecht,  
 A. Aldossary,  E. Alguire,  J. H. Andersen,  D. Barton,  K. Begam,  A. Behn,  
 Y. A. Bernard,  E. J. Berquist,  H. Burton,  A. Carreras,  K. Carter-Fenk,  
 R. Chakraborty,  A. D. Chien,  K. D. Closser,  V. Cofer-Shabica,  
 S. Dasgupta,  Jia Deng,  M. de Wergifosse,  M. Diedenhofen,  Hainam Do,  
 S. Ehlert,  Po-Tung Fang,  S. Fatehi,  Qingguo Feng,  T. Friedhoff,  
 J. Gayvert,  Qinghui Ge,  G. Gidofalvi,  M. Goldey,  J. Gomes,  
 C. Gonzalez-Espinoza,  S. Gulania,  A. Gunina,  M. W. D. Hanson-Heine,  
 P. H. P. Harbach,  A. W. Hauser,  M. F. Herbst,  M. Hernandez Vera,  
 M. Hodecker,  Z. C. Holden,  S. Houck,  Xunkun Huang,  Kerwin Hui,  
 B. C. Huynh,  M. Ivanov,  Hyunjun Ji,  Hanjie Jiang,  B. Kaduk,  S. Kaehler,  
 K. Khistyaev,  Jaehoon Kim,  P. Klunzinger,  Z. Koczor-Benda,  
 Joong Hoon Koh,  D. Kosenkov,  L. Koulias,  T. Kowalczyk,  C. M. Krauter,  
 K. Kue,  A. Kunitsa,  T. Kus,  A. Landau,  K. V. Lawler,  D. Lefrancois,  
 S. Lehtola,  Rain Li,  Yi-Pei Li,  Jiashu Liang,  M. Liebenthal,  
 Hung-Hsuan Lin,  You-Sheng Lin,  Fenglai Liu,  Kuan-Yu Liu,  
 M. Loipersberger,  A. Luenser,  A. Manjanath,  P. Manohar,  E. Mansoor,  
 S. F. Manzer,  Shan-Ping Mao,  A. V. Marenich,  T. Markovich,  S. Mason,  
 S. A. Maurer,  P. F. McLaughlin,  M. F. S. J. Menger,  J.-M. Mewes,  
 S. A. Mewes,  P. Morgante,  J. W. Mullinax,  K. J. Oosterbaan,  G. Paran,  
 Alexander C. Paul,  Suranjan K. Paul,  F. Pavosevic,  Zheng Pei,  S. Prager,  
 E. I. Proynov,  E. Ramos,  B. Rana,  A. E. Rask,  A. Rettig,  R. M. Richard,  
 F. Rob,  E. Rossomme,  T. Scheele,  M. Scheurer,  M. Schneider,  
 N. Sergueev,  S. M. Sharada,  W. Skomorowski,  D. W. Small,  C. J. Stein,  
 Yu-Chuan Su,  E. J. Sundstrom,  Zhen Tao,  J. Thirman,  T. Tsuchimochi,  
 N. M. Tubman,  S. P. Veccham,  O. Vydrov,  J. Wenzel,  J. Witte,  A. Yamada,  
 Kun Yao,  S. Yeganeh,  S. R. Yost,  A. Zech,  Igor Ying Zhang,  Xing Zhang,  
 Yu Zhang,  D. Zuev,  A. Aspuru-Guzik,  A. T. Bell,  N. A. Besley,  
 K. B. Bravaya,  B. R. Brooks,  D. Casanova,  Jeng-Da Chai,  S. Coriani,  
 C. J. Cramer,  A. E. DePrince, III,  R. A. DiStasio Jr.,  A. Dreuw,  
 B. D. Dunietz,  T. R. Furlani,  W. A. Goddard III,  S. Grimme,  
 S. Hammes-Schiffer,  T. Head-Gordon,  W. J. Hehre,  Chao-Ping Hsu,  
 T.-C. Jagau,  Yousung Jung,  A. Klamt,  Jing Kong,  D. S. Lambrecht,  
 WanZhen Liang,  N. J. Mayhall,  C. W. McCurdy,  J. B. Neaton,  
 C. Ochsenfeld,  J. A. Parkhill,  R. Peverati,  V. A. Rassolov,  Yihan Shao,  
 L. V. Slipchenko,  T. Stauch,  R. P. Steele,  J. E. Subotnik,  
 A. J. W. Thom,  A. Tkatchenko,  D. G. Truhlar,  T. Van Voorhis,  
 T. A. Wesolowski,  K. B. Whaley,  H. L. Woodcock III,  P. M. Zimmerman,  
 S. Faraji,  P. M. W. Gill,  M. Head-Gordon,  J. M. Herbert,  A. I. Krylov

 Additional authors for Version 5.4.1: 
 S. Kotaru,  Shaozhi Li,  Xiangyuan Li,  F. Matz,  A. Molle,  Haisheng Ren,  
 Yingli Su,  Hung-Yi Tsai,  C. Utku,  Fang Wang

 Contributors to earlier versions of Q-Chem not listed above: 
 R. D. Adamson,  B. Austin,  R. Baer,  J. Baker,  G. J. O. Beran,  
 K. Brandhorst,  S. T. Brown,  E. F. C. Byrd,  A. K. Chakraborty,  
 G. K. L. Chan,  Chun-Min Chang,  Yunqing Chen,  C.-L. Cheng,  
 Siu Hung Chien,  D. M. Chipman,  D. L. Crittenden,  H. Dachsel,  
 R. J. Doerksen,  A. D. Dutoi,  R. G. Edgar,  J. Fosso-Tande,  
 L. Fusti-Molnar,  D. Ghosh,  A. Ghysels,  A. Golubeva-Zadorozhnaya,  
 J. Gonthier,  M. S. Gordon,  S. R. Gwaltney,  G. Hawkins,  J. E. Herr,  
 A. Heyden,  S. Hirata,  E. G. Hohenstein,  G. Kedziora,  F. J. Keil,  
 C. Kelley,  Jihan Kim,  R. A. King,  R. Z. Khaliullin,  P. P. Korambath,  
 W. Kurlancheek,  A. Laurent,  A. M. Lee,  M. S. Lee,  S. V. Levchenko,  
 Ching Yeh Lin,  D. Liotard,  E. Livshits,  R. C. Lochan,  I. Lotan,  
 L. A. Martinez-Martinez,  P. E. Maslen,  N. Nair,  D. P. O'Neill,  
 D. Neuhauser,  E. Neuscamman,  C. M. Oana,  R. Olivares-Amaya,  R. Olson,  
 T. M. Perrine,  B. Peters,  P. A. Pieniazek,  A. Prociuk,  Y. M. Rhee,  
 J. Ritchie,  M. A. Rohrdanz,  E. Rosta,  N. J. Russ,  H. F. Schaefer III,  
 M. W. Schmidt,  N. E. Schultz,  S. Sharma,  N. Shenvi,  C. D. Sherrill,  
 A. C. Simmonett,  A. Sodt,  T. Stein,  D. Stuck,  K. S. Thanthiriwatte,  
 V. Vanovschi,  L. Vogt,  Tao Wang,  A. Warshel,  M. A. Watson,  
 C. F. Williams,  Q. Wu,  X. Xu,  Jun Yang,  W. Zhang,  Yan Zhao

 Please cite Q-Chem as follows:
 Y. Shao et al., Mol. Phys. 113, 184-215 (2015)
 DOI: 10.1080/00268976.2014.952696

 Q-Chem 5.4.1 for Intel X86 EM64T Linux

 Parts of Q-Chem use Armadillo 9.900.5 (Nocturnal Misbehaviour).
 http://arma.sourceforge.net/

 Q-Chem begins on Wed Feb 23 18:58:48 2022  

 Host: node01
0

     Scratch files written to /src/jdavis/qchem.scratch/qchem27367//
 Processing $rem in /src/tsommerfeld/qchem/config/preferences:
 Processing $rem in /home/jdavis/.qchemrc:

 Checking the input file for inconsistencies... 	...done.

--------------------------------------------------------------
User input:
--------------------------------------------------------------
$molecule
0 1
C        -0.6645000000    0.0000000000   -0.2082049804
C         0.6645000000    0.0000000000   -0.2082049804
H        -1.1590800000    0.0000000000    0.7541440196
H         1.1590800000    0.0000000000    0.7541440196
H        -1.1590800000    0.0000000000   -1.1705529804
H         1.1590800000    0.0000000000   -1.1705529804
$end

$rem
   METHOD adc(2)
   BASIS gen
   PURECART 11
   EA_STATES [0,0,10,0,0,0,0,0]
   scf_convergence 8
   ADC_DAVIDSON_MAXITER 120
   ADC_DAVIDSON_MAXSUBSPACE 200
   adc_nguess_singles 100
   THRESH 14
   S2THRESH 14
   adc_davidson_conv 5
   adc_davidson_thresh 14
   THREADS 10
   MEM_TOTAL 95000
   STATE_ANALYSIS TRUE
$end
$basis
C 1
S   9   1.00
      6.665000D+03           6.920000D-04
      1.000000D+03           5.329000D-03
      2.280000D+02           2.707700D-02
      6.471000D+01           1.017180D-01
      2.106000D+01           2.747400D-01
      7.495000D+00           4.485640D-01
      2.797000D+00           2.850740D-01
      5.215000D-01           1.520400D-02
      1.596000D-01          -3.191000D-03
S   9   1.00
      6.665000D+03          -1.460000D-04
      1.000000D+03          -1.154000D-03
      2.280000D+02          -5.725000D-03
      6.471000D+01          -2.331200D-02
      2.106000D+01          -6.395500D-02
      7.495000D+00          -1.499810D-01
      2.797000D+00          -1.272620D-01
      5.215000D-01           5.445290D-01
      1.596000D-01           5.804960D-01
S   1   1.00
      1.596000D-01           1.000000D+00
S   1   1.00
      0.0469000              1.0000000
P   4   1.00
      9.439000D+00           3.810900D-02
      2.002000D+00           2.094800D-01
      5.456000D-01           5.085570D-01
      1.517000D-01           4.688420D-01
P   1   1.00
      1.517000D-01           1.000000D+00
P   1   1.00
      0.0353967      1.0000000
P   1   1.00
      0.0176983      1.0000000
D   1   1.00
      5.500000D-01           1.0000000
****
C 2
S   9   1.00
      6.665000D+03           6.920000D-04
      1.000000D+03           5.329000D-03
      2.280000D+02           2.707700D-02
      6.471000D+01           1.017180D-01
      2.106000D+01           2.747400D-01
      7.495000D+00           4.485640D-01
      2.797000D+00           2.850740D-01
      5.215000D-01           1.520400D-02
      1.596000D-01          -3.191000D-03
S   9   1.00
      6.665000D+03          -1.460000D-04
      1.000000D+03          -1.154000D-03
      2.280000D+02          -5.725000D-03
      6.471000D+01          -2.331200D-02
      2.106000D+01          -6.395500D-02
      7.495000D+00          -1.499810D-01
      2.797000D+00          -1.272620D-01
      5.215000D-01           5.445290D-01
      1.596000D-01           5.804960D-01
S   1   1.00
      1.596000D-01           1.000000D+00
S   1   1.00
      0.0469000              1.0000000
P   4   1.00
      9.439000D+00           3.810900D-02
      2.002000D+00           2.094800D-01
      5.456000D-01           5.085570D-01
      1.517000D-01           4.688420D-01
P   1   1.00
      1.517000D-01           1.000000D+00
P   1   1.00
      0.0353967      1.0000000
P   1   1.00
      0.0176983      1.0000000
D   1   1.00
      5.500000D-01           1.0000000
****
H 3
cc-pVDZ
****
H 4
cc-pVDZ
****
H 5
cc-pVDZ
****
H 6
cc-pVDZ
****
H 7
aug-cc-pVDZ
****
$end
--------------------------------------------------------------
 Atom   2: ( -0.6645000000, -0.0000001250,  0.0000000000)
         ->( -0.6645000000,  0.0000001250, -0.0000000000)
 Atom   1: (  0.6645000000, -0.0000001250, -0.0000000000)
         ->(  0.6645000000,  0.0000000000,  0.0000000000)
 Atom   6: ( -1.1590800000, -0.9623481250, -0.0000000000)
         ->( -1.1590800000, -0.9623488750,  0.0000000000)
 Atom   5: (  1.1590800000, -0.9623481250, -0.0000000000)
         ->(  1.1590800000, -0.9623488750, -0.0000000000)
 ----------------------------------------------------------------
             Standard Nuclear Orientation (Angstroms)
    I     Atom           X                Y                Z
 ----------------------------------------------------------------
    1      C       0.6645000000     0.0000000000     0.0000000000
    2      C      -0.6645000000     0.0000001250    -0.0000000000
    3      H       1.1590800000     0.9623488750     0.0000000000
    4      H      -1.1590800000     0.9623488750     0.0000000000
    5      H       1.1590800000    -0.9623488750    -0.0000000000
    6      H      -1.1590800000    -0.9623488750     0.0000000000
 ----------------------------------------------------------------
 Molecular Point Group                 D2h   NOp =  8
 Largest Abelian Subgroup              D2h   NOp =  8
 Nuclear Repulsion Energy =          33.58921667 hartrees
 There are        8 alpha and        8 beta electrons
 Requested basis set is non-standard
 There are 30 shells and 62 basis functions
 Total memory of 95000 MB is distributed as follows: 
   MEM_STATIC is set to 192 MB
   QALLOC/CCMAN JOB total memory use is  94808 MB
 Warning: actual memory use might exceed 95000 MB

 Total QAlloc Memory Limit  95000 MB
 Mega-Array Size       188 MB
 MEM_STATIC part       192 MB

                       Distance Matrix (Angstroms)
             C (  1)   C (  2)   H (  3)   H (  4)   H (  5)
   C (  2)  1.329000
   H (  3)  1.082000  2.061931
   H (  4)  2.061931  1.082000  2.318160
   H (  5)  1.082000  2.061931  1.924698  3.013026
   H (  6)  2.061931  1.082000  3.013026  1.924698  2.318160
 
 A cutoff of  1.0D-14 yielded    465 shell pairs
 There are      2009 function pairs (      2146 Cartesian)
 Smallest overlap matrix eigenvalue = 5.34E-04

 Scale SEOQF with 1.000000e-01/1.000000e-01/1.000000e-01

 Standard Electronic Orientation quadrupole field applied
 Nucleus-field energy     =     0.0000000006 hartrees
 ================ Generating on-the-fly SAD Guess ================
Attempting to make child job directory: /src/jdavis/qchem.scratch/qchem27367//Frg1/
Attempting to make child job directory: /src/jdavis/qchem.scratch/qchem27367//Frg2/
Creating input file /src/jdavis/qchem.scratch/qchem27367/Frg1.input
using default PutDataFrgm: nothing
calling putenv with: QCSCRATCH=/src/jdavis/qchem.scratch/qchem27367/ 
Spawning Job For Fragment 0
Done Job For Fragment 0
calling putenv with: QCSCRATCH=/src/jdavis/qchem.scratch 
calling putenv with: QCTHREADS=1 
Creating input file /src/jdavis/qchem.scratch/qchem27367/Frg2.input
using default PutDataFrgm: nothing
calling putenv with: QCSCRATCH=/src/jdavis/qchem.scratch/qchem27367/ 
Spawning Job For Fragment 1
Done Job For Fragment 1
calling putenv with: QCSCRATCH=/src/jdavis/qchem.scratch 
calling putenv with: QCTHREADS=1 
 Time for running child jobs:  CPU 1.77 s  wall 53.15 s
 ============= Method Specific SAD Guess Constructed =============
 Guess from on-the-fly superposition of atomic densities
 Warning: Energy on first SCF cycle will be non-variational
 A restricted Hartree-Fock SCF calculation will be
 performed using Pulay DIIS extrapolation
 SCF converges when DIIS error is below 1.0E-08
 using 10 threads for integral computing
 -------------------------------------------------------
 OpenMP Integral computing Module                
 Release: version 1.0, May 2013, Q-Chem Inc. Pittsburgh 
 -------------------------------------------------------
 ---------------------------------------
  Cycle       Energy         DIIS Error
 ---------------------------------------
    1     -78.4570691869      7.95E-02
    2     -78.0143137714      5.77E-03
    3     -78.0356658300      1.51E-03
    4     -78.0372960097      5.02E-04
    5     -78.0374667881      5.94E-05
    6     -78.0374714447      1.23E-05
    7     -78.0374717601      2.90E-06
    8     -78.0374717939      2.63E-07
    9     -78.0374717967      3.09E-08
   10     -78.0374717969      3.44E-09 Convergence criterion met
 ---------------------------------------
 SCF time:  CPU 8.01 s  wall 0.80 s
 SCF   energy in the final basis set = -78.03747180
 Total energy in the final basis set = -78.03747180
================================================================================
|                                                                              |
|                                 A D C  M A N                                 |
|                                                                              |
 ------------------------------------------------------------------------------ 
|                                                                              |
| Components:                                                                  |
|                                                                              |
| - libvmm - 1.3-trunk                                                         |
|   Authors:                                                                   |
|   Evgeny Epifanovsky, Ilya Kaliman                                           |
|                                                                              |
| - libtensor - 2.5-trunk                                                      |
|   Authors:                                                                   |
|   Evgeny Epifanovsky, Michael Wormit, Dmitry Zuev, Sam Manzer,               |
|   Ilya Kaliman                                                               |
|                                                                              |
| - libwfa - 1.1-trunk                                                         |
|   Authors:                                                                   |
|   Felix Plasser, Stefanie Mewes (Baeppler), Benjamin Thomitzni,              |
|   Michael Wormit, Feng Chen, Anna I. Krylov, Pavel Pokhilko                  |
|                                                                              |
| - libadc - 1.1-trunk                                                         |
|   Authors:                                                                   |
|   Michael Wormit, Adrian L. Dempwolff, Philipp H. P. Harbach,                |
|   Caroline Krauter, Dirk Rehn, Matthias Schneider, Jan Wenzel                |
|                                                                              |
| - adcman - 2.6-trunk                                                         |
|   Authors:                                                                   |
|   Michael Wormit, Adrian L. Dempwolff, Philipp H. P. Harbach,                |
|   Caroline Krauter, Daniel Lefrancois, Jan-Michael Mewes, Dirk Rehn,         |
|   Matthias Schneider, Jan Wenzel, Andreas Dreuw                              |
|                                                                              |
| Authors of earlier versions of ADCMAN:                                       |
| Andreas Dreuw, Jan Hendrik Starcke, Dirk Rehn, Michael Wormit                |
|                                                                              |
================================================================================

 
 Alpha MOs, Restricted
 -- Occupied --                  
-11.237 -11.235  -1.042  -0.782  -0.660  -0.567  -0.515  -0.377
  1 Ag    1 B3u   2 Ag    2 B3u   1 B2u   3 Ag    1 B1g   1 B1u                
 -- Virtual --                   
  0.033   0.036   0.040   0.051   0.053   0.058   0.094   0.116
  3 B3u   2 B2u   2 B1u   2 B1g   1 B2g   4 Ag    5 Ag    4 B3u                
  0.122   0.145   0.164   0.168   0.187   0.246   0.266   0.293
  2 B2g   3 B2u   3 B1g   3 B1u   6 Ag    3 B2g   7 Ag    5 B3u                
  0.334   0.347   0.441   0.509   0.664   0.746   0.841   0.859
  4 B2u   6 B3u   4 B1g   7 B3u   8 Ag    5 B2u   4 B1u   9 Ag                 
  0.901   0.902   0.930   0.997   1.024   1.031   1.114   1.283
  6 B2u   4 B2g   8 B3u   9 B3u  10 Ag    5 B1g   1 B3g   5 B1u                
  1.284   1.307   1.347   1.605   1.616   1.694   1.845   1.920
  1 Au   10 B3u   6 B1g  11 Ag    7 B1g   7 B2u   5 B2g  11 B3u                
  1.937   1.970   2.017   2.031   2.170   2.269   2.412   2.438
  6 B1u  12 Ag    2 B3g   8 B2u   6 B2g  12 B3u   2 Au   13 Ag                 
  2.536   2.573   2.798   2.801   3.258   3.340
  8 B1g  13 B3u  14 Ag    9 B2u  14 B3u   9 B1g                                
 
 Beta MOs, Restricted
 -- Occupied --                  
-11.237 -11.235  -1.042  -0.782  -0.660  -0.567  -0.515  -0.377
  1 Ag    1 B3u   2 Ag    2 B3u   1 B2u   3 Ag    1 B1g   1 B1u                
 -- Virtual --                   
  0.033   0.036   0.040   0.051   0.053   0.058   0.094   0.116
  3 B3u   2 B2u   2 B1u   2 B1g   1 B2g   4 Ag    5 Ag    4 B3u                
  0.122   0.145   0.164   0.168   0.187   0.246   0.266   0.293
  2 B2g   3 B2u   3 B1g   3 B1u   6 Ag    3 B2g   7 Ag    5 B3u                
  0.334   0.347   0.441   0.509   0.664   0.746   0.841   0.859
  4 B2u   6 B3u   4 B1g   7 B3u   8 Ag    5 B2u   4 B1u   9 Ag                 
  0.901   0.902   0.930   0.997   1.024   1.031   1.114   1.283
  6 B2u   4 B2g   8 B3u   9 B3u  10 Ag    5 B1g   1 B3g   5 B1u                
  1.284   1.307   1.347   1.605   1.616   1.694   1.845   1.920
  1 Au   10 B3u   6 B1g  11 Ag    7 B1g   7 B2u   5 B2g  11 B3u                
  1.937   1.970   2.017   2.031   2.170   2.269   2.412   2.438
  6 B1u  12 Ag    2 B3g   8 B2u   6 B2g  12 B3u   2 Au   13 Ag                 
  2.536   2.573   2.798   2.801   3.258   3.340
  8 B1g  13 B3u  14 Ag    9 B2u  14 B3u   9 B1g                                

--------------------------------------------------------------------------------
                                   HF Summary                                   
--------------------------------------------------------------------------------
  Energy:                                                  -78.0374717969 a.u.
  Dip. moment [a.u.]:                  [   0.000000,   -0.000001,    0.000000]
  Total dipole [Debye]:                                               0.000001
  <r^2> [a.u.]:                        [  47.735247,   22.120983,   11.982336]
  Total <r^2> [a.u.]:                                                81.838566
--------------------------------------------------------------------------------

--------------------------------------------------------------------------------
                                 MP(2) Summary                                  
--------------------------------------------------------------------------------
  MP energy contribution:                                   -0.2815404068 a.u.
  Total energy:                                            -78.3190122037 a.u.
  Dip. moment [a.u.]:                  [   0.000000,   -0.000001,    0.000000]
  Total dipole [Debye]:                                               0.000001
  <r^2> [a.u.]:                        [  47.843212,   22.152819,   11.836553]
  Total <r^2> [a.u.]:                                                81.832584

  Density matrix analysis:
  ------------------------
  NOs (alpha)
    Occupation of frontier NOs:
       0.0223   0.9686
    Number of electrons:  8.000000
  NOs (beta)
    Occupation of frontier NOs:
       0.0223   0.9686
    Number of electrons:  8.000000
  NOs (spin-traced)
    Occupation of frontier NOs:
       0.0446   1.9373
    Number of electrons: 16.000000
    Number of unpaired electrons: n_u =  0.40840, n_u,nl =  0.04585
    NO participation ratio (PR_NO): 13.956935
  
  
  Mulliken Population Analysis
  Atom  Charge (e)    Spin (e)  h+ (alpha)   h+ (beta)  e- (alpha)   e- (beta)
  ----------------------------------------------------------------------------
   1 C   -0.162958    0.000000    0.044050    0.044050   -0.050942   -0.050942
   2 C   -0.162958   -0.000000    0.044050    0.044050   -0.050942   -0.050942
   3 H    0.081478    0.000000    0.008700    0.008700   -0.005255   -0.005255
   4 H    0.081481    0.000000    0.008701    0.008701   -0.005255   -0.005255
   5 H    0.081479   -0.000000    0.008701    0.008701   -0.005255   -0.005255
   6 H    0.081477    0.000000    0.008700    0.008700   -0.005255   -0.005255
  ----------------------------------------------------------------------------
  Sum:    0.000000   -0.000000    0.122902    0.122902   -0.122902   -0.122902
  
  Multipole moment analysis of the density matrix
    Molecular charge:                      0.000000
    Number of electrons:                   16.000000
      Center of electronic charge [Ang]: [ -0.000000,   0.000000,  -0.000000]
    Total nuclear charge:                  16.000000
      Center of nuclear charge [Ang]:    [  0.000000,   0.000000,   0.000000]
    Dipole moment [D]:                     0.000001
      Cartesian components [D]:          [  0.000000,  -0.000001,   0.000000]
    RMS size of the density [Ang]:         1.196752
      Cartesian components [Ang]:        [  0.915064,   0.622667,   0.455149]
  
  Exciton analysis of the difference density matrix
  Total:
    <r_h> [Ang]:                  [ -0.000000,   0.000000,   0.000000]
    <r_e> [Ang]:                  [ -0.000000,  -0.000000,  -0.000000]
    |<r_e - r_h>| [Ang]:            0.000000
    Hole size [Ang]:                1.423277
      Cartesian components [Ang]: [  0.968708,   0.728471,   0.746092]
    Electron size [Ang]:            1.420881
      Cartesian components [Ang]: [  1.030239,   0.752954,   0.624958]
  
  Alpha spin:
    <r_h> [Ang]:                  [ -0.000000,   0.000000,   0.000000]
    <r_e> [Ang]:                  [ -0.000000,  -0.000000,  -0.000000]
    |<r_e - r_h>| [Ang]:            0.000000
    Hole size [Ang]:                1.423277
      Cartesian components [Ang]: [  0.968708,   0.728471,   0.746092]
    Electron size [Ang]:            1.420881
      Cartesian components [Ang]: [  1.030239,   0.752954,   0.624958]
  
  Beta spin:
    <r_h> [Ang]:                  [ -0.000000,   0.000000,   0.000000]
    <r_e> [Ang]:                  [ -0.000000,  -0.000000,  -0.000000]
    |<r_e - r_h>| [Ang]:            0.000000
    Hole size [Ang]:                1.423277
      Cartesian components [Ang]: [  0.968708,   0.728471,   0.746092]
    Electron size [Ang]:            1.420881
      Cartesian components [Ang]: [  1.030239,   0.752954,   0.624958]
--------------------------------------------------------------------------------
Less particle guess vectors found than requested: 6 (found), 100 (requested).
Adjusting number of hole-2particle guess vectors to 94.
  Starting Davidson for electron-attached states of irrep B2g ... 
--------------------------------------------------------------------------------
   It NVec Conv  Avg. Norm  Max. Norm  Conv. states           Remark
--------------------------------------------------------------------------------
       100    0  4.181e-02  3.492e-01  0.0526 n n n n n n n n Guess.
    1  110    7  1.505e-04  1.102e-03  0.0510 n n n y y y y y 
    2  120   10  9.733e-10  8.855e-09  0.0510 y y y y y y y y Converged.
--------------------------------------------------------------------------------
  Davidson Summary: 
 ------------------------------------------------------------
  State  0: electron attachment energy =   0.0510 a.u.   (converged)
  State  1: electron attachment energy =   0.0910 a.u.   (converged)
  State  2: electron attachment energy =   0.2069 a.u.   (converged)
  State  3: electron attachment energy =   0.4639 a.u.   (converged)
  State  4: electron attachment energy =   0.4639 a.u.   (converged)
  State  5: electron attachment energy =   0.4677 a.u.   (converged)
  State  6: electron attachment energy =   0.4677 a.u.   (converged)
  State  7: electron attachment energy =   0.4701 a.u.   (converged)
  State  8: electron attachment energy =   0.4701 a.u.   (converged)
  State  9: electron attachment energy =   0.5037 a.u.   (converged)
 ------------------------------------------------------------


--------------------------------------------------------------------------------
                        Electron-Attached State Summary
--------------------------------------------------------------------------------

  Electron-attached state 1 (B2g)                                  [converged]
  ----------------------------------------------------------------------------
  Term symbol:  1 (2) B2g                                   R^2 =  2.70929e-09

  Total energy:                                            -78.2680081873 a.u.
  Electron attachment energy:                                      1.387890 eV

  Pole strength:                                                      0.995578

  Dip. moment [a.u.]:                  [   0.000000,   -0.000001,    0.000000]
  Total dipole [Debye]:                                               0.000002
  <r^2> [a.u.]:                        [  96.352799,   38.164719,   59.569692]
  Total <r^2> [a.u.]:                                               194.087210

  V1^2 = 0.9965, V2^2 = 0.0035

  Important amplitudes:
       occ i       vir a        vir b           v   
    -------------------------------------------------
                               1 (B2g) B     -0.9917
                               2 (B2g) B     -0.1068
    -------------------------------------------------

  Density matrix analysis:
  ------------------------
  NOs (alpha)
    Occupation of frontier NOs:
       0.0220   0.9682
    Number of electrons:  8.000000
  NOs (beta)
    Occupation of frontier NOs:
       0.0233   0.9687
    Number of electrons:  9.000000
  NOs (spin-traced)
    Occupation of frontier NOs:
       0.0444   0.9976
    Number of electrons: 17.000000
    Number of unpaired electrons: n_u =  1.41168, n_u,nl =  1.04645
    NO participation ratio (PR_NO):  1.978227
  
  
  Mulliken Population Analysis
  Atom  Charge (e)    Spin (e)  h+ (alpha)   h+ (beta)  e- (alpha)   e- (beta)
  ----------------------------------------------------------------------------
   1 C   -0.652057    0.503873    0.007331    0.007969    0.000055   -0.504455
   2 C   -0.652057    0.503873    0.007331    0.007969    0.000055   -0.504455
   3 H    0.076028   -0.001936   -0.000190    0.000418   -0.003503   -0.002175
   4 H    0.076031   -0.001936   -0.000190    0.000418   -0.003503   -0.002175
   5 H    0.076029   -0.001936   -0.000190    0.000418   -0.003503   -0.002175
   6 H    0.076026   -0.001936   -0.000190    0.000418   -0.003503   -0.002175
  ----------------------------------------------------------------------------
  Sum:   -1.000000    1.000000    0.013901    0.017611   -0.013901   -1.017611
  
  Multipole moment analysis of the density matrix
    Molecular charge:                      -1.000000
    Number of electrons:                   17.000000
      Center of electronic charge [Ang]: [ -0.000000,   0.000000,  -0.000000]
    Total nuclear charge:                  16.000000
      Center of nuclear charge [Ang]:    [  0.000000,   0.000000,   0.000000]
    Dipole moment [D]:                     0.000002
      Cartesian components [D]:          [  0.000000,  -0.000002,   0.000000]
    RMS size of the density [Ang]:         1.788031
      Cartesian components [Ang]:        [  1.259821,   0.792880,   0.990580]
  
  Exciton analysis of the difference density matrix
  Total:
    <r_h> [Ang]:                  [  0.000000,   0.000000,  -0.000000]
    <r_e> [Ang]:                  [  0.000000,   0.000000,   0.000000]
    |<r_e - r_h>| [Ang]:            0.000000
    Hole size [Ang]:                1.931859
      Cartesian components [Ang]: [  1.224791,   0.965951,   1.139694]
    Electron size [Ang]:            5.530661
      Cartesian components [Ang]: [  3.635232,   2.091726,   3.605271]
  
  Alpha spin:
    <r_h> [Ang]:                  [ -0.000000,   0.000000,  -0.000000]
    <r_e> [Ang]:                  [  0.000000,  -0.000000,   0.000000]
    |<r_e - r_h>| [Ang]:            0.000000
    Hole size [Ang]:                1.505570
      Cartesian components [Ang]: [  1.061264,   0.809727,   0.696278]
    Electron size [Ang]:            2.202565
      Cartesian components [Ang]: [  1.391435,   1.360521,   1.031594]
  
  Beta spin:
    <r_h> [Ang]:                  [  0.000000,   0.000000,  -0.000000]
    <r_e> [Ang]:                  [  0.000000,   0.000000,   0.000000]
    |<r_e - r_h>| [Ang]:            0.000000
    Hole size [Ang]:                2.211038
      Cartesian components [Ang]: [  1.339845,   1.073322,   1.393372]
    Electron size [Ang]:            5.562354
      Cartesian components [Ang]: [  3.656362,   2.099952,   3.627809]
  ----------------------------------------------------------------------------


  Electron-attached state 2 (B2g)                                  [converged]
  ----------------------------------------------------------------------------
  Term symbol:  2 (2) B2g                                   R^2 =  8.85456e-09

  Total energy:                                            -78.2279935975 a.u.
  Electron attachment energy:                                      2.476742 eV

  Pole strength:                                                      0.948427

  Dip. moment [a.u.]:                  [   0.000000,   -0.000001,   -0.000000]
  Total dipole [Debye]:                                               0.000001
  <r^2> [a.u.]:                        [  65.504335,   28.617240,   28.008338]
  Total <r^2> [a.u.]:                                               122.129912

  V1^2 = 0.9609, V2^2 = 0.0391

  Important amplitudes:
       occ i       vir a        vir b           v   
    -------------------------------------------------
                               2 (B2g) B     -0.9451
                               3 (B2g) B      0.2264
    -------------------------------------------------

  Density matrix analysis:
  ------------------------
  NOs (alpha)
    Occupation of frontier NOs:
       0.0177   0.9674
    Number of electrons:  8.000000
  NOs (beta)
    Occupation of frontier NOs:
       0.0202   0.9767
    Number of electrons:  9.000000
  NOs (spin-traced)
    Occupation of frontier NOs:
       0.0279   0.9892
    Number of electrons: 17.000000
    Number of unpaired electrons: n_u =  1.41601, n_u,nl =  1.04358
    NO participation ratio (PR_NO):  2.025455
  
  
  Mulliken Population Analysis
  Atom  Charge (e)    Spin (e)  h+ (alpha)   h+ (beta)  e- (alpha)   e- (beta)
  ----------------------------------------------------------------------------
   1 C   -0.550873    0.530913    0.093818    0.072879   -0.022319   -0.532293
   2 C   -0.550873    0.530913    0.093818    0.072879   -0.022319   -0.532293
   3 H    0.025436   -0.015456    0.000473    0.005596   -0.036222   -0.025889
   4 H    0.025438   -0.015456    0.000473    0.005596   -0.036223   -0.025889
   5 H    0.025436   -0.015456    0.000473    0.005596   -0.036222   -0.025889
   6 H    0.025435   -0.015456    0.000473    0.005596   -0.036222   -0.025889
  ----------------------------------------------------------------------------
  Sum:   -1.000000    1.000000    0.189527    0.168142   -0.189527   -1.168142
  
  Multipole moment analysis of the density matrix
    Molecular charge:                      -1.000000
    Number of electrons:                   17.000000
      Center of electronic charge [Ang]: [ -0.000000,   0.000000,   0.000000]
    Total nuclear charge:                  16.000000
      Center of nuclear charge [Ang]:    [  0.000000,   0.000000,   0.000000]
    Dipole moment [D]:                     0.000001
      Cartesian components [D]:          [  0.000000,  -0.000001,  -0.000000]
    RMS size of the density [Ang]:         1.418364
      Cartesian components [Ang]:        [  1.038752,   0.686579,   0.679235]
  
  Exciton analysis of the difference density matrix
  Total:
    <r_h> [Ang]:                  [  0.000000,   0.000000,  -0.000000]
    <r_e> [Ang]:                  [  0.000000,   0.000000,   0.000000]
    |<r_e - r_h>| [Ang]:            0.000000
    Hole size [Ang]:                1.483180
      Cartesian components [Ang]: [  1.036339,   0.749276,   0.751271]
    Electron size [Ang]:            2.981800
      Cartesian components [Ang]: [  1.981329,   1.217059,   1.866610]
  
  Alpha spin:
    <r_h> [Ang]:                  [  0.000000,   0.000000,  -0.000000]
    <r_e> [Ang]:                  [  0.000000,  -0.000000,  -0.000000]
    |<r_e - r_h>| [Ang]:            0.000000
    Hole size [Ang]:                1.446501
      Cartesian components [Ang]: [  1.021824,   0.726657,   0.721257]
    Electron size [Ang]:            2.202947
      Cartesian components [Ang]: [  1.431603,   1.260153,   1.102498]
  
  Beta spin:
    <r_h> [Ang]:                  [  0.000000,  -0.000000,  -0.000000]
    <r_e> [Ang]:                  [  0.000000,   0.000000,   0.000000]
    |<r_e - r_h>| [Ang]:            0.000000
    Hole size [Ang]:                1.523465
      Cartesian components [Ang]: [  1.052461,   0.773980,   0.783726]
    Electron size [Ang]:            3.089710
      Cartesian components [Ang]: [  2.056713,   1.209922,   1.962734]
  ----------------------------------------------------------------------------


  Electron-attached state 3 (B2g)                                  [converged]
  ----------------------------------------------------------------------------
  Term symbol:  3 (2) B2g                                   R^2 =  2.99749e-09

  Total energy:                                            -78.1121454812 a.u.
  Electron attachment energy:                                      5.629130 eV

  Pole strength:                                                      0.961309

  Dip. moment [a.u.]:                  [   0.000000,   -0.000001,   -0.000000]
  Total dipole [Debye]:                                               0.000002
  <r^2> [a.u.]:                        [  70.179533,   29.975565,   33.266249]
  Total <r^2> [a.u.]:                                               133.421348

  V1^2 = 0.9670, V2^2 = 0.0330

  Important amplitudes:
       occ i       vir a        vir b           v   
    -------------------------------------------------
                               3 (B2g) B     -0.9457
                               2 (B2g) B     -0.2629
    -------------------------------------------------

  Density matrix analysis:
  ------------------------
  NOs (alpha)
    Occupation of frontier NOs:
       0.0245   0.9601
    Number of electrons:  8.000000
  NOs (beta)
    Occupation of frontier NOs:
       0.0305   0.9723
    Number of electrons:  9.000000
  NOs (spin-traced)
    Occupation of frontier NOs:
       0.0486   0.9800
    Number of electrons: 17.000000
    Number of unpaired electrons: n_u =  1.44518, n_u,nl =  1.05534
    NO participation ratio (PR_NO):  2.142071
  
  
  Mulliken Population Analysis
  Atom  Charge (e)    Spin (e)  h+ (alpha)   h+ (beta)  e- (alpha)   e- (beta)
  ----------------------------------------------------------------------------
   1 C   -0.578528    0.508595    0.063298    0.041751   -0.016786   -0.503834
   2 C   -0.578528    0.508595    0.063298    0.041751   -0.016786   -0.503834
   3 H    0.039264   -0.004298    0.000024    0.000856   -0.023280   -0.019814
   4 H    0.039266   -0.004298    0.000024    0.000856   -0.023281   -0.019814
   5 H    0.039264   -0.004298    0.000024    0.000856   -0.023281   -0.019814
   6 H    0.039262   -0.004298    0.000024    0.000856   -0.023280   -0.019814
  ----------------------------------------------------------------------------
  Sum:   -1.000000    1.000000    0.126693    0.086925   -0.126693   -1.086925
  
  Multipole moment analysis of the density matrix
    Molecular charge:                      -1.000000
    Number of electrons:                   17.000000
      Center of electronic charge [Ang]: [ -0.000000,   0.000000,   0.000000]
    Total nuclear charge:                  16.000000
      Center of nuclear charge [Ang]:    [  0.000000,   0.000000,   0.000000]
    Dipole moment [D]:                     0.000002
      Cartesian components [D]:          [  0.000000,  -0.000002,  -0.000000]
    RMS size of the density [Ang]:         1.482482
      Cartesian components [Ang]:        [  1.075182,   0.702684,   0.740250]
  
  Exciton analysis of the difference density matrix
  Total:
    <r_h> [Ang]:                  [  0.000000,  -0.000000,  -0.000000]
    <r_e> [Ang]:                  [  0.000000,   0.000000,   0.000000]
    |<r_e - r_h>| [Ang]:            0.000000
    Hole size [Ang]:                1.328438
      Cartesian components [Ang]: [  0.971167,   0.686596,   0.591749]
    Electron size [Ang]:            3.494873
      Cartesian components [Ang]: [  2.306483,   1.374040,   2.237474]
  
  Alpha spin:
    <r_h> [Ang]:                  [ -0.000000,  -0.000000,  -0.000000]
    <r_e> [Ang]:                  [ -0.000000,  -0.000000,  -0.000000]
    |<r_e - r_h>| [Ang]:            0.000000
    Hole size [Ang]:                1.328849
      Cartesian components [Ang]: [  0.958672,   0.664953,   0.636102]
    Electron size [Ang]:            2.149709
      Cartesian components [Ang]: [  1.410363,   1.228015,   1.060239]
  
  Beta spin:
    <r_h> [Ang]:                  [  0.000000,   0.000000,  -0.000000]
    <r_e> [Ang]:                  [  0.000000,   0.000000,   0.000000]
    |<r_e - r_h>| [Ang]:            0.000000
    Hole size [Ang]:                1.327838
      Cartesian components [Ang]: [  0.989096,   0.716972,   0.520378]
    Electron size [Ang]:            3.619278
      Cartesian components [Ang]: [  2.389162,   1.390063,   2.336408]
  ----------------------------------------------------------------------------


  Electron-attached state 4 (B2g)                                  [converged]
  ----------------------------------------------------------------------------
  Term symbol:  4 (2) B2g                                   R^2 =  8.71694e-13

  Total energy:                                            -77.8550771949 a.u.
  Electron attachment energy:                                     12.624314 eV

  Pole strength:                                                      0.000000

  Dip. moment [a.u.]:                  [   0.000000,   -0.000000,    0.000000]
  Total dipole [Debye]:                                               0.000001
  <r^2> [a.u.]:                        [ 122.516968,  136.123151,   47.294214]
  Total <r^2> [a.u.]:                                               305.934333

  V1^2 = 0.0000, V2^2 = 1.0000

  Important amplitudes:
       occ i       vir a        vir b           v   
    -------------------------------------------------
     1 (B1u) A    2 (B1g) A    2 (B2u) B     -0.5234
     1 (B1u) B    2 (B1g) B    2 (B2u) B     -0.4727
    -------------------------------------------------

  Density matrix analysis:
  ------------------------
  NOs (alpha)
    Occupation of frontier NOs:
       0.4162   0.5480
    Number of electrons:  8.000000
  NOs (beta)
    Occupation of frontier NOs:
       0.4521   0.5221
    Number of electrons:  9.000000
  NOs (spin-traced)
    Occupation of frontier NOs:
       0.9383   1.0001
    Number of electrons: 17.000000
    Number of unpaired electrons: n_u =  3.28207, n_u,nl =  3.02340
    NO participation ratio (PR_NO):  3.730676
  
  
  Mulliken Population Analysis
  Atom  Charge (e)    Spin (e)  h+ (alpha)   h+ (beta)  e- (alpha)   e- (beta)
  ----------------------------------------------------------------------------
   1 C   -0.635189    0.482709    0.273341    0.220881   -0.268102   -0.698351
   2 C   -0.635189    0.482709    0.273341    0.220881   -0.268102   -0.698351
   3 H    0.067594    0.008645    0.001598    0.001291   -0.004217   -0.012556
   4 H    0.067597    0.008645    0.001598    0.001291   -0.004217   -0.012556
   5 H    0.067595    0.008645    0.001598    0.001291   -0.004217   -0.012556
   6 H    0.067592    0.008645    0.001598    0.001291   -0.004217   -0.012556
  ----------------------------------------------------------------------------
  Sum:   -1.000000    1.000000    0.553073    0.446927   -0.553073   -1.446927
  
  Multipole moment analysis of the density matrix
    Molecular charge:                      -1.000000
    Number of electrons:                   17.000000
      Center of electronic charge [Ang]: [ -0.000000,   0.000000,  -0.000000]
    Total nuclear charge:                  16.000000
      Center of nuclear charge [Ang]:    [  0.000000,   0.000000,   0.000000]
    Dipole moment [D]:                     0.000001
      Cartesian components [D]:          [  0.000000,  -0.000001,   0.000000]
    RMS size of the density [Ang]:         2.244868
      Cartesian components [Ang]:        [  1.420610,   1.497417,   0.882634]
  
  Exciton analysis of the difference density matrix
  Total:
    <r_h> [Ang]:                  [ -0.000000,   0.000000,   0.000000]
    <r_e> [Ang]:                  [ -0.000000,   0.000000,  -0.000000]
    |<r_e - r_h>| [Ang]:            0.000000
    Hole size [Ang]:                1.251949
      Cartesian components [Ang]: [  0.747891,   0.510255,   0.864683]
    Electron size [Ang]:            5.671078
      Cartesian components [Ang]: [  3.276440,   4.010942,   2.310501]
  
  Alpha spin:
    <r_h> [Ang]:                  [ -0.000000,   0.000000,   0.000000]
    <r_e> [Ang]:                  [ -0.000000,  -0.000000,   0.000000]
    |<r_e - r_h>| [Ang]:            0.000000
    Hole size [Ang]:                1.251949
      Cartesian components [Ang]: [  0.747891,   0.510255,   0.864683]
    Electron size [Ang]:            6.017388
      Cartesian components [Ang]: [  3.946681,   3.935748,   2.267720]
  
  Beta spin:
    <r_h> [Ang]:                  [ -0.000000,   0.000000,   0.000000]
    <r_e> [Ang]:                  [  0.000000,   0.000000,  -0.000000]
    |<r_e - r_h>| [Ang]:            0.000000
    Hole size [Ang]:                1.251949
      Cartesian components [Ang]: [  0.747891,   0.510255,   0.864683]
    Electron size [Ang]:            5.532982
      Cartesian components [Ang]: [  2.980696,   4.039314,   2.326646]
  ----------------------------------------------------------------------------


  Electron-attached state 5 (B2g)                                  [converged]
  ----------------------------------------------------------------------------
  Term symbol:  5 (2) B2g                                   R^2 =  6.11183e-13

  Total energy:                                            -77.8550770480 a.u.
  Electron attachment energy:                                     12.624318 eV

  Pole strength:                                                      0.000000

  Dip. moment [a.u.]:                  [   0.000000,   -0.000000,    0.000000]
  Total dipole [Debye]:                                               0.000001
  <r^2> [a.u.]:                        [ 122.517062,  136.123302,   47.294285]
  Total <r^2> [a.u.]:                                               305.934649

  V1^2 = 0.0000, V2^2 = 1.0000

  Important amplitudes:
       occ i       vir a        vir b           v   
    -------------------------------------------------
     1 (B1u) A    2 (B2u) A    2 (B1g) B     -0.5751
     1 (B1u) B    2 (B1g) B    2 (B2u) B      0.3315
    -------------------------------------------------

  Density matrix analysis:
  ------------------------
  NOs (alpha)
    Occupation of frontier NOs:
       0.1903   0.6617
    Number of electrons:  8.000000
  NOs (beta)
    Occupation of frontier NOs:
       0.3386   0.7490
    Number of electrons:  9.000000
  NOs (spin-traced)
    Occupation of frontier NOs:
       0.9383   1.0001
    Number of electrons: 17.000000
    Number of unpaired electrons: n_u =  3.28208, n_u,nl =  3.02340
    NO participation ratio (PR_NO):  3.730677
  
  
  Mulliken Population Analysis
  Atom  Charge (e)    Spin (e)  h+ (alpha)   h+ (beta)  e- (alpha)   e- (beta)
  ----------------------------------------------------------------------------
   1 C   -0.635189    0.491074    0.385621    0.108600   -0.376200   -0.590253
   2 C   -0.635189    0.491074    0.385621    0.108600   -0.376200   -0.590253
   3 H    0.067594    0.004463    0.002254    0.000635   -0.006965   -0.009808
   4 H    0.067597    0.004463    0.002254    0.000635   -0.006965   -0.009808
   5 H    0.067595    0.004463    0.002254    0.000635   -0.006965   -0.009808
   6 H    0.067592    0.004463    0.002254    0.000635   -0.006965   -0.009808
  ----------------------------------------------------------------------------
  Sum:   -1.000000    1.000000    0.780260    0.219740   -0.780260   -1.219740
  
  Multipole moment analysis of the density matrix
    Molecular charge:                      -1.000000
    Number of electrons:                   17.000000
      Center of electronic charge [Ang]: [ -0.000000,   0.000000,  -0.000000]
    Total nuclear charge:                  16.000000
      Center of nuclear charge [Ang]:    [  0.000000,   0.000000,   0.000000]
    Dipole moment [D]:                     0.000001
      Cartesian components [D]:          [  0.000000,  -0.000001,   0.000000]
    RMS size of the density [Ang]:         2.244869
      Cartesian components [Ang]:        [  1.420610,   1.497418,   0.882635]
  
  Exciton analysis of the difference density matrix
  Total:
    <r_h> [Ang]:                  [ -0.000000,   0.000000,   0.000000]
    <r_e> [Ang]:                  [ -0.000000,   0.000000,  -0.000000]
    |<r_e - r_h>| [Ang]:            0.000000
    Hole size [Ang]:                1.251949
      Cartesian components [Ang]: [  0.747891,   0.510255,   0.864683]
    Electron size [Ang]:            5.671083
      Cartesian components [Ang]: [  3.276443,   4.010945,   2.310504]
  
  Alpha spin:
    <r_h> [Ang]:                  [ -0.000000,   0.000000,   0.000000]
    <r_e> [Ang]:                  [  0.000000,   0.000000,  -0.000000]
    |<r_e - r_h>| [Ang]:            0.000000
    Hole size [Ang]:                1.251949
      Cartesian components [Ang]: [  0.747891,   0.510255,   0.864683]
    Electron size [Ang]:            5.412206
      Cartesian components [Ang]: [  2.702491,   4.063403,   2.340355]
  
  Beta spin:
    <r_h> [Ang]:                  [ -0.000000,   0.000000,   0.000000]
    <r_e> [Ang]:                  [ -0.000000,  -0.000000,  -0.000000]
    |<r_e - r_h>| [Ang]:            0.000000
    Hole size [Ang]:                1.251949
      Cartesian components [Ang]: [  0.747891,   0.510255,   0.864682]
    Electron size [Ang]:            5.830660
      Cartesian components [Ang]: [  3.595867,   3.977024,   2.291204]
  ----------------------------------------------------------------------------


  Electron-attached state 6 (B2g)                                  [converged]
  ----------------------------------------------------------------------------
  Term symbol:  6 (2) B2g                                   R^2 =  8.31216e-14

  Total energy:                                            -77.8512936773 a.u.
  Electron attachment energy:                                     12.727268 eV

  Pole strength:                                                      0.000000

  Dip. moment [a.u.]:                  [   0.000000,   -0.000001,    0.000000]
  Total dipole [Debye]:                                               0.000002
  <r^2> [a.u.]:                        [ 190.180580,   64.792450,   52.502501]
  Total <r^2> [a.u.]:                                               307.475531

  V1^2 = 0.0000, V2^2 = 1.0000

  Important amplitudes:
       occ i       vir a        vir b           v   
    -------------------------------------------------
     1 (B1u) A    3 (B3u) A    4 (Ag ) B     -0.5690
     1 (B1u) A    4 (Ag ) A    3 (B3u) B     -0.3694
    -------------------------------------------------

  Density matrix analysis:
  ------------------------
  NOs (alpha)
    Occupation of frontier NOs:
       0.2729   0.6475
    Number of electrons:  8.000000
  NOs (beta)
    Occupation of frontier NOs:
       0.3526   0.7271
    Number of electrons:  9.000000
  NOs (spin-traced)
    Occupation of frontier NOs:
       0.9383   1.0001
    Number of electrons: 17.000000
    Number of unpaired electrons: n_u =  3.28247, n_u,nl =  3.02342
    NO participation ratio (PR_NO):  3.731057
  
  
  Mulliken Population Analysis
  Atom  Charge (e)    Spin (e)  h+ (alpha)   h+ (beta)  e- (alpha)   e- (beta)
  ----------------------------------------------------------------------------
   1 C   -0.667684    0.490843    0.454853    0.039368   -0.461795   -0.537153
   2 C   -0.667684    0.490843    0.454853    0.039368   -0.461795   -0.537153
   3 H    0.083842    0.004578    0.002659    0.000230    0.000812   -0.001338
   4 H    0.083844    0.004578    0.002659    0.000230    0.000812   -0.001338
   5 H    0.083843    0.004578    0.002659    0.000230    0.000812   -0.001338
   6 H    0.083840    0.004578    0.002659    0.000230    0.000812   -0.001338
  ----------------------------------------------------------------------------
  Sum:   -1.000000    1.000000    0.920343    0.079657   -0.920343   -1.079657
  
  Multipole moment analysis of the density matrix
    Molecular charge:                      -1.000000
    Number of electrons:                   17.000000
      Center of electronic charge [Ang]: [ -0.000000,   0.000000,  -0.000000]
    Total nuclear charge:                  16.000000
      Center of nuclear charge [Ang]:    [  0.000000,   0.000000,   0.000000]
    Dipole moment [D]:                     0.000002
      Cartesian components [D]:          [  0.000000,  -0.000002,   0.000000]
    RMS size of the density [Ang]:         2.250515
      Cartesian components [Ang]:        [  1.769945,   1.033092,   0.929965]
  
  Exciton analysis of the difference density matrix
  Total:
    <r_h> [Ang]:                  [ -0.000000,   0.000000,   0.000000]
    <r_e> [Ang]:                  [ -0.000000,   0.000000,  -0.000000]
    |<r_e - r_h>| [Ang]:            0.000000
    Hole size [Ang]:                1.251949
      Cartesian components [Ang]: [  0.747891,   0.510255,   0.864683]
    Electron size [Ang]:            5.690072
      Cartesian components [Ang]: [  4.495435,   2.469886,   2.463260]
  
  Alpha spin:
    <r_h> [Ang]:                  [ -0.000000,   0.000000,   0.000000]
    <r_e> [Ang]:                  [  0.000000,   0.000000,  -0.000000]
    |<r_e - r_h>| [Ang]:            0.000000
    Hole size [Ang]:                1.251949
      Cartesian components [Ang]: [  0.747891,   0.510255,   0.864683]
    Electron size [Ang]:            5.694694
      Cartesian components [Ang]: [  4.454602,   2.509319,   2.507863]
  
  Beta spin:
    <r_h> [Ang]:                  [ -0.000000,   0.000000,   0.000000]
    <r_e> [Ang]:                  [ -0.000000,   0.000000,  -0.000000]
    |<r_e - r_h>| [Ang]:            0.000000
    Hole size [Ang]:                1.251949
      Cartesian components [Ang]: [  0.747891,   0.510255,   0.864683]
    Electron size [Ang]:            5.686129
      Cartesian components [Ang]: [  4.529951,   2.435768,   2.424591]
  ----------------------------------------------------------------------------


  Electron-attached state 7 (B2g)                                  [converged]
  ----------------------------------------------------------------------------
  Term symbol:  7 (2) B2g                                   R^2 =  1.20676e-13

  Total energy:                                            -77.8512921708 a.u.
  Electron attachment energy:                                     12.727309 eV

  Pole strength:                                                      0.000004

  Dip. moment [a.u.]:                  [   0.000000,   -0.000001,    0.000000]
  Total dipole [Debye]:                                               0.000002
  <r^2> [a.u.]:                        [ 190.187139,   64.791221,   52.501534]
  Total <r^2> [a.u.]:                                               307.479894

  V1^2 = 0.0000, V2^2 = 1.0000

  Important amplitudes:
       occ i       vir a        vir b           v   
    -------------------------------------------------
     1 (B1u) B    4 (Ag ) B    3 (B3u) B     -0.5418
     1 (B1u) A    4 (Ag ) A    3 (B3u) B     -0.4437
    -------------------------------------------------

  Density matrix analysis:
  ------------------------
  NOs (alpha)
    Occupation of frontier NOs:
       0.3938   0.5560
    Number of electrons:  8.000000
  NOs (beta)
    Occupation of frontier NOs:
       0.3823   0.6063
    Number of electrons:  9.000000
  NOs (spin-traced)
    Occupation of frontier NOs:
       0.9383   1.0001
    Number of electrons: 17.000000
    Number of unpaired electrons: n_u =  3.28250, n_u,nl =  3.02342
    NO participation ratio (PR_NO):  3.731084
  
  
  Mulliken Population Analysis
  Atom  Charge (e)    Spin (e)  h+ (alpha)   h+ (beta)  e- (alpha)   e- (beta)
  ----------------------------------------------------------------------------
   1 C   -0.667688    0.504602    0.204108    0.290111   -0.204172   -0.794778
   2 C   -0.667688    0.504602    0.204108    0.290111   -0.204172   -0.794778
   3 H    0.083844   -0.002301    0.001193    0.001696   -0.001161    0.000637
   4 H    0.083846   -0.002301    0.001193    0.001696   -0.001161    0.000637
   5 H    0.083844   -0.002301    0.001193    0.001696   -0.001161    0.000637
   6 H    0.083842   -0.002301    0.001193    0.001696   -0.001161    0.000637
  ----------------------------------------------------------------------------
  Sum:   -1.000000    1.000000    0.412989    0.587007   -0.412989   -1.587007
  
  Multipole moment analysis of the density matrix
    Molecular charge:                      -1.000000
    Number of electrons:                   17.000000
      Center of electronic charge [Ang]: [ -0.000000,   0.000000,  -0.000000]
    Total nuclear charge:                  16.000000
      Center of nuclear charge [Ang]:    [  0.000000,   0.000000,   0.000000]
    Dipole moment [D]:                     0.000002
      Cartesian components [D]:          [  0.000000,  -0.000002,   0.000000]
    RMS size of the density [Ang]:         2.250531
      Cartesian components [Ang]:        [  1.769975,   1.033082,   0.929957]
  
  Exciton analysis of the difference density matrix
  Total:
    <r_h> [Ang]:                  [ -0.000000,   0.000000,   0.000000]
    <r_e> [Ang]:                  [ -0.000000,   0.000000,  -0.000000]
    |<r_e - r_h>| [Ang]:            0.000000
    Hole size [Ang]:                1.251948
      Cartesian components [Ang]: [  0.747891,   0.510254,   0.864682]
    Electron size [Ang]:            5.690131
      Cartesian components [Ang]: [  4.495541,   2.469853,   2.463235]
  
  Alpha spin:
    <r_h> [Ang]:                  [ -0.000000,   0.000000,   0.000000]
    <r_e> [Ang]:                  [ -0.000000,   0.000000,   0.000000]
    |<r_e - r_h>| [Ang]:            0.000000
    Hole size [Ang]:                1.251950
      Cartesian components [Ang]: [  0.747891,   0.510255,   0.864683]
    Electron size [Ang]:            5.679869
      Cartesian components [Ang]: [  4.585369,   2.379555,   2.360726]
  
  Beta spin:
    <r_h> [Ang]:                  [ -0.000000,   0.000000,   0.000000]
    <r_e> [Ang]:                  [  0.000000,   0.000000,  -0.000000]
    |<r_e - r_h>| [Ang]:            0.000000
    Hole size [Ang]:                1.251947
      Cartesian components [Ang]: [  0.747890,   0.510254,   0.864681]
    Electron size [Ang]:            5.692798
      Cartesian components [Ang]: [  4.471869,   2.492816,   2.489218]
  ----------------------------------------------------------------------------


  Electron-attached state 8 (B2g)                                  [converged]
  ----------------------------------------------------------------------------
  Term symbol:  8 (2) B2g                                   R^2 =  1.80564e-14

  Total energy:                                            -77.8489390294 a.u.
  Electron attachment energy:                                     12.791342 eV

  Pole strength:                                                      0.000028

  Dip. moment [a.u.]:                  [   0.000000,   -0.000001,   -0.000000]
  Total dipole [Debye]:                                               0.000002
  <r^2> [a.u.]:                        [ 118.169741,   58.159850,  119.974330]
  Total <r^2> [a.u.]:                                               296.303921

  V1^2 = 0.0000, V2^2 = 1.0000

  Important amplitudes:
       occ i       vir a        vir b           v   
    -------------------------------------------------
     1 (B1u) A    2 (B1u) A    1 (B2g) B     -0.5724
     1 (B1u) B    1 (B2g) B    2 (B1u) B      0.3517
    -------------------------------------------------

  Density matrix analysis:
  ------------------------
  NOs (alpha)
    Occupation of frontier NOs:
       0.2175   0.6554
    Number of electrons:  8.000000
  NOs (beta)
    Occupation of frontier NOs:
       0.3449   0.7215
    Number of electrons:  9.000000
  NOs (spin-traced)
    Occupation of frontier NOs:
       0.9377   1.0005
    Number of electrons: 17.000000
    Number of unpaired electrons: n_u =  3.28017, n_u,nl =  3.02312
    NO participation ratio (PR_NO):  3.730171
  
  
  Mulliken Population Analysis
  Atom  Charge (e)    Spin (e)  h+ (alpha)   h+ (beta)  e- (alpha)   e- (beta)
  ----------------------------------------------------------------------------
   1 C   -0.668608    0.497014    0.371987    0.122244   -0.376306   -0.623576
   2 C   -0.668608    0.497014    0.371987    0.122244   -0.376306   -0.623576
   3 H    0.084304    0.001493    0.002175    0.000715   -0.000015   -0.000049
   4 H    0.084306    0.001493    0.002175    0.000715   -0.000015   -0.000049
   5 H    0.084304    0.001493    0.002175    0.000715   -0.000015   -0.000049
   6 H    0.084302    0.001493    0.002175    0.000715   -0.000015   -0.000049
  ----------------------------------------------------------------------------
  Sum:   -1.000000    1.000000    0.752673    0.247347   -0.752673   -1.247347
  
  Multipole moment analysis of the density matrix
    Molecular charge:                      -1.000000
    Number of electrons:                   17.000000
      Center of electronic charge [Ang]: [ -0.000000,   0.000000,   0.000000]
    Total nuclear charge:                  16.000000
      Center of nuclear charge [Ang]:    [  0.000000,   0.000000,   0.000000]
    Dipole moment [D]:                     0.000002
      Cartesian components [D]:          [  0.000000,  -0.000002,  -0.000000]
    RMS size of the density [Ang]:         2.209253
      Cartesian components [Ang]:        [  1.395179,   0.978787,   1.405791]
  
  Exciton analysis of the difference density matrix
  Total:
    <r_h> [Ang]:                  [ -0.000000,   0.000000,   0.000000]
    <r_e> [Ang]:                  [ -0.000000,   0.000000,   0.000000]
    |<r_e - r_h>| [Ang]:            0.000000
    Hole size [Ang]:                1.252165
      Cartesian components [Ang]: [  0.747982,   0.510368,   0.864850]
    Electron size [Ang]:            5.550920
      Cartesian components [Ang]: [  3.182194,   2.274134,   3.938866]
  
  Alpha spin:
    <r_h> [Ang]:                  [ -0.000000,   0.000000,   0.000000]
    <r_e> [Ang]:                  [ -0.000000,   0.000000,   0.000000]
    |<r_e - r_h>| [Ang]:            0.000000
    Hole size [Ang]:                1.252146
      Cartesian components [Ang]: [  0.747971,   0.510355,   0.864839]
    Electron size [Ang]:            5.364354
      Cartesian components [Ang]: [  2.624065,   2.339376,   4.051901]
  
  Beta spin:
    <r_h> [Ang]:                  [ -0.000000,   0.000000,   0.000000]
    <r_e> [Ang]:                  [  0.000000,   0.000000,   0.000000]
    |<r_e - r_h>| [Ang]:            0.000000
    Hole size [Ang]:                1.252222
      Cartesian components [Ang]: [  0.748013,   0.510405,   0.864884]
    Electron size [Ang]:            5.660523
      Cartesian components [Ang]: [  3.475892,   2.233844,   3.869061]
  ----------------------------------------------------------------------------


  Electron-attached state 9 (B2g)                                  [converged]
  ----------------------------------------------------------------------------
  Term symbol:  9 (2) B2g                                   R^2 =  6.78436e-15

  Total energy:                                            -77.8489289601 a.u.
  Electron attachment energy:                                     12.791616 eV

  Pole strength:                                                      0.000064

  Dip. moment [a.u.]:                  [   0.000000,   -0.000001,   -0.000000]
  Total dipole [Debye]:                                               0.000002
  <r^2> [a.u.]:                        [ 118.180136,   58.161841,  119.979419]
  Total <r^2> [a.u.]:                                               296.321396

  V1^2 = 0.0001, V2^2 = 0.9999

  Important amplitudes:
       occ i       vir a        vir b           v   
    -------------------------------------------------
     1 (B1u) A    1 (B2g) A    2 (B1u) B     -0.5335
     1 (B1u) B    1 (B2g) B    2 (B1u) B     -0.4579
    -------------------------------------------------

  Density matrix analysis:
  ------------------------
  NOs (alpha)
    Occupation of frontier NOs:
       0.3887   0.5695
    Number of electrons:  8.000000
  NOs (beta)
    Occupation of frontier NOs:
       0.4310   0.5496
    Number of electrons:  9.000000
  NOs (spin-traced)
    Occupation of frontier NOs:
       0.9374   1.0005
    Number of electrons: 17.000000
    Number of unpaired electrons: n_u =  3.27957, n_u,nl =  3.02303
    NO participation ratio (PR_NO):  3.730357
  
  
  Mulliken Population Analysis
  Atom  Charge (e)    Spin (e)  h+ (alpha)   h+ (beta)  e- (alpha)   e- (beta)
  ----------------------------------------------------------------------------
   1 C   -0.668593    0.499066    0.286980    0.207262   -0.290265   -0.709612
   2 C   -0.668593    0.499066    0.286980    0.207262   -0.290265   -0.709612
   3 H    0.084296    0.000467    0.001678    0.001212   -0.000036   -0.000036
   4 H    0.084299    0.000467    0.001678    0.001212   -0.000036   -0.000036
   5 H    0.084297    0.000467    0.001678    0.001212   -0.000036   -0.000036
   6 H    0.084294    0.000467    0.001678    0.001212   -0.000036   -0.000036
  ----------------------------------------------------------------------------
  Sum:   -1.000000    1.000000    0.580672    0.419370   -0.580672   -1.419370
  
  Multipole moment analysis of the density matrix
    Molecular charge:                      -1.000000
    Number of electrons:                   17.000000
      Center of electronic charge [Ang]: [ -0.000000,   0.000000,   0.000000]
    Total nuclear charge:                  16.000000
      Center of nuclear charge [Ang]:    [  0.000000,   0.000000,   0.000000]
    Dipole moment [D]:                     0.000002
      Cartesian components [D]:          [  0.000000,  -0.000002,  -0.000000]
    RMS size of the density [Ang]:         2.209318
      Cartesian components [Ang]:        [  1.395240,   0.978804,   1.405821]
  
  Exciton analysis of the difference density matrix
  Total:
    <r_h> [Ang]:                  [ -0.000000,   0.000000,   0.000000]
    <r_e> [Ang]:                  [ -0.000000,   0.000000,   0.000000]
    |<r_e - r_h>| [Ang]:            0.000000
    Hole size [Ang]:                1.252149
      Cartesian components [Ang]: [  0.747980,   0.510365,   0.864830]
    Electron size [Ang]:            5.551110
      Cartesian components [Ang]: [  3.182406,   2.274183,   3.938934]
  
  Alpha spin:
    <r_h> [Ang]:                  [ -0.000000,   0.000000,   0.000000]
    <r_e> [Ang]:                  [  0.000000,   0.000000,   0.000000]
    |<r_e - r_h>| [Ang]:            0.000000
    Hole size [Ang]:                1.251491
      Cartesian components [Ang]: [  0.747738,   0.510048,   0.864273]
    Electron size [Ang]:            5.784414
      Cartesian components [Ang]: [  3.785493,   2.186922,   3.787725]
  
  Beta spin:
    <r_h> [Ang]:                  [ -0.000000,   0.000000,   0.000000]
    <r_e> [Ang]:                  [ -0.000000,   0.000000,   0.000000]
    |<r_e - r_h>| [Ang]:            0.000000
    Hole size [Ang]:                1.253060
      Cartesian components [Ang]: [  0.748314,   0.510804,   0.865601]
    Electron size [Ang]:            5.452787
      Cartesian components [Ang]: [  2.899750,   2.308932,   3.999147]
  ----------------------------------------------------------------------------


  Electron-attached state 10 (B2g)                                  [converged]
  ----------------------------------------------------------------------------
  Term symbol:  10 (2) B2g                                  R^2 =  3.12926e-14

  Total energy:                                            -77.8152787913 a.u.
  Electron attachment energy:                                     13.707283 eV

  Pole strength:                                                      0.000005

  Dip. moment [a.u.]:                  [   0.000000,   -0.000001,    0.000000]
  Total dipole [Debye]:                                               0.000002
  <r^2> [a.u.]:                        [ 138.848268,   53.008295,   43.301295]
  Total <r^2> [a.u.]:                                               235.157857

  V1^2 = 0.0000, V2^2 = 1.0000

  Important amplitudes:
       occ i       vir a        vir b           v   
    -------------------------------------------------
     1 (B1u) A    3 (B3u) A    5 (Ag ) B      0.5587
     1 (B1u) B    5 (Ag ) B    3 (B3u) B     -0.4055
    -------------------------------------------------

  Density matrix analysis:
  ------------------------
  NOs (alpha)
    Occupation of frontier NOs:
       0.2985   0.6243
    Number of electrons:  8.000000
  NOs (beta)
    Occupation of frontier NOs:
       0.3758   0.6401
    Number of electrons:  9.000000
  NOs (spin-traced)
    Occupation of frontier NOs:
       0.9383   1.0002
    Number of electrons: 17.000000
    Number of unpaired electrons: n_u =  3.27746, n_u,nl =  3.02321
    NO participation ratio (PR_NO):  3.726074
  
  
  Mulliken Population Analysis
  Atom  Charge (e)    Spin (e)  h+ (alpha)   h+ (beta)  e- (alpha)   e- (beta)
  ----------------------------------------------------------------------------
   1 C   -0.790681    0.602636    0.331716    0.162504   -0.344260   -0.777684
   2 C   -0.790681    0.602636    0.331716    0.162504   -0.344260   -0.777684
   3 H    0.145340   -0.051318    0.001939    0.000950    0.004333    0.056640
   4 H    0.145343   -0.051318    0.001939    0.000950    0.004333    0.056640
   5 H    0.145341   -0.051318    0.001939    0.000950    0.004333    0.056640
   6 H    0.145339   -0.051318    0.001939    0.000950    0.004333    0.056640
  ----------------------------------------------------------------------------
  Sum:   -1.000000    1.000000    0.671189    0.328807   -0.671189   -1.328807
  
  Multipole moment analysis of the density matrix
    Molecular charge:                      -1.000000
    Number of electrons:                   17.000000
      Center of electronic charge [Ang]: [ -0.000000,   0.000000,  -0.000000]
    Total nuclear charge:                  16.000000
      Center of nuclear charge [Ang]:    [  0.000000,   0.000000,   0.000000]
    Dipole moment [D]:                     0.000002
      Cartesian components [D]:          [  0.000000,  -0.000002,   0.000000]
    RMS size of the density [Ang]:         1.968142
      Cartesian components [Ang]:        [  1.512331,   0.934434,   0.844553]
  
  Exciton analysis of the difference density matrix
  Total:
    <r_h> [Ang]:                  [ -0.000000,   0.000000,   0.000000]
    <r_e> [Ang]:                  [ -0.000000,   0.000000,  -0.000000]
    |<r_e - r_h>| [Ang]:            0.000000
    Hole size [Ang]:                1.251949
      Cartesian components [Ang]: [  0.747891,   0.510255,   0.864682]
    Electron size [Ang]:            4.717145
      Cartesian components [Ang]: [  3.608560,   2.109596,   2.186174]
  
  Alpha spin:
    <r_h> [Ang]:                  [ -0.000000,   0.000000,   0.000000]
    <r_e> [Ang]:                  [  0.000000,   0.000000,  -0.000000]
    |<r_e - r_h>| [Ang]:            0.000000
    Hole size [Ang]:                1.251949
      Cartesian components [Ang]: [  0.747891,   0.510255,   0.864682]
    Electron size [Ang]:            5.574245
      Cartesian components [Ang]: [  4.293187,   2.506914,   2.521137]
  
  Beta spin:
    <r_h> [Ang]:                  [ -0.000000,   0.000000,   0.000000]
    <r_e> [Ang]:                  [ -0.000000,   0.000000,  -0.000000]
    |<r_e - r_h>| [Ang]:            0.000000
    Hole size [Ang]:                1.251949
      Cartesian components [Ang]: [  0.747891,   0.510255,   0.864681]
    Electron size [Ang]:            4.218536
      Cartesian components [Ang]: [  3.207679,   1.877210,   1.995726]
  ----------------------------------------------------------------------------


--------------------------------------------------------------------------------
  Time of ADC calculation:  CPU 35.41 s  wall 10.28 s
================================================================================
 
 --------------------------------------------------------------
             Orbital Energies (a.u.) and Symmetries
 --------------------------------------------------------------
 
 Alpha MOs, Restricted
 -- Occupied --                  
-11.237 -11.235  -1.042  -0.782  -0.660  -0.567  -0.515  -0.377
  1 Ag    1 B3u   2 Ag    2 B3u   1 B2u   3 Ag    1 B1g   1 B1u                
 -- Virtual --                   
  0.033   0.036   0.040   0.051   0.053   0.058   0.094   0.116
  3 B3u   2 B2u   2 B1u   2 B1g   1 B2g   4 Ag    5 Ag    4 B3u                
  0.122   0.145   0.164   0.168   0.187   0.246   0.266   0.293
  2 B2g   3 B2u   3 B1g   3 B1u   6 Ag    3 B2g   7 Ag    5 B3u                
  0.334   0.347   0.441   0.509   0.664   0.746   0.841   0.859
  4 B2u   6 B3u   4 B1g   7 B3u   8 Ag    5 B2u   4 B1u   9 Ag                 
  0.901   0.902   0.930   0.997   1.024   1.031   1.114   1.283
  6 B2u   4 B2g   8 B3u   9 B3u  10 Ag    5 B1g   1 B3g   5 B1u                
  1.284   1.307   1.347   1.605   1.616   1.694   1.845   1.920
  1 Au   10 B3u   6 B1g  11 Ag    7 B1g   7 B2u   5 B2g  11 B3u                
  1.937   1.970   2.017   2.031   2.170   2.269   2.412   2.438
  6 B1u  12 Ag    2 B3g   8 B2u   6 B2g  12 B3u   2 Au   13 Ag                 
  2.536   2.573   2.798   2.801   3.258   3.340
  8 B1g  13 B3u  14 Ag    9 B2u  14 B3u   9 B1g                                
 
 Beta MOs, Restricted
 -- Occupied --                  
-11.237 -11.235  -1.042  -0.782  -0.660  -0.567  -0.515  -0.377
  1 Ag    1 B3u   2 Ag    2 B3u   1 B2u   3 Ag    1 B1g   1 B1u                
 -- Virtual --                   
  0.033   0.036   0.040   0.051   0.053   0.058   0.094   0.116
  3 B3u   2 B2u   2 B1u   2 B1g   1 B2g   4 Ag    5 Ag    4 B3u                
  0.122   0.145   0.164   0.168   0.187   0.246   0.266   0.293
  2 B2g   3 B2u   3 B1g   3 B1u   6 Ag    3 B2g   7 Ag    5 B3u                
  0.334   0.347   0.441   0.509   0.664   0.746   0.841   0.859
  4 B2u   6 B3u   4 B1g   7 B3u   8 Ag    5 B2u   4 B1u   9 Ag                 
  0.901   0.902   0.930   0.997   1.024   1.031   1.114   1.283
  6 B2u   4 B2g   8 B3u   9 B3u  10 Ag    5 B1g   1 B3g   5 B1u                
  1.284   1.307   1.347   1.605   1.616   1.694   1.845   1.920
  1 Au   10 B3u   6 B1g  11 Ag    7 B1g   7 B2u   5 B2g  11 B3u                
  1.937   1.970   2.017   2.031   2.170   2.269   2.412   2.438
  6 B1u  12 Ag    2 B3g   8 B2u   6 B2g  12 B3u   2 Au   13 Ag                 
  2.536   2.573   2.798   2.801   3.258   3.340
  8 B1g  13 B3u  14 Ag    9 B2u  14 B3u   9 B1g                                
 --------------------------------------------------------------
 
          Ground-State Mulliken Net Atomic Charges

     Atom                 Charge (a.u.)
  ----------------------------------------
      1 C                    -0.149175
      2 C                    -0.149175
      3 H                     0.074587
      4 H                     0.074590
      5 H                     0.074588
      6 H                     0.074585
  ----------------------------------------
  Sum of atomic charges =     0.000000

 -----------------------------------------------------------------
                    Cartesian Multipole Moments
 -----------------------------------------------------------------
    Charge (ESU x 10^10)
                 0.0000
    Dipole Moment (Debye)
         X       0.0000      Y      -0.0000      Z       0.0000
       Tot       0.0000
    Quadrupole Moments (Debye-Ang)
        XX     -12.9429     XY       0.0000     YY     -11.9602
        XZ       0.0000     YZ      -0.0000     ZZ     -16.1167
    Octopole Moments (Debye-Ang^2)
       XXX       0.0000    XXY      -0.0000    XYY       0.0000
       YYY      -0.0000    XXZ       0.0000    XYZ       0.0000
       YYZ       0.0000    XZZ       0.0000    YZZ      -0.0000
       ZZZ      -0.0000
    Hexadecapole Moments (Debye-Ang^3)
      XXXX     -68.2178   XXXY       0.0000   XXYY     -13.2408
      XYYY       0.0000   YYYY     -26.8347   XXXZ       0.0000
      XXYZ      -0.0000   XYYZ       0.0000   YYYZ      -0.0000
      XXZZ     -15.5292   XYZZ       0.0000   YYZZ      -8.9103
      XZZZ       0.0000   YZZZ      -0.0000   ZZZZ     -21.3621
 -----------------------------------------------------------------
 Total job time:  90.80s(wall), 76.53s(cpu) 
 Wed Feb 23 19:00:19 2022

        *************************************************************
        *                                                           *
        *  Thank you very much for using Q-Chem.  Have a nice day.  *
        *                                                           *
        *************************************************************


