                  Welcome to Q-Chem
     A Quantum Leap Into The Future Of Chemistry


 Q-Chem 5.4 (devel), Q-Chem, Inc., Pleasanton, CA (2021)

 E. Epifanovsky,  A. T. B. Gilbert,  Xintian Feng,  Joonho Lee,  Yuezhi Mao,  
 N. Mardirossian,  P. Pokhilko,  A. White,  M. Wormit,  M. P. Coons,  
 A. L. Dempwolff,  Zhengting Gan,  D. Hait,  P. R. Horn,  L. D. Jacobson,  
 I. Kaliman,  J. Kussmann,  A. W. Lange,  Ka Un Lao,  D. S. Levine,  Jie Liu,  
 S. C. McKenzie,  A. F. Morrison,  K. Nanda,  F. Plasser,  D. R. Rehn,  
 M. L. Vidal,  Zhi-Qiang You,  Ying Zhu,  B. Alam,  B. Albrecht,  
 A. Aldossary,  E. Alguire,  J. H. Andersen,  D. Barton,  K. Begam,  A. Behn,  
 Y. A. Bernard,  E. J. Berquist,  H. Burton,  A. Carreras,  K. Carter-Fenk,  
 R. Chakraborty,  A. D. Chien,  K. D. Closser,  V. Cofer-Shabica,  
 S. Dasgupta,  Jia Deng,  M. de Wergifosse,  M. Diedenhofen,  Hainam Do,  
 S. Ehlert,  Po-Tung Fang,  S. Fatehi,  Qingguo Feng,  T. Friedhoff,  
 J. Gayvert,  Qinghui Ge,  G. Gidofalvi,  M. Goldey,  J. Gomes,  
 C. Gonzalez-Espinoza,  S. Gulania,  A. Gunina,  M. W. D. Hanson-Heine,  
 P. H. P. Harbach,  A. W. Hauser,  M. F. Herbst,  M. Hernandez Vera,  
 M. Hodecker,  Z. C. Holden,  S. Houck,  Xunkun Huang,  Kerwin Hui,  
 B. C. Huynh,  M. Ivanov,  Hyunjun Ji,  Hanjie Jiang,  B. Kaduk,  S. Kaehler,  
 K. Khistyaev,  Jaehoon Kim,  P. Klunzinger,  Z. Koczor-Benda,  
 Joong Hoon Koh,  D. Kosenkov,  L. Koulias,  T. Kowalczyk,  C. M. Krauter,  
 K. Kue,  A. Kunitsa,  T. Kus,  A. Landau,  K. V. Lawler,  D. Lefrancois,  
 S. Lehtola,  Rain Li,  Yi-Pei Li,  Jiashu Liang,  M. Liebenthal,  
 Hung-Hsuan Lin,  You-Sheng Lin,  Fenglai Liu,  Kuan-Yu Liu,  
 M. Loipersberger,  A. Luenser,  A. Manjanath,  P. Manohar,  E. Mansoor,  
 S. F. Manzer,  Shan-Ping Mao,  A. V. Marenich,  T. Markovich,  S. Mason,  
 S. A. Maurer,  P. F. McLaughlin,  M. F. S. J. Menger,  J.-M. Mewes,  
 S. A. Mewes,  P. Morgante,  J. W. Mullinax,  K. J. Oosterbaan,  G. Paran,  
 Alexander C. Paul,  Suranjan K. Paul,  F. Pavosevic,  Zheng Pei,  S. Prager,  
 E. I. Proynov,  E. Ramos,  B. Rana,  A. E. Rask,  A. Rettig,  R. M. Richard,  
 F. Rob,  E. Rossomme,  T. Scheele,  M. Scheurer,  M. Schneider,  
 N. Sergueev,  S. M. Sharada,  W. Skomorowski,  D. W. Small,  C. J. Stein,  
 Yu-Chuan Su,  E. J. Sundstrom,  Zhen Tao,  J. Thirman,  T. Tsuchimochi,  
 N. M. Tubman,  S. P. Veccham,  O. Vydrov,  J. Wenzel,  J. Witte,  A. Yamada,  
 Kun Yao,  S. Yeganeh,  S. R. Yost,  A. Zech,  Igor Ying Zhang,  Xing Zhang,  
 Yu Zhang,  D. Zuev,  A. Aspuru-Guzik,  A. T. Bell,  N. A. Besley,  
 K. B. Bravaya,  B. R. Brooks,  D. Casanova,  Jeng-Da Chai,  S. Coriani,  
 C. J. Cramer,  A. E. DePrince, III,  R. A. DiStasio Jr.,  A. Dreuw,  
 B. D. Dunietz,  T. R. Furlani,  W. A. Goddard III,  S. Grimme,  
 S. Hammes-Schiffer,  T. Head-Gordon,  W. J. Hehre,  Chao-Ping Hsu,  
 T.-C. Jagau,  Yousung Jung,  A. Klamt,  Jing Kong,  D. S. Lambrecht,  
 WanZhen Liang,  N. J. Mayhall,  C. W. McCurdy,  J. B. Neaton,  
 C. Ochsenfeld,  J. A. Parkhill,  R. Peverati,  V. A. Rassolov,  Yihan Shao,  
 L. V. Slipchenko,  T. Stauch,  R. P. Steele,  J. E. Subotnik,  
 A. J. W. Thom,  A. Tkatchenko,  D. G. Truhlar,  T. Van Voorhis,  
 T. A. Wesolowski,  K. B. Whaley,  H. L. Woodcock III,  P. M. Zimmerman,  
 S. Faraji,  P. M. W. Gill,  M. Head-Gordon,  J. M. Herbert,  A. I. Krylov

 Additional authors for Version 5.4.1: 
 S. Kotaru,  Shaozhi Li,  Xiangyuan Li,  F. Matz,  A. Molle,  Haisheng Ren,  
 Yingli Su,  Hung-Yi Tsai,  C. Utku,  Fang Wang

 Contributors to earlier versions of Q-Chem not listed above: 
 R. D. Adamson,  B. Austin,  R. Baer,  J. Baker,  G. J. O. Beran,  
 K. Brandhorst,  S. T. Brown,  E. F. C. Byrd,  A. K. Chakraborty,  
 G. K. L. Chan,  Chun-Min Chang,  Yunqing Chen,  C.-L. Cheng,  
 Siu Hung Chien,  D. M. Chipman,  D. L. Crittenden,  H. Dachsel,  
 R. J. Doerksen,  A. D. Dutoi,  R. G. Edgar,  J. Fosso-Tande,  
 L. Fusti-Molnar,  D. Ghosh,  A. Ghysels,  A. Golubeva-Zadorozhnaya,  
 J. Gonthier,  M. S. Gordon,  S. R. Gwaltney,  G. Hawkins,  J. E. Herr,  
 A. Heyden,  S. Hirata,  E. G. Hohenstein,  G. Kedziora,  F. J. Keil,  
 C. Kelley,  Jihan Kim,  R. A. King,  R. Z. Khaliullin,  P. P. Korambath,  
 W. Kurlancheek,  A. Laurent,  A. M. Lee,  M. S. Lee,  S. V. Levchenko,  
 Ching Yeh Lin,  D. Liotard,  E. Livshits,  R. C. Lochan,  I. Lotan,  
 L. A. Martinez-Martinez,  P. E. Maslen,  N. Nair,  D. P. O'Neill,  
 D. Neuhauser,  E. Neuscamman,  C. M. Oana,  R. Olivares-Amaya,  R. Olson,  
 T. M. Perrine,  B. Peters,  P. A. Pieniazek,  A. Prociuk,  Y. M. Rhee,  
 J. Ritchie,  M. A. Rohrdanz,  E. Rosta,  N. J. Russ,  H. F. Schaefer III,  
 M. W. Schmidt,  N. E. Schultz,  S. Sharma,  N. Shenvi,  C. D. Sherrill,  
 A. C. Simmonett,  A. Sodt,  T. Stein,  D. Stuck,  K. S. Thanthiriwatte,  
 V. Vanovschi,  L. Vogt,  Tao Wang,  A. Warshel,  M. A. Watson,  
 C. F. Williams,  Q. Wu,  X. Xu,  Jun Yang,  W. Zhang,  Yan Zhao

 Please cite Q-Chem as follows:
 Y. Shao et al., Mol. Phys. 113, 184-215 (2015)
 DOI: 10.1080/00268976.2014.952696

 Q-Chem 5.4.1 for Intel X86 EM64T Linux

 Parts of Q-Chem use Armadillo 9.900.5 (Nocturnal Misbehaviour).
 http://arma.sourceforge.net/

 Q-Chem begins on Wed Apr  6 18:40:59 2022  

 Host: node01
0

     Scratch files written to /src/jdavis/qchem.scratch/qchem29838//
 Processing $rem in /src/tsommerfeld/qchem/config/preferences:
 Processing $rem in /home/jdavis/.qchemrc:
 Core orbitals will be frozen

 Checking the input file for inconsistencies... 	...done.

--------------------------------------------------------------
User input:
--------------------------------------------------------------
$comment
	Ethylene CAP-EOM-CCSD
	Basis: C: jun-TZ+4p1d, H: TZ
$end

$molecule
0 1
C       0.6645000000    -0.0000000000    -0.0000000000
C      -0.6645000000     0.0000000000     0.0000000000
H       1.1590799571     0.9623485159     0.0000000000
H       1.1590799571    -0.9623485159    -0.0000000000
H      -1.1590799571    -0.9623485159    -0.0000000000
H      -1.1590799571     0.9623485159     0.0000000000
$end

$rem
	method eom-mp2
	basis gen
        EA_STATES [0,0,10,0,0,0,0,0]
	complex_ccman 1
	xc_grid 000250000974
	scf_convergence 8
	thresh 14
	mem_total 95000
	threads 12
$end

$complex_ccman
	cap_type 2 
	proj_cap 3
	cap_eta 300 
	cap_x 3500
$end

$basis
H     0
S    1   1.00
      3.258000D-01           1.000000D+00
S    5   1.00
      3.387000D+01           6.068000D-03
      5.095000D+00           4.530800D-02
      1.159000D+00           2.028220D-01
      3.258000D-01           5.039030D-01
      1.027000D-01           3.834210D-01
S    1   1.00
      1.027000D-01           1.000000D+00
P    1   1.00
      1.407000D+00           1.000000D+00
P    1   1.00
      3.880000D-01           1.000000D+00
D    1   1.00
      1.057000D+00           1.0000000
****
C     0
S    8   1.00
   8236.0000000              0.0005310
   1235.0000000              0.0041080
    280.8000000              0.0210870
     79.2700000              0.0818530
     25.5900000              0.2348170
      8.9970000              0.4344010
      3.3190000              0.3461290
      0.3643000             -0.0089830
S    1   1.00
      0.9059000              1.0000000
S    8   1.00
   8236.0000000             -0.0001130
   1235.0000000             -0.0008780
    280.8000000             -0.0045400
     79.2700000             -0.0181330
     25.5900000             -0.0557600
      8.9970000             -0.1268950
      3.3190000             -0.1703520
      0.3643000              0.5986840
S    1   1.00
      0.1285000              1.0000000
S    1   1.00
      0.0440200              1.0000000
P    3   1.00
     18.7100000              0.0140310
      4.1330000              0.0868660
      1.2000000              0.2902160
P    1   1.00
      0.3827000              1.0000000
P    1   1.00
      0.1209000              1.0000000
P    1   1.00
      0.0356900              1.0000000
P    1   1.0
      0.0237933 1.0
P    1   1.0
      0.0158622 1.0
P    1   1.0
      0.0105748 1.0
P    1   1.0
      0.0070498 1.0
D    1   1.00
      1.0970000              1.0000000
D    1   1.00
      0.3180000              1.0000000
D    1   1.00
      0.1000000              1.0000000
D    1   1.00
      0.0500000 1.0
F    1   1.00
      0.7610000              1.0000000
****
$end
--------------------------------------------------------------
 ----------------------------------------------------------------
             Standard Nuclear Orientation (Angstroms)
    I     Atom           X                Y                Z
 ----------------------------------------------------------------
    1      C       0.6645000000     0.0000000000    -0.0000000000
    2      C      -0.6645000000    -0.0000000000     0.0000000000
    3      H       1.1590799571     0.9623485159    -0.0000000000
    4      H       1.1590799571    -0.9623485159    -0.0000000000
    5      H      -1.1590799571    -0.9623485159     0.0000000000
    6      H      -1.1590799571     0.9623485159     0.0000000000
 ----------------------------------------------------------------
 Molecular Point Group                 D2h   NOp =  8
 Largest Abelian Subgroup              D2h   NOp =  8
 Nuclear Repulsion Energy =          33.58921683 hartrees
 There are        8 alpha and        8 beta electrons
 Requested basis set is non-standard
 There are 60 shells and 168 basis functions
 Total memory of 95000 MB is distributed as follows: 
   MEM_STATIC is set to 192 MB
   QALLOC/CCMAN JOB total memory use is  94808 MB
 Warning: actual memory use might exceed 95000 MB

 Total QAlloc Memory Limit  95000 MB
 Mega-Array Size       188 MB
 MEM_STATIC part       192 MB

                       Distance Matrix (Angstroms)
             C (  1)   C (  2)   H (  3)   H (  4)   H (  5)
   C (  2)  1.329000
   H (  3)  1.082000  2.061931
   H (  4)  1.082000  2.061931  1.924697
   H (  5)  2.061931  1.082000  3.013026  2.318160
   H (  6)  2.061931  1.082000  2.318160  3.013026  1.924697
 
 A cutoff of  1.0D-14 yielded   1830 shell pairs
 There are     14430 function pairs (     17733 Cartesian)
 Smallest overlap matrix eigenvalue = 2.35E-06

 Scale SEOQF with 1.000000e-02/1.000000e-02/1.000000e-02

 Standard Electronic Orientation quadrupole field applied
 ================ Generating on-the-fly SAD Guess ================
Attempting to make child job directory: /src/jdavis/qchem.scratch/qchem29838//Frg1/
Attempting to make child job directory: /src/jdavis/qchem.scratch/qchem29838//Frg2/
Creating input file /src/jdavis/qchem.scratch/qchem29838/Frg1.input
using default PutDataFrgm: nothing
calling putenv with: QCSCRATCH=/src/jdavis/qchem.scratch/qchem29838/ 
Spawning Job For Fragment 0
Done Job For Fragment 0
calling putenv with: QCSCRATCH=/src/jdavis/qchem.scratch 
calling putenv with: QCTHREADS=1 
Creating input file /src/jdavis/qchem.scratch/qchem29838/Frg2.input
using default PutDataFrgm: nothing
calling putenv with: QCSCRATCH=/src/jdavis/qchem.scratch/qchem29838/ 
Spawning Job For Fragment 1
Done Job For Fragment 1
calling putenv with: QCSCRATCH=/src/jdavis/qchem.scratch 
calling putenv with: QCTHREADS=1 
 Time for running child jobs:  CPU 2.12 s  wall 1.49 s
 ============= Method Specific SAD Guess Constructed =============
 Guess from on-the-fly superposition of atomic densities
 Warning: Energy on first SCF cycle will be non-variational

 -----------------------------------------------------------------------
  General SCF calculation program by
  Eric Jon Sundstrom, Paul Horn, Yuezhi Mao, Dmitri Zuev, Alec White,
  David Stuck, Shaama M.S., Shane Yost, Joonho Lee, David Small,
  Daniel Levine, Susi Lehtola, Hugh Burton, Evgeny Epifanovsky,
  Bang C. Huynh
 -----------------------------------------------------------------------
 Hartree-Fock
 using 12 threads for integral computing
 -------------------------------------------------------
 OpenMP Integral computing Module                
 Release: version 1.0, May 2013, Q-Chem Inc. Pittsburgh 
 -------------------------------------------------------
 A restricted SCF calculation will be
 performed using DIIS
 SCF converges when DIIS error is below 1.0e-08
 ---------------------------------------
  Cycle       Energy         DIIS error
 ---------------------------------------
    1     -78.4638144751      2.97e-02  
    2     -78.0364511870      2.22e-03  
    3     -78.0582288704      6.08e-04  
    4     -78.0600409420      2.14e-04  
    5     -78.0602554941      2.39e-05  
    6     -78.0602607095      5.01e-06  
    7     -78.0602610377      1.33e-06  
    8     -78.0602610546      1.53e-07  
    9     -78.0602610353      2.05e-08  
   10     -78.0602610494      6.24e-09  Convergence criterion met
 ---------------------------------------
 SCF time:   CPU 25.43s  wall 2.00s 
 SCF   energy in the final basis set =      -78.0602610494
 Total energy in the final basis set =      -78.0602610494
 CAP matrix will be calculated and saved for subsequent use
 mp2 is not implemented in computing transition properties!


 ------------------------------------------------------------------------------

   CCMAN2: suite of methods based on coupled cluster
           and equation of motion theories.

   Components:
   * libvmm-1.3-trunk
     by Evgeny Epifanovsky, Ilya Kaliman.
   * libtensor-2.5-trunk
     by Evgeny Epifanovsky, Michael Wormit, Dmitry Zuev, Sam Manzer, 
        Ilya Kaliman.
   * libcc-2.5-trunk
     by Evgeny Epifanovsky, Arik Landau, Tomasz Kus, Kirill Khistyaev, 
        Dmitry Zuev, Prashant Manohar, Xintian Feng, Anna Krylov, 
        Matthew Goldey, Alec White, Thomas Jagau, Kaushik Nanda, 
        Anastasia Gunina, Alexander Kunitsa, Joonho Lee.

   CCMAN original authors:
   Anna I. Krylov, C. David Sherrill, Steven R. Gwaltney,
   Edward F. C. Byrd (2000)
   Sergey V. Levchenko, Lyudmila V. Slipchenko, Tao Wang,
   Ana-Maria C. Cristian (2003)
   Piotr A. Pieniazek, C. Melania Oana, Evgeny Epifanovsky (2007)
   Prashant Manohar (2009)

 ------------------------------------------------------------------------------


 Allocating and initializing 94808MB of RAM...
 Calculation will run on 12 cores.

 
 Alpha MOs, Restricted
 -- Occupied --                  
-11.228 -11.226  -1.040  -0.781  -0.661  -0.568  -0.516  -0.377
  1 Ag    1 B3u   2 Ag    2 B3u   1 B2u   3 Ag    1 B1g   1 B1u                
 -- Virtual --                   
  0.010   0.010   0.011   0.016   0.016   0.018   0.031   0.033
  3 B3u   2 B2u   2 B1u   2 B1g   1 B2g   4 Ag    4 B3u   3 B2u                
  0.035   0.039   0.042   0.042   0.058   0.069   0.073   0.078
  3 B1u   5 Ag    3 B1g   2 B2g   6 Ag    5 B3u   4 B2u   4 B1u                
  0.082   0.085   0.094   0.129   0.131   0.134   0.142   0.142
  3 B2g   4 B1g   7 Ag    4 B2g   6 B3u   8 Ag    1 B3g   5 B2u                
  0.153   0.155   0.156   0.169   0.185   0.186   0.188   0.191
  5 B1u   5 B1g   9 Ag    7 B3u   6 B2u   8 B3u   5 B2g   1 Au                 
  0.197   0.239   0.241   0.243   0.258   0.273   0.293   0.299
  6 B1u   9 B3u  10 Ag    6 B1g   6 B2g   7 B2u  11 Ag    7 B1g                
  0.302   0.327   0.352   0.355   0.375   0.391   0.403   0.434
  7 B1u  12 Ag    7 B2g  10 B3u   8 B2u   2 B3g  11 B3u  13 Ag                 
  0.442   0.474   0.487   0.490   0.496   0.509   0.572   0.590
  9 B2u   8 B1g  12 B3u  14 Ag    2 Au    8 B1u  13 B3u   9 B1g                
  0.635   0.696   0.707   0.760   0.764   0.768   0.791   0.811
  8 B2g  10 B2u  14 B3u   9 B1u  15 Ag   11 B2u  10 B1g  16 Ag                 
  0.836   0.865   0.872   0.978   1.005   1.023   1.082   1.140
 15 B3u   9 B2g  17 Ag   16 B3u  11 B1g   3 B3g  10 B1u  18 Ag                 
  1.144   1.151   1.203   1.205   1.230   1.263   1.280   1.376
  3 Au   17 B3u  10 B2g  12 B2u  11 B1u   4 B3g  12 B1g  19 Ag                 
  1.423   1.506   1.521   1.553   1.624   1.664   1.684   1.735
 18 B3u  11 B2g  13 B2u  14 B2u  20 Ag   19 B3u   4 Au   13 B1g                
  1.864   2.004   2.030   2.102   2.579   2.736   2.746   2.761
 20 B3u  21 Ag   21 B3u  14 B1g  12 B1u  22 Ag   15 B2u  23 Ag                 
  2.781   2.803   2.901   2.919   2.996   2.997   3.071   3.105
 12 B2g  16 B2u  15 B1g  13 B1u   5 B3g  22 B3u  16 B1g  14 B1u                
  3.136   3.164   3.229   3.267   3.267   3.291   3.463   3.468
 17 B2u  24 Ag    5 Au   13 B2g   6 B3g  25 Ag   23 B3u  18 B2u                
  3.484   3.506   3.516   3.531   3.555   3.617   3.645   3.662
  6 Au   14 B2g  17 B1g  24 B3u  25 B3u  15 B1u   7 B3g  26 Ag                 
  3.798   3.824   3.980   4.008   4.025   4.030   4.061   4.066
 19 B2u  18 B1g  15 B2g  26 B3u  19 B1g  20 B2u  16 B1u  27 Ag                 
  4.118   4.222   4.288   4.299   4.350   4.355   4.368   4.596
  7 Au   27 B3u  28 Ag    8 B3g  20 B1g  16 B2g  17 B1u  28 B3u                
  4.616   4.666   4.705   4.797   4.856   4.947   5.050   5.089
 21 B2u   8 Au   29 Ag   29 B3u  17 B2g  18 B1u  30 Ag   21 B1g                
  5.166   5.224   5.314   5.366   5.427   5.483   5.543   5.677
 22 B2u   9 B3g  30 B3u  31 Ag    9 Au   22 B1g  18 B2g  23 B2u                
  5.724   6.111   6.187   6.319   6.666   6.898  12.927  15.370
 32 Ag   23 B1g  31 B3u  24 B2u  32 B3u  24 B1g  33 Ag   33 B3u                
 
 Beta MOs, Restricted
 -- Occupied --                  
-11.228 -11.226  -1.040  -0.781  -0.661  -0.568  -0.516  -0.377
  1 Ag    1 B3u   2 Ag    2 B3u   1 B2u   3 Ag    1 B1g   1 B1u                
 -- Virtual --                   
  0.010   0.010   0.011   0.016   0.016   0.018   0.031   0.033
  3 B3u   2 B2u   2 B1u   2 B1g   1 B2g   4 Ag    4 B3u   3 B2u                
  0.035   0.039   0.042   0.042   0.058   0.069   0.073   0.078
  3 B1u   5 Ag    3 B1g   2 B2g   6 Ag    5 B3u   4 B2u   4 B1u                
  0.082   0.085   0.094   0.129   0.131   0.134   0.142   0.142
  3 B2g   4 B1g   7 Ag    4 B2g   6 B3u   8 Ag    1 B3g   5 B2u                
  0.153   0.155   0.156   0.169   0.185   0.186   0.188   0.191
  5 B1u   5 B1g   9 Ag    7 B3u   6 B2u   8 B3u   5 B2g   1 Au                 
  0.197   0.239   0.241   0.243   0.258   0.273   0.293   0.299
  6 B1u   9 B3u  10 Ag    6 B1g   6 B2g   7 B2u  11 Ag    7 B1g                
  0.302   0.327   0.352   0.355   0.375   0.391   0.403   0.434
  7 B1u  12 Ag    7 B2g  10 B3u   8 B2u   2 B3g  11 B3u  13 Ag                 
  0.442   0.474   0.487   0.490   0.496   0.509   0.572   0.590
  9 B2u   8 B1g  12 B3u  14 Ag    2 Au    8 B1u  13 B3u   9 B1g                
  0.635   0.696   0.707   0.760   0.764   0.768   0.791   0.811
  8 B2g  10 B2u  14 B3u   9 B1u  15 Ag   11 B2u  10 B1g  16 Ag                 
  0.836   0.865   0.872   0.978   1.005   1.023   1.082   1.140
 15 B3u   9 B2g  17 Ag   16 B3u  11 B1g   3 B3g  10 B1u  18 Ag                 
  1.144   1.151   1.203   1.205   1.230   1.263   1.280   1.376
  3 Au   17 B3u  10 B2g  12 B2u  11 B1u   4 B3g  12 B1g  19 Ag                 
  1.423   1.506   1.521   1.553   1.624   1.664   1.684   1.735
 18 B3u  11 B2g  13 B2u  14 B2u  20 Ag   19 B3u   4 Au   13 B1g                
  1.864   2.004   2.030   2.102   2.579   2.736   2.746   2.761
 20 B3u  21 Ag   21 B3u  14 B1g  12 B1u  22 Ag   15 B2u  23 Ag                 
  2.781   2.803   2.901   2.919   2.996   2.997   3.071   3.105
 12 B2g  16 B2u  15 B1g  13 B1u   5 B3g  22 B3u  16 B1g  14 B1u                
  3.136   3.164   3.229   3.267   3.267   3.291   3.463   3.468
 17 B2u  24 Ag    5 Au   13 B2g   6 B3g  25 Ag   23 B3u  18 B2u                
  3.484   3.506   3.516   3.531   3.555   3.617   3.645   3.662
  6 Au   14 B2g  17 B1g  24 B3u  25 B3u  15 B1u   7 B3g  26 Ag                 
  3.798   3.824   3.980   4.008   4.025   4.030   4.061   4.066
 19 B2u  18 B1g  15 B2g  26 B3u  19 B1g  20 B2u  16 B1u  27 Ag                 
  4.118   4.222   4.288   4.299   4.350   4.355   4.368   4.596
  7 Au   27 B3u  28 Ag    8 B3g  20 B1g  16 B2g  17 B1u  28 B3u                
  4.616   4.666   4.705   4.797   4.856   4.947   5.050   5.089
 21 B2u   8 Au   29 Ag   29 B3u  17 B2g  18 B1u  30 Ag   21 B1g                
  5.166   5.224   5.314   5.366   5.427   5.483   5.543   5.677
 22 B2u   9 B3g  30 B3u  31 Ag    9 Au   22 B1g  18 B2g  23 B2u                
  5.724   6.111   6.187   6.319   6.666   6.898  12.927  15.370
 32 Ag   23 B1g  31 B3u  24 B2u  32 B3u  24 B1g  33 Ag   33 B3u                

 Occupation and symmetry of molecular orbitals

 Point group: D2h (8 irreducible representations).

                           Ag   B1g  B2g  B3g  Au   B1u  B2u  B3u   All 
 ------------------------------------------------------------------------
 All molecular orbitals:
  - Alpha                  33   24   18   9    9    18   24   33    168 
  - Beta                   33   24   18   9    9    18   24   33    168 
 ------------------------------------------------------------------------
 Alpha orbitals:
  - Frozen occupied        1    0    0    0    0    0    0    1     2   
  - Active occupied        2    1    0    0    0    1    1    1     6   
  - Active virtual         30   23   18   9    9    17   23   31    160 
  - Frozen virtual         0    0    0    0    0    0    0    0     0   
 ------------------------------------------------------------------------
 Beta orbitals:
  - Frozen occupied        1    0    0    0    0    0    0    1     2   
  - Active occupied        2    1    0    0    0    1    1    1     6   
  - Active virtual         30   23   18   9    9    17   23   31    160 
  - Frozen virtual         0    0    0    0    0    0    0    0     0   
 ------------------------------------------------------------------------

 Import integrals:   CPU 0.00 s  wall 0.00 s

 Import integrals:   CPU 68.63 s  wall 6.33 s

 Computing CCSD intermediates for later calculations in double precision
 Finished.

 MP2 amplitudes:   CPU 26.49 s  wall 8.53 s

        Solving for EOMEA-CCSD/MP2 B2g transitions.

Running a double precision version
      EOMEA-CCSD/MP2 right amplitudes will be solved using Davidson.
        Amplitudes will be solved using standard  algorithm.
     Hard-coded thresholds: 
     LinDepThresh=1.00e-15  NormThresh=1.00e-06  ReorthogonThresh=1.00e-02

      Roots     MaxVec    MaxIter   Precond   Conv      Shift    
      10        120       60        1         1.00e-05  0.00e+00  
 ------------------------------------------------------------------------------
      Iter ConvRoots NVecs ResNorm Current eigenvalues (eV)
 ------------------------------------------------------------------------------
      0    0      10    5.08e-02   0.4355   1.1512   2.2782   3.7497   5.4514   7.0865   9.8125   17.3799   23.6632   32.7801   
      1    0      20    4.87e-02   0.4334   1.1324   2.1422   3.1910   4.8651   6.9274   9.2168   16.8024   22.5662   23.4385   
      2    1      30    3.66e-02   0.4326*  1.1186   1.9290   2.7461   4.5831   6.8368   8.8303   14.0061   14.8096   15.2939   
      3    2      39    1.78e-03   0.4326*  1.1179*  1.9163   2.7303   4.5702   6.8292   8.7762   11.2095   11.3835   11.9827   
      4    4      47    4.93e-03   0.4326*  1.1178*  1.9147*  2.7281*  4.5678   6.8259   8.5347   9.0146   10.3012   10.6558   
      5    5      53    4.34e-03   0.4326*  1.1178*  1.9147*  2.7281*  4.5676*  6.8239   7.6146   8.6817   8.9653   10.0525   
      6    5      58    2.10e-03   0.4326*  1.1178*  1.9147*  2.7281*  4.5676*  6.8165   6.9117   7.8513   8.7962   9.6405   
      7    5      63    1.40e-03   0.4326*  1.1178*  1.9147*  2.7281*  4.5675*  6.6769   6.8270   7.5129   8.7447   9.2413   
      8    6      68    8.22e-04   0.4326*  1.1178*  1.9147*  2.7281*  4.5675*  6.6403   6.8257*  7.3620   8.6298   8.9544   
      9    6      72    3.68e-04   0.4326*  1.1178*  1.9147*  2.7281*  4.5675*  6.6358   6.8255*  7.3061   8.4669   8.8647   
      10   7      76    2.79e-03   0.4326*  1.1178*  1.9147*  2.7281*  4.5675*  6.6353*  6.8255*  7.2887   7.6236   8.4826   
      11   7      79    6.16e-04   0.4326*  1.1178*  1.9147*  2.7281*  4.5675*  6.6352*  6.8055   6.8255*  7.2968   8.4413   
      12   8      82    2.79e-03   0.4326*  1.1178*  1.9147*  2.7281*  4.5675*  6.6351*  6.6717   6.8255*  7.2957*  7.7701   
      13   8      84    4.25e-04   0.4326*  1.1178*  1.9147*  2.7281*  4.5675*  6.6351*  6.6396   6.8255*  7.2956*  7.3396   
      14   8      86    6.64e-05   0.4326*  1.1178*  1.9147*  2.7281*  4.5675*  6.6326   6.6351*  6.8255*  7.2716   7.2956*  
      15   8      88    1.46e-05   0.4326*  1.1178*  1.9147*  2.7281*  4.5675*  6.6313   6.6351*  6.8255*  7.2599   7.2956*  
      16   9      90    7.74e-06   0.4326*  1.1178*  1.9147*  2.7281*  4.5675*  6.6308*  6.6351*  6.8255*  7.2562   7.2956*  
      17   9      91    3.95e-06   0.4326*  1.1178*  1.9147*  2.7281*  4.5675*  6.6306*  6.6351*  6.8255*  7.2541   7.2956*  
      18   10     92    9.82e-07   0.4326*  1.1178*  1.9147*  2.7281*  4.5675*  6.6305*  6.6351*  6.8255*  7.2536*  7.2956*  

     Davidson procedure converged

 EOMEA transition 1/B2g
 Total energy = -78.38164146 a.u.  Excitation energy = 0.4326 eV.
 R1^2 = 0.9998  R2^2 = 0.0002  Res^2 = 2.41e-07
 Conv-d = yes

 Amplitude    Transitions between orbitals
 -0.9998       infty       ->    1 (B2g) B                  
 -0.0097       infty       ->    2 (B2g) B                  
 -0.0087       infty       ->    3 (B2g) B                  
 -0.0086       infty       ->    4 (B2g) B                  

              Summary of significant orbitals:

               Number  Type             Irrep      Energy
               13      Vir  Beta        1 (B2g)      0.0160
               20      Vir  Beta        2 (B2g)      0.0422
               25      Vir  Beta        3 (B2g)      0.0825
               28      Vir  Beta        4 (B2g)      0.1287


 EOMEA transition 2/B2g
 Total energy = -78.35645795 a.u.  Excitation energy = 1.1178 eV.
 R1^2 = 0.9976  R2^2 = 0.0024  Res^2 = 4.11e-08
 Conv-d = yes

 Amplitude    Transitions between orbitals
  0.9931       infty       ->    2 (B2g) B                  
  0.0743       infty       ->    3 (B2g) B                  
  0.0677       infty       ->    4 (B2g) B                  
  0.0311       infty       ->    5 (B2g) B                  

              Summary of significant orbitals:

               Number  Type             Irrep      Energy
               20      Vir  Beta        2 (B2g)      0.0422
               25      Vir  Beta        3 (B2g)      0.0825
               28      Vir  Beta        4 (B2g)      0.1287
               39      Vir  Beta        5 (B2g)      0.1882


 EOMEA transition 3/B2g
 Total energy = -78.32717420 a.u.  Excitation energy = 1.9147 eV.
 R1^2 = 0.9717  R2^2 = 0.0283  Res^2 = 1.19e-07
 Conv-d = yes

 Amplitude    Transitions between orbitals
  0.8666       infty       ->    3 (B2g) B                  
  0.4117       infty       ->    4 (B2g) B                  
  0.1841       infty       ->    5 (B2g) B                  
 -0.1056       infty       ->    2 (B2g) B                  

              Summary of significant orbitals:

               Number  Type             Irrep      Energy
               20      Vir  Beta        2 (B2g)      0.0422
               25      Vir  Beta        3 (B2g)      0.0825
               28      Vir  Beta        4 (B2g)      0.1287
               39      Vir  Beta        5 (B2g)      0.1882


 EOMEA transition 4/B2g
 Total energy = -78.29728202 a.u.  Excitation energy = 2.7281 eV.
 R1^2 = 0.9723  R2^2 = 0.0277  Res^2 = 7.52e-08
 Conv-d = yes

 Amplitude    Transitions between orbitals
 -0.8119       infty       ->    4 (B2g) B                  
  0.4786       infty       ->    3 (B2g) B                  
 -0.2679       infty       ->    5 (B2g) B                  
 -0.0770       infty       ->    7 (B2g) B                  

              Summary of significant orbitals:

               Number  Type             Irrep      Energy
               25      Vir  Beta        3 (B2g)      0.0825
               28      Vir  Beta        4 (B2g)      0.1287
               39      Vir  Beta        5 (B2g)      0.1882
               51      Vir  Beta        7 (B2g)      0.3521


 EOMEA transition 5/B2g
 Total energy = -78.22968345 a.u.  Excitation energy = 4.5675 eV.
 R1^2 = 0.9801  R2^2 = 0.0199  Res^2 = 2.45e-08
 Conv-d = yes

 Amplitude    Transitions between orbitals
  0.9078       infty       ->    5 (B2g) B                  
 -0.3659       infty       ->    4 (B2g) B                  
  0.1004       infty       ->    7 (B2g) B                  
 -0.0928       infty       ->    6 (B2g) B                  

              Summary of significant orbitals:

               Number  Type             Irrep      Energy
               28      Vir  Beta        4 (B2g)      0.1287
               39      Vir  Beta        5 (B2g)      0.1882
               45      Vir  Beta        6 (B2g)      0.2580
               51      Vir  Beta        7 (B2g)      0.3521


 EOMEA transition 6/B2g
 Total energy = -78.15386956 a.u.  Excitation energy = 6.6305 eV.
 R1^2 = 0.0000  R2^2 = 1.0000  Res^2 = 4.85e-07
 Conv-d = yes

 Amplitude    Transitions between orbitals
 -0.3949       1 (B1u) A   ->    2 (B1u) A     4 (B2g) B    
  0.3949       1 (B1u) A   ->    4 (B2g) B     2 (B1u) A    
  0.3946       1 (B1u) A   ->    4 (B2g) A     2 (B1u) B    
 -0.3946       1 (B1u) A   ->    2 (B1u) B     4 (B2g) A    
 -0.3945       1 (B1u) B   ->    4 (B2g) B     2 (B1u) B    
  0.3945       1 (B1u) B   ->    2 (B1u) B     4 (B2g) B    
 -0.3061       1 (B1u) A   ->    2 (B1u) A     5 (B2g) B    
  0.3061       1 (B1u) A   ->    5 (B2g) B     2 (B1u) A    
  0.3059       1 (B1u) A   ->    5 (B2g) A     2 (B1u) B    
 -0.3059       1 (B1u) A   ->    2 (B1u) B     5 (B2g) A    
 -0.3059       1 (B1u) B   ->    5 (B2g) B     2 (B1u) B    
  0.3059       1 (B1u) B   ->    2 (B1u) B     5 (B2g) B    
 -0.1967       1 (B1u) A   ->    2 (B1u) A     3 (B2g) B    
  0.1967       1 (B1u) A   ->    3 (B2g) B     2 (B1u) A    
  0.1966       1 (B1u) A   ->    3 (B2g) A     2 (B1u) B    
 -0.1966       1 (B1u) A   ->    2 (B1u) B     3 (B2g) A    
 -0.1965       1 (B1u) B   ->    3 (B2g) B     2 (B1u) B    
  0.1965       1 (B1u) B   ->    2 (B1u) B     3 (B2g) B    
 -0.1501       1 (B1u) A   ->    2 (B1u) A     7 (B2g) B    
  0.1501       1 (B1u) A   ->    7 (B2g) B     2 (B1u) A    
  0.1500       1 (B1u) A   ->    7 (B2g) A     2 (B1u) B    
 -0.1500       1 (B1u) A   ->    2 (B1u) B     7 (B2g) A    
 -0.1499       1 (B1u) B   ->    7 (B2g) B     2 (B1u) B    
  0.1499       1 (B1u) B   ->    2 (B1u) B     7 (B2g) B    
  0.1003       1 (B1u) A   ->    2 (B1u) A     6 (B2g) B    
 -0.1003       1 (B1u) A   ->    6 (B2g) B     2 (B1u) A    
 -0.1002       1 (B1u) A   ->    6 (B2g) A     2 (B1u) B    
  0.1002       1 (B1u) A   ->    2 (B1u) B     6 (B2g) A    
  0.1002       1 (B1u) B   ->    6 (B2g) B     2 (B1u) B    
 -0.1002       1 (B1u) B   ->    2 (B1u) B     6 (B2g) B    

              Summary of significant orbitals:

               Number  Type             Irrep      Energy
               8       Occ  Alpha       1 (B1u)     -0.3775
               8       Occ  Beta        1 (B1u)     -0.3775
               25      Vir  Alpha       3 (B2g)      0.0825
               28      Vir  Alpha       4 (B2g)      0.1287
               39      Vir  Alpha       5 (B2g)      0.1882
               45      Vir  Alpha       6 (B2g)      0.2580
               51      Vir  Alpha       7 (B2g)      0.3521
               11      Vir  Alpha       2 (B1u)      0.0109
               25      Vir  Beta        3 (B2g)      0.0825
               28      Vir  Beta        4 (B2g)      0.1287
               39      Vir  Beta        5 (B2g)      0.1882
               45      Vir  Beta        6 (B2g)      0.2580
               51      Vir  Beta        7 (B2g)      0.3521
               11      Vir  Beta        2 (B1u)      0.0109


 EOMEA transition 7/B2g
 Total energy = -78.15370284 a.u.  Excitation energy = 6.6351 eV.
 R1^2 = 0.0091  R2^2 = 0.9909  Res^2 = 1.45e-06
 Conv-d = yes

 Amplitude    Transitions between orbitals
 -0.5559       1 (B1u) A   ->    2 (B1u) A     4 (B2g) B    
  0.5559       1 (B1u) A   ->    4 (B2g) B     2 (B1u) A    
 -0.4312       1 (B1u) A   ->    2 (B1u) A     5 (B2g) B    
  0.4312       1 (B1u) A   ->    5 (B2g) B     2 (B1u) A    
 -0.2784       1 (B1u) A   ->    4 (B2g) A     2 (B1u) B    
  0.2784       1 (B1u) A   ->    2 (B1u) B     4 (B2g) A    
  0.2775       1 (B1u) B   ->    4 (B2g) B     2 (B1u) B    
 -0.2775       1 (B1u) B   ->    2 (B1u) B     4 (B2g) B    
 -0.2763       1 (B1u) A   ->    2 (B1u) A     3 (B2g) B    
  0.2763       1 (B1u) A   ->    3 (B2g) B     2 (B1u) A    
 -0.2158       1 (B1u) A   ->    5 (B2g) A     2 (B1u) B    
  0.2158       1 (B1u) A   ->    2 (B1u) B     5 (B2g) A    
  0.2153       1 (B1u) B   ->    5 (B2g) B     2 (B1u) B    
 -0.2153       1 (B1u) B   ->    2 (B1u) B     5 (B2g) B    
 -0.2114       1 (B1u) A   ->    2 (B1u) A     7 (B2g) B    
  0.2114       1 (B1u) A   ->    7 (B2g) B     2 (B1u) A    
  0.1414       1 (B1u) A   ->    2 (B1u) A     6 (B2g) B    
 -0.1414       1 (B1u) A   ->    6 (B2g) B     2 (B1u) A    
 -0.1384       1 (B1u) A   ->    3 (B2g) A     2 (B1u) B    
  0.1384       1 (B1u) A   ->    2 (B1u) B     3 (B2g) A    
  0.1381       1 (B1u) B   ->    3 (B2g) B     2 (B1u) B    
 -0.1381       1 (B1u) B   ->    2 (B1u) B     3 (B2g) B    
  0.1057       1 (B1u) B   ->    7 (B2g) B     2 (B1u) B    
 -0.1057       1 (B1u) B   ->    2 (B1u) B     7 (B2g) B    
 -0.1056       1 (B1u) A   ->    7 (B2g) A     2 (B1u) B    
  0.1056       1 (B1u) A   ->    2 (B1u) B     7 (B2g) A    

              Summary of significant orbitals:

               Number  Type             Irrep      Energy
               8       Occ  Alpha       1 (B1u)     -0.3775
               8       Occ  Beta        1 (B1u)     -0.3775
               25      Vir  Alpha       3 (B2g)      0.0825
               28      Vir  Alpha       4 (B2g)      0.1287
               39      Vir  Alpha       5 (B2g)      0.1882
               51      Vir  Alpha       7 (B2g)      0.3521
               11      Vir  Alpha       2 (B1u)      0.0109
               25      Vir  Beta        3 (B2g)      0.0825
               28      Vir  Beta        4 (B2g)      0.1287
               39      Vir  Beta        5 (B2g)      0.1882
               45      Vir  Beta        6 (B2g)      0.2580
               51      Vir  Beta        7 (B2g)      0.3521
               11      Vir  Beta        2 (B1u)      0.0109


 EOMEA transition 8/B2g
 Total energy = -78.14670646 a.u.  Excitation energy = 6.8255 eV.
 R1^2 = 0.9721  R2^2 = 0.0279  Res^2 = 2.39e-08
 Conv-d = yes

 Amplitude    Transitions between orbitals
 -0.9651       infty       ->    6 (B2g) B                  
 -0.1506       infty       ->    5 (B2g) B                  
  0.1158       infty       ->    7 (B2g) B                  
 -0.0597       infty       ->    4 (B2g) B                  

              Summary of significant orbitals:

               Number  Type             Irrep      Energy
               28      Vir  Beta        4 (B2g)      0.1287
               39      Vir  Beta        5 (B2g)      0.1882
               45      Vir  Beta        6 (B2g)      0.2580
               51      Vir  Beta        7 (B2g)      0.3521


 EOMEA transition 9/B2g
 Total energy = -78.13097358 a.u.  Excitation energy = 7.2536 eV.
 R1^2 = 0.0000  R2^2 = 1.0000  Res^2 = 5.67e-06
 Conv-d = yes

 Amplitude    Transitions between orbitals
 -0.3944       1 (B1u) B   ->    4 (B2g) B     3 (B1u) B    
  0.3944       1 (B1u) B   ->    3 (B1u) B     4 (B2g) B    
  0.3944       1 (B1u) A   ->    4 (B2g) A     3 (B1u) B    
 -0.3944       1 (B1u) A   ->    3 (B1u) B     4 (B2g) A    
 -0.3937       1 (B1u) A   ->    3 (B1u) A     4 (B2g) B    
  0.3937       1 (B1u) A   ->    4 (B2g) B     3 (B1u) A    
  0.3038       1 (B1u) A   ->    5 (B2g) A     3 (B1u) B    
 -0.3038       1 (B1u) A   ->    3 (B1u) B     5 (B2g) A    
 -0.3038       1 (B1u) B   ->    5 (B2g) B     3 (B1u) B    
  0.3038       1 (B1u) B   ->    3 (B1u) B     5 (B2g) B    
 -0.3034       1 (B1u) A   ->    3 (B1u) A     5 (B2g) B    
  0.3034       1 (B1u) A   ->    5 (B2g) B     3 (B1u) A    
  0.1994       1 (B1u) A   ->    3 (B2g) A     3 (B1u) B    
 -0.1994       1 (B1u) A   ->    3 (B1u) B     3 (B2g) A    
 -0.1994       1 (B1u) B   ->    3 (B2g) B     3 (B1u) B    
  0.1994       1 (B1u) B   ->    3 (B1u) B     3 (B2g) B    
 -0.1989       1 (B1u) A   ->    3 (B1u) A     3 (B2g) B    
  0.1989       1 (B1u) A   ->    3 (B2g) B     3 (B1u) A    
  0.1485       1 (B1u) A   ->    7 (B2g) A     3 (B1u) B    
 -0.1485       1 (B1u) A   ->    3 (B1u) B     7 (B2g) A    
 -0.1485       1 (B1u) B   ->    7 (B2g) B     3 (B1u) B    
  0.1485       1 (B1u) B   ->    3 (B1u) B     7 (B2g) B    
 -0.1484       1 (B1u) A   ->    3 (B1u) A     7 (B2g) B    
  0.1484       1 (B1u) A   ->    7 (B2g) B     3 (B1u) A    

              Summary of significant orbitals:

               Number  Type             Irrep      Energy
               8       Occ  Alpha       1 (B1u)     -0.3775
               8       Occ  Beta        1 (B1u)     -0.3775
               25      Vir  Alpha       3 (B2g)      0.0825
               28      Vir  Alpha       4 (B2g)      0.1287
               39      Vir  Alpha       5 (B2g)      0.1882
               51      Vir  Alpha       7 (B2g)      0.3521
               17      Vir  Alpha       3 (B1u)      0.0348
               25      Vir  Beta        3 (B2g)      0.0825
               28      Vir  Beta        4 (B2g)      0.1287
               39      Vir  Beta        5 (B2g)      0.1882
               51      Vir  Beta        7 (B2g)      0.3521
               17      Vir  Beta        3 (B1u)      0.0348


 EOMEA transition 10/B2g
 Total energy = -78.12943069 a.u.  Excitation energy = 7.2956 eV.
 R1^2 = 0.0152  R2^2 = 0.9848  Res^2 = 1.69e-06
 Conv-d = yes

 Amplitude    Transitions between orbitals
 -0.5544       1 (B1u) A   ->    3 (B1u) A     4 (B2g) B    
  0.5544       1 (B1u) A   ->    4 (B2g) B     3 (B1u) A    
 -0.4281       1 (B1u) A   ->    3 (B1u) A     5 (B2g) B    
  0.4281       1 (B1u) A   ->    5 (B2g) B     3 (B1u) A    
 -0.2776       1 (B1u) A   ->    4 (B2g) A     3 (B1u) B    
  0.2776       1 (B1u) A   ->    3 (B1u) B     4 (B2g) A    
 -0.2767       1 (B1u) A   ->    3 (B1u) A     3 (B2g) B    
  0.2767       1 (B1u) A   ->    3 (B2g) B     3 (B1u) A    
  0.2762       1 (B1u) B   ->    4 (B2g) B     3 (B1u) B    
 -0.2762       1 (B1u) B   ->    3 (B1u) B     4 (B2g) B    
 -0.2146       1 (B1u) A   ->    5 (B2g) A     3 (B1u) B    
  0.2146       1 (B1u) A   ->    3 (B1u) B     5 (B2g) A    
  0.2134       1 (B1u) B   ->    5 (B2g) B     3 (B1u) B    
 -0.2134       1 (B1u) B   ->    3 (B1u) B     5 (B2g) B    
 -0.2091       1 (B1u) A   ->    3 (B1u) A     7 (B2g) B    
  0.2091       1 (B1u) A   ->    7 (B2g) B     3 (B1u) A    
  0.1404       1 (B1u) A   ->    3 (B1u) A     6 (B2g) B    
 -0.1404       1 (B1u) A   ->    6 (B2g) B     3 (B1u) A    
  0.1392       1 (B1u) B   ->    3 (B2g) B     3 (B1u) B    
 -0.1392       1 (B1u) B   ->    3 (B1u) B     3 (B2g) B    
 -0.1370       1 (B1u) A   ->    3 (B2g) A     3 (B1u) B    
  0.1370       1 (B1u) A   ->    3 (B1u) B     3 (B2g) A    
 -0.1047       1 (B1u) A   ->    7 (B2g) A     3 (B1u) B    
  0.1047       1 (B1u) A   ->    3 (B1u) B     7 (B2g) A    
  0.1045       1 (B1u) B   ->    7 (B2g) B     3 (B1u) B    
 -0.1045       1 (B1u) B   ->    3 (B1u) B     7 (B2g) B    

              Summary of significant orbitals:

               Number  Type             Irrep      Energy
               8       Occ  Alpha       1 (B1u)     -0.3775
               8       Occ  Beta        1 (B1u)     -0.3775
               25      Vir  Alpha       3 (B2g)      0.0825
               28      Vir  Alpha       4 (B2g)      0.1287
               39      Vir  Alpha       5 (B2g)      0.1882
               51      Vir  Alpha       7 (B2g)      0.3521
               17      Vir  Alpha       3 (B1u)      0.0348
               25      Vir  Beta        3 (B2g)      0.0825
               28      Vir  Beta        4 (B2g)      0.1287
               39      Vir  Beta        5 (B2g)      0.1882
               45      Vir  Beta        6 (B2g)      0.2580
               51      Vir  Beta        7 (B2g)      0.3521
               17      Vir  Beta        3 (B1u)      0.0348


Running a double precision version
      EOMEA-CCSD/MP2 left amplitudes will be solved using Davidson.
        Amplitudes will be solved using MOM  algorithm.
     Hard-coded thresholds: 
     LinDepThresh=1.00e-15  NormThresh=1.00e-06  ReorthogonThresh=1.00e-02

      Roots     MaxVec    MaxIter   Precond   Conv      Shift    
      10        120       60        1         1.00e-05  0.00e+00  
 ------------------------------------------------------------------------------
      Iter ConvRoots NVecs ResNorm Current eigenvalues (eV)
 ------------------------------------------------------------------------------
      0    1      10    3.60e-04   0.4326*  1.1178   1.9147   2.7281   4.5675   6.6305   6.6351   6.8255   7.2536   7.2956   
      1    1      19    1.29e-04   0.4326*  1.1178   1.9147   2.7281   4.5675   6.6305   6.6351   6.8255   7.2535   7.2955   
      2    7      28    1.30e-05   0.4326*  1.1178*  1.9147   2.7281   4.5675   6.6305*  6.6351*  6.8255*  7.2535*  7.2955*  
      3    10     31    1.57e-06   0.4326*  1.1178*  1.9147*  2.7281*  4.5675*  6.6305*  6.6351*  6.8255*  7.2535*  7.2955*  

     Davidson procedure converged

 Excited state properties for  EOMEA-CCSD transition 1/B2g
 Dipole moment (a.u.): 0.000000 (X 0.000000, Y 0.000000, Z 0.000000)
 R-squared (a.u.): 518.503635 (XX 235.096010, YY 84.432333, ZZ 198.975292)
 Gauge origin (a.u.): (0.000000, 0.000000, 0.000000)
 Angular momentum (a.u.) against gauge origin: 
 (X 0.000000i, Y 0.000000i, Z 0.000000i)
 Traces of the OPDMs: Tr(AA) 8.000000, Tr(BB) 9.000000

 Excited state properties for  EOMEA-CCSD transition 2/B2g
 Dipole moment (a.u.): 0.000000 (X 0.000000, Y 0.000000, Z 0.000000)
 R-squared (a.u.): 381.407180 (XX 176.728438, YY 64.792266, ZZ 139.886476)
 Gauge origin (a.u.): (0.000000, 0.000000, 0.000000)
 Angular momentum (a.u.) against gauge origin: 
 (X 0.000000i, Y 0.000000i, Z 0.000000i)
 Traces of the OPDMs: Tr(AA) 8.000000, Tr(BB) 9.000000

 Excited state properties for  EOMEA-CCSD transition 3/B2g
 Dipole moment (a.u.): 0.000000 (X 0.000000, Y 0.000000, Z 0.000000)
 R-squared (a.u.): 219.703433 (XX 106.455786, YY 42.451383, ZZ 70.796263)
 Gauge origin (a.u.): (0.000000, 0.000000, 0.000000)
 Angular momentum (a.u.) against gauge origin: 
 (X 0.000000i, Y 0.000000i, Z 0.000000i)
 Traces of the OPDMs: Tr(AA) 8.000000, Tr(BB) 9.000000

 Excited state properties for  EOMEA-CCSD transition 4/B2g
 Dipole moment (a.u.): 0.000000 (X 0.000000, Y 0.000000, Z 0.000000)
 R-squared (a.u.): 252.867376 (XX 119.964398, YY 47.330761, ZZ 85.572217)
 Gauge origin (a.u.): (0.000000, 0.000000, 0.000000)
 Angular momentum (a.u.) against gauge origin: 
 (X 0.000000i, Y 0.000000i, Z 0.000000i)
 Traces of the OPDMs: Tr(AA) 8.000000, Tr(BB) 9.000000

 Excited state properties for  EOMEA-CCSD transition 5/B2g
 Dipole moment (a.u.): 0.000000 (X 0.000000, Y 0.000000, Z 0.000000)
 R-squared (a.u.): 238.674844 (XX 117.330083, YY 44.194215, ZZ 77.150546)
 Gauge origin (a.u.): (0.000000, 0.000000, 0.000000)
 Angular momentum (a.u.) against gauge origin: 
 (X 0.000000i, Y 0.000000i, Z 0.000000i)
 Traces of the OPDMs: Tr(AA) 8.000000, Tr(BB) 9.000000

 Excited state properties for  EOMEA-CCSD transition 6/B2g
 Dipole moment (a.u.): 0.000000 (X 0.000000, Y 0.000000, Z 0.000000)
 R-squared (a.u.): 434.729377 (XX 120.386087, YY 92.181153, ZZ 222.162137)
 Gauge origin (a.u.): (0.000000, 0.000000, 0.000000)
 Angular momentum (a.u.) against gauge origin: 
 (X 0.000000i, Y 0.000000i, Z 0.000000i)
 Traces of the OPDMs: Tr(AA) 8.000000, Tr(BB) 9.000000

 Excited state properties for  EOMEA-CCSD transition 7/B2g
 Dipole moment (a.u.): 0.000000 (X 0.000000, Y 0.000000, Z 0.000000)
 R-squared (a.u.): 437.487441 (XX 121.125124, YY 92.687041, ZZ 223.675277)
 Gauge origin (a.u.): (0.000000, 0.000000, 0.000000)
 Angular momentum (a.u.) against gauge origin: 
 (X 0.000000i, Y 0.000000i, Z 0.000000i)
 Traces of the OPDMs: Tr(AA) 8.000000, Tr(BB) 9.000000

 Excited state properties for  EOMEA-CCSD transition 8/B2g
 Dipole moment (a.u.): 0.000000 (X 0.000000, Y 0.000000, Z 0.000000)
 R-squared (a.u.): 175.264051 (XX 87.765790, YY 35.578752, ZZ 51.919509)
 Gauge origin (a.u.): (0.000000, 0.000000, 0.000000)
 Angular momentum (a.u.) against gauge origin: 
 (X 0.000000i, Y 0.000000i, Z 0.000000i)
 Traces of the OPDMs: Tr(AA) 8.000000, Tr(BB) 9.000000

 Excited state properties for  EOMEA-CCSD transition 9/B2g
 Dipole moment (a.u.): 0.000000 (X 0.000000, Y 0.000000, Z 0.000000)
 R-squared (a.u.): 367.333218 (XX 106.118732, YY 78.899859, ZZ 182.314627)
 Gauge origin (a.u.): (0.000000, 0.000000, 0.000000)
 Angular momentum (a.u.) against gauge origin: 
 (X 0.000000i, Y 0.000000i, Z 0.000000i)
 Traces of the OPDMs: Tr(AA) 8.000000, Tr(BB) 9.000000

 Excited state properties for  EOMEA-CCSD transition 10/B2g
 Dipole moment (a.u.): 0.000000 (X 0.000000, Y 0.000000, Z 0.000000)
 R-squared (a.u.): 371.901429 (XX 107.078997, YY 79.812997, ZZ 185.009434)
 Gauge origin (a.u.): (0.000000, 0.000000, 0.000000)
 Angular momentum (a.u.) against gauge origin: 
 (X 0.000000i, Y 0.000000i, Z 0.000000i)
 Traces of the OPDMs: Tr(AA) 8.000000, Tr(BB) 9.000000

 EOMEA-MP2 calculation:   CPU 881.60 s  wall 137.99 s


 Start computing the transition properties

 ------------------------------------------------------------------------------
 State A: eomea_mp2/b: 1/B2g
 State B: eomea_mp2/b: 2/B2g
 Energy GAP = 0.025184 a.u. = 0.685279 eV
 Transition dipole moment (a.u.):
   A->B: 0.000000 (X 0.000000, Y 0.000000, Z 0.000000)
   B->A: 0.000000 (X 0.000000, Y 0.000000, Z 0.000000)
 Oscillator strength (a.u.): 0.000000
 Transition angular momentum against gauge origin (a.u.):
   A->B:  (X 0.000000i, Y 0.000000i, Z 0.000000i)
   B->A:  (X 0.000000i, Y 0.000000i, Z 0.000000i)

 Electronic circular dichroism (ECD):
 Transition dipole moment/angular momentum:
   A->B->A:  (X 0.000000, Y 0.000000, Z 0.000000)
   Rotatory strength, length gauge (a.u.): 0.000000
   Rotatory strength, length gauge (1.0e-40 cgs): 0.000000
 Transition linear momentum/angular momentum:
   A->B->A:  (X 0.000000, Y 0.000000, Z 0.000000)
   Rotatory strength, velocity gauge (a.u.): 0.000000
   Rotatory strength, velocity gauge (1.0e-40 cgs): 0.000000

 Norm of one-particle transition density matrix:
   A->B: 0.998710;   B->A: 0.998522
   ||gamma^AB||*||gamma^BA||: 0.997234

 ------------------------------------------------------------------------------
 State A: eomea_mp2/b: 1/B2g
 State B: eomea_mp2/b: 3/B2g
 Energy GAP = 0.054467 a.u. = 1.482130 eV
 Transition dipole moment (a.u.):
   A->B: 0.000000 (X 0.000000, Y 0.000000, Z 0.000000)
   B->A: 0.000000 (X 0.000000, Y 0.000000, Z 0.000000)
 Oscillator strength (a.u.): 0.000000
 Transition angular momentum against gauge origin (a.u.):
   A->B:  (X 0.000000i, Y 0.000000i, Z 0.000000i)
   B->A:  (X 0.000000i, Y 0.000000i, Z 0.000000i)

 Electronic circular dichroism (ECD):
 Transition dipole moment/angular momentum:
   A->B->A:  (X 0.000000, Y 0.000000, Z 0.000000)
   Rotatory strength, length gauge (a.u.): 0.000000
   Rotatory strength, length gauge (1.0e-40 cgs): 0.000000
 Transition linear momentum/angular momentum:
   A->B->A:  (X 0.000000, Y 0.000000, Z 0.000000)
   Rotatory strength, velocity gauge (a.u.): 0.000000
   Rotatory strength, velocity gauge (1.0e-40 cgs): 0.000000

 Norm of one-particle transition density matrix:
   A->B: 0.985721;   B->A: 0.983194
   ||gamma^AB||*||gamma^BA||: 0.969156

 ------------------------------------------------------------------------------
 State A: eomea_mp2/b: 1/B2g
 State B: eomea_mp2/b: 4/B2g
 Energy GAP = 0.084359 a.u. = 2.295538 eV
 Transition dipole moment (a.u.):
   A->B: 0.000000 (X 0.000000, Y 0.000000, Z 0.000000)
   B->A: 0.000000 (X 0.000000, Y 0.000000, Z 0.000000)
 Oscillator strength (a.u.): 0.000000
 Transition angular momentum against gauge origin (a.u.):
   A->B:  (X 0.000000i, Y 0.000000i, Z 0.000000i)
   B->A:  (X 0.000000i, Y 0.000000i, Z 0.000000i)

 Electronic circular dichroism (ECD):
 Transition dipole moment/angular momentum:
   A->B->A:  (X 0.000000, Y 0.000000, Z 0.000000)
   Rotatory strength, length gauge (a.u.): 0.000000
   Rotatory strength, length gauge (1.0e-40 cgs): 0.000000
 Transition linear momentum/angular momentum:
   A->B->A:  (X 0.000000, Y 0.000000, Z 0.000000)
   Rotatory strength, velocity gauge (a.u.): 0.000000
   Rotatory strength, velocity gauge (1.0e-40 cgs): 0.000000

 Norm of one-particle transition density matrix:
   A->B: 0.985989;   B->A: 0.983487
   ||gamma^AB||*||gamma^BA||: 0.969707

 ------------------------------------------------------------------------------
 State A: eomea_mp2/b: 1/B2g
 State B: eomea_mp2/b: 5/B2g
 Energy GAP = 0.151958 a.u. = 4.134990 eV
 Transition dipole moment (a.u.):
   A->B: 0.000000 (X 0.000000, Y 0.000000, Z 0.000000)
   B->A: 0.000000 (X 0.000000, Y 0.000000, Z 0.000000)
 Oscillator strength (a.u.): 0.000000
 Transition angular momentum against gauge origin (a.u.):
   A->B:  (X 0.000000i, Y 0.000000i, Z 0.000000i)
   B->A:  (X 0.000000i, Y 0.000000i, Z 0.000000i)

 Electronic circular dichroism (ECD):
 Transition dipole moment/angular momentum:
   A->B->A:  (X 0.000000, Y 0.000000, Z 0.000000)
   Rotatory strength, length gauge (a.u.): 0.000000
   Rotatory strength, length gauge (1.0e-40 cgs): 0.000000
 Transition linear momentum/angular momentum:
   A->B->A:  (X 0.000000, Y 0.000000, Z 0.000000)
   Rotatory strength, velocity gauge (a.u.): -0.000000
   Rotatory strength, velocity gauge (1.0e-40 cgs): -0.000000

 Norm of one-particle transition density matrix:
   A->B: 0.989921;   B->A: 0.988144
   ||gamma^AB||*||gamma^BA||: 0.978185

 ------------------------------------------------------------------------------
 State A: eomea_mp2/b: 1/B2g
 State B: eomea_mp2/b: 6/B2g
 Energy GAP = 0.227772 a.u. = 6.197992 eV
 Transition dipole moment (a.u.):
   A->B: 0.000000 (X 0.000000, Y 0.000000, Z 0.000000)
   B->A: 0.000000 (X 0.000000, Y 0.000000, Z 0.000000)
 Oscillator strength (a.u.): -0.000000
 Transition angular momentum against gauge origin (a.u.):
   A->B:  (X 0.000000i, Y 0.000000i, Z 0.000000i)
   B->A:  (X 0.000000i, Y 0.000000i, Z 0.000000i)

 Electronic circular dichroism (ECD):
 Transition dipole moment/angular momentum:
   A->B->A:  (X 0.000000, Y 0.000000, Z 0.000000)
   Rotatory strength, length gauge (a.u.): -0.000000
   Rotatory strength, length gauge (1.0e-40 cgs): -0.000000
 Transition linear momentum/angular momentum:
   A->B->A:  (X 0.000000, Y 0.000000, Z 0.000000)
   Rotatory strength, velocity gauge (a.u.): 0.000000
   Rotatory strength, velocity gauge (1.0e-40 cgs): 0.000000

 Norm of one-particle transition density matrix:
   A->B: 0.033851;   B->A: 0.034381
   ||gamma^AB||*||gamma^BA||: 0.001164

 ------------------------------------------------------------------------------
 State A: eomea_mp2/b: 1/B2g
 State B: eomea_mp2/b: 7/B2g
 Energy GAP = 0.227939 a.u. = 6.202529 eV
 Transition dipole moment (a.u.):
   A->B: 0.000000 (X 0.000000, Y 0.000000, Z 0.000000)
   B->A: 0.000000 (X 0.000000, Y 0.000000, Z 0.000000)
 Oscillator strength (a.u.): 0.000000
 Transition angular momentum against gauge origin (a.u.):
   A->B:  (X 0.000000i, Y 0.000000i, Z 0.000000i)
   B->A:  (X 0.000000i, Y 0.000000i, Z 0.000000i)

 Electronic circular dichroism (ECD):
 Transition dipole moment/angular momentum:
   A->B->A:  (X 0.000000, Y 0.000000, Z 0.000000)
   Rotatory strength, length gauge (a.u.): 0.000000
   Rotatory strength, length gauge (1.0e-40 cgs): 0.000000
 Transition linear momentum/angular momentum:
   A->B->A:  (X 0.000000, Y 0.000000, Z 0.000000)
   Rotatory strength, velocity gauge (a.u.): 0.000000
   Rotatory strength, velocity gauge (1.0e-40 cgs): 0.000000

 Norm of one-particle transition density matrix:
   A->B: 0.101759;   B->A: 0.097393
   ||gamma^AB||*||gamma^BA||: 0.009911

 ------------------------------------------------------------------------------
 State A: eomea_mp2/b: 1/B2g
 State B: eomea_mp2/b: 8/B2g
 Energy GAP = 0.234935 a.u. = 6.392910 eV
 Transition dipole moment (a.u.):
   A->B: 0.000000 (X 0.000000, Y 0.000000, Z 0.000000)
   B->A: 0.000000 (X 0.000000, Y 0.000000, Z 0.000000)
 Oscillator strength (a.u.): 0.000000
 Transition angular momentum against gauge origin (a.u.):
   A->B:  (X 0.000000i, Y 0.000000i, Z 0.000000i)
   B->A:  (X 0.000000i, Y 0.000000i, Z 0.000000i)

 Electronic circular dichroism (ECD):
 Transition dipole moment/angular momentum:
   A->B->A:  (X 0.000000, Y 0.000000, Z 0.000000)
   Rotatory strength, length gauge (a.u.): 0.000000
   Rotatory strength, length gauge (1.0e-40 cgs): 0.000000
 Transition linear momentum/angular momentum:
   A->B->A:  (X 0.000000, Y 0.000000, Z 0.000000)
   Rotatory strength, velocity gauge (a.u.): 0.000000
   Rotatory strength, velocity gauge (1.0e-40 cgs): 0.000000

 Norm of one-particle transition density matrix:
   A->B: 0.985876;   B->A: 0.984053
   ||gamma^AB||*||gamma^BA||: 0.970154

 ------------------------------------------------------------------------------
 State A: eomea_mp2/b: 1/B2g
 State B: eomea_mp2/b: 9/B2g
 Energy GAP = 0.250668 a.u. = 6.821024 eV
 Transition dipole moment (a.u.):
   A->B: 0.000000 (X 0.000000, Y 0.000000, Z 0.000000)
   B->A: 0.000000 (X 0.000000, Y 0.000000, Z 0.000000)
 Oscillator strength (a.u.): 0.000000
 Transition angular momentum against gauge origin (a.u.):
   A->B:  (X 0.000000i, Y 0.000000i, Z 0.000000i)
   B->A:  (X 0.000000i, Y 0.000000i, Z 0.000000i)

 Electronic circular dichroism (ECD):
 Transition dipole moment/angular momentum:
   A->B->A:  (X 0.000000, Y 0.000000, Z 0.000000)
   Rotatory strength, length gauge (a.u.): 0.000000
   Rotatory strength, length gauge (1.0e-40 cgs): 0.000000
 Transition linear momentum/angular momentum:
   A->B->A:  (X 0.000000, Y 0.000000, Z 0.000000)
   Rotatory strength, velocity gauge (a.u.): 0.000000
   Rotatory strength, velocity gauge (1.0e-40 cgs): 0.000000

 Norm of one-particle transition density matrix:
   A->B: 0.033568;   B->A: 0.034242
   ||gamma^AB||*||gamma^BA||: 0.001149

 ------------------------------------------------------------------------------
 State A: eomea_mp2/b: 1/B2g
 State B: eomea_mp2/b: 10/B2g
 Energy GAP = 0.252211 a.u. = 6.863008 eV
 Transition dipole moment (a.u.):
   A->B: 0.000000 (X 0.000000, Y 0.000000, Z 0.000000)
   B->A: 0.000000 (X 0.000000, Y 0.000000, Z 0.000000)
 Oscillator strength (a.u.): 0.000000
 Transition angular momentum against gauge origin (a.u.):
   A->B:  (X 0.000000i, Y 0.000000i, Z 0.000000i)
   B->A:  (X 0.000000i, Y 0.000000i, Z 0.000000i)

 Electronic circular dichroism (ECD):
 Transition dipole moment/angular momentum:
   A->B->A:  (X 0.000000, Y 0.000000, Z 0.000000)
   Rotatory strength, length gauge (a.u.): 0.000000
   Rotatory strength, length gauge (1.0e-40 cgs): 0.000000
 Transition linear momentum/angular momentum:
   A->B->A:  (X 0.000000, Y 0.000000, Z 0.000000)
   Rotatory strength, velocity gauge (a.u.): -0.000000
   Rotatory strength, velocity gauge (1.0e-40 cgs): -0.000000

 Norm of one-particle transition density matrix:
   A->B: 0.128444;   B->A: 0.123733
   ||gamma^AB||*||gamma^BA||: 0.015893

 ------------------------------------------------------------------------------
 State A: eomea_mp2/b: 2/B2g
 State B: eomea_mp2/b: 3/B2g
 Energy GAP = 0.029284 a.u. = 0.796852 eV
 Transition dipole moment (a.u.):
   A->B: 0.000000 (X 0.000000, Y 0.000000, Z 0.000000)
   B->A: 0.000000 (X 0.000000, Y 0.000000, Z 0.000000)
 Oscillator strength (a.u.): 0.000000
 Transition angular momentum against gauge origin (a.u.):
   A->B:  (X 0.000000i, Y 0.000000i, Z 0.000000i)
   B->A:  (X 0.000000i, Y 0.000000i, Z 0.000000i)

 Electronic circular dichroism (ECD):
 Transition dipole moment/angular momentum:
   A->B->A:  (X 0.000000, Y 0.000000, Z 0.000000)
   Rotatory strength, length gauge (a.u.): -0.000000
   Rotatory strength, length gauge (1.0e-40 cgs): -0.000000
 Transition linear momentum/angular momentum:
   A->B->A:  (X 0.000000, Y 0.000000, Z 0.000000)
   Rotatory strength, velocity gauge (a.u.): -0.000000
   Rotatory strength, velocity gauge (1.0e-40 cgs): -0.000000

 Norm of one-particle transition density matrix:
   A->B: 0.985473;   B->A: 0.983142
   ||gamma^AB||*||gamma^BA||: 0.968859

 ------------------------------------------------------------------------------
 State A: eomea_mp2/b: 2/B2g
 State B: eomea_mp2/b: 4/B2g
 Energy GAP = 0.059176 a.u. = 1.610260 eV
 Transition dipole moment (a.u.):
   A->B: 0.000000 (X 0.000000, Y 0.000000, Z 0.000000)
   B->A: 0.000000 (X 0.000000, Y 0.000000, Z 0.000000)
 Oscillator strength (a.u.): 0.000000
 Transition angular momentum against gauge origin (a.u.):
   A->B:  (X 0.000000i, Y 0.000000i, Z 0.000000i)
   B->A:  (X 0.000000i, Y 0.000000i, Z 0.000000i)

 Electronic circular dichroism (ECD):
 Transition dipole moment/angular momentum:
   A->B->A:  (X 0.000000, Y 0.000000, Z 0.000000)
   Rotatory strength, length gauge (a.u.): 0.000000
   Rotatory strength, length gauge (1.0e-40 cgs): 0.000000
 Transition linear momentum/angular momentum:
   A->B->A:  (X 0.000000, Y 0.000000, Z 0.000000)
   Rotatory strength, velocity gauge (a.u.): 0.000000
   Rotatory strength, velocity gauge (1.0e-40 cgs): 0.000000

 Norm of one-particle transition density matrix:
   A->B: 0.985537;   B->A: 0.983233
   ||gamma^AB||*||gamma^BA||: 0.969013

 ------------------------------------------------------------------------------
 State A: eomea_mp2/b: 2/B2g
 State B: eomea_mp2/b: 5/B2g
 Energy GAP = 0.126775 a.u. = 3.449712 eV
 Transition dipole moment (a.u.):
   A->B: 0.000000 (X 0.000000, Y 0.000000, Z 0.000000)
   B->A: 0.000000 (X 0.000000, Y 0.000000, Z 0.000000)
 Oscillator strength (a.u.): 0.000000
 Transition angular momentum against gauge origin (a.u.):
   A->B:  (X 0.000000i, Y 0.000000i, Z 0.000000i)
   B->A:  (X 0.000000i, Y 0.000000i, Z 0.000000i)

 Electronic circular dichroism (ECD):
 Transition dipole moment/angular momentum:
   A->B->A:  (X 0.000000, Y 0.000000, Z 0.000000)
   Rotatory strength, length gauge (a.u.): -0.000000
   Rotatory strength, length gauge (1.0e-40 cgs): -0.000000
 Transition linear momentum/angular momentum:
   A->B->A:  (X 0.000000, Y 0.000000, Z 0.000000)
   Rotatory strength, velocity gauge (a.u.): 0.000000
   Rotatory strength, velocity gauge (1.0e-40 cgs): 0.000000

 Norm of one-particle transition density matrix:
   A->B: 0.989008;   B->A: 0.987433
   ||gamma^AB||*||gamma^BA||: 0.976579

 ------------------------------------------------------------------------------
 State A: eomea_mp2/b: 2/B2g
 State B: eomea_mp2/b: 6/B2g
 Energy GAP = 0.202588 a.u. = 5.512714 eV
 Transition dipole moment (a.u.):
   A->B: 0.000000 (X 0.000000, Y 0.000000, Z 0.000000)
   B->A: 0.000000 (X 0.000000, Y 0.000000, Z 0.000000)
 Oscillator strength (a.u.): 0.000000
 Transition angular momentum against gauge origin (a.u.):
   A->B:  (X 0.000000i, Y 0.000000i, Z 0.000000i)
   B->A:  (X 0.000000i, Y 0.000000i, Z 0.000000i)

 Electronic circular dichroism (ECD):
 Transition dipole moment/angular momentum:
   A->B->A:  (X 0.000000, Y 0.000000, Z 0.000000)
   Rotatory strength, length gauge (a.u.): -0.000000
   Rotatory strength, length gauge (1.0e-40 cgs): -0.000000
 Transition linear momentum/angular momentum:
   A->B->A:  (X 0.000000, Y 0.000000, Z 0.000000)
   Rotatory strength, velocity gauge (a.u.): -0.000000
   Rotatory strength, velocity gauge (1.0e-40 cgs): -0.000000

 Norm of one-particle transition density matrix:
   A->B: 0.163287;   B->A: 0.166606
   ||gamma^AB||*||gamma^BA||: 0.027204

 ------------------------------------------------------------------------------
 State A: eomea_mp2/b: 2/B2g
 State B: eomea_mp2/b: 7/B2g
 Energy GAP = 0.202755 a.u. = 5.517250 eV
 Transition dipole moment (a.u.):
   A->B: 0.000000 (X 0.000000, Y 0.000000, Z 0.000000)
   B->A: 0.000000 (X 0.000000, Y 0.000000, Z 0.000000)
 Oscillator strength (a.u.): 0.000000
 Transition angular momentum against gauge origin (a.u.):
   A->B:  (X 0.000000i, Y 0.000000i, Z 0.000000i)
   B->A:  (X 0.000000i, Y 0.000000i, Z 0.000000i)

 Electronic circular dichroism (ECD):
 Transition dipole moment/angular momentum:
   A->B->A:  (X 0.000000, Y 0.000000, Z 0.000000)
   Rotatory strength, length gauge (a.u.): -0.000000
   Rotatory strength, length gauge (1.0e-40 cgs): -0.000000
 Transition linear momentum/angular momentum:
   A->B->A:  (X 0.000000, Y 0.000000, Z 0.000000)
   Rotatory strength, velocity gauge (a.u.): 0.000000
   Rotatory strength, velocity gauge (1.0e-40 cgs): 0.000000

 Norm of one-particle transition density matrix:
   A->B: 0.203792;   B->A: 0.205038
   ||gamma^AB||*||gamma^BA||: 0.041785

 ------------------------------------------------------------------------------
 State A: eomea_mp2/b: 2/B2g
 State B: eomea_mp2/b: 8/B2g
 Energy GAP = 0.209751 a.u. = 5.707632 eV
 Transition dipole moment (a.u.):
   A->B: 0.000000 (X 0.000000, Y 0.000000, Z 0.000000)
   B->A: 0.000000 (X 0.000000, Y 0.000000, Z 0.000000)
 Oscillator strength (a.u.): 0.000000
 Transition angular momentum against gauge origin (a.u.):
   A->B:  (X 0.000000i, Y 0.000000i, Z 0.000000i)
   B->A:  (X 0.000000i, Y 0.000000i, Z 0.000000i)

 Electronic circular dichroism (ECD):
 Transition dipole moment/angular momentum:
   A->B->A:  (X 0.000000, Y 0.000000, Z 0.000000)
   Rotatory strength, length gauge (a.u.): 0.000000
   Rotatory strength, length gauge (1.0e-40 cgs): 0.000000
 Transition linear momentum/angular momentum:
   A->B->A:  (X 0.000000, Y 0.000000, Z 0.000000)
   Rotatory strength, velocity gauge (a.u.): -0.000000
   Rotatory strength, velocity gauge (1.0e-40 cgs): -0.000000

 Norm of one-particle transition density matrix:
   A->B: 0.985008;   B->A: 0.983419
   ||gamma^AB||*||gamma^BA||: 0.968676

 ------------------------------------------------------------------------------
 State A: eomea_mp2/b: 2/B2g
 State B: eomea_mp2/b: 9/B2g
 Energy GAP = 0.225484 a.u. = 6.135745 eV
 Transition dipole moment (a.u.):
   A->B: 0.000000 (X 0.000000, Y 0.000000, Z 0.000000)
   B->A: 0.000000 (X 0.000000, Y 0.000000, Z 0.000000)
 Oscillator strength (a.u.): -0.000000
 Transition angular momentum against gauge origin (a.u.):
   A->B:  (X 0.000000i, Y 0.000000i, Z 0.000000i)
   B->A:  (X 0.000000i, Y 0.000000i, Z 0.000000i)

 Electronic circular dichroism (ECD):
 Transition dipole moment/angular momentum:
   A->B->A:  (X 0.000000, Y 0.000000, Z 0.000000)
   Rotatory strength, length gauge (a.u.): -0.000000
   Rotatory strength, length gauge (1.0e-40 cgs): -0.000000
 Transition linear momentum/angular momentum:
   A->B->A:  (X 0.000000, Y 0.000000, Z 0.000000)
   Rotatory strength, velocity gauge (a.u.): -0.000000
   Rotatory strength, velocity gauge (1.0e-40 cgs): -0.000000

 Norm of one-particle transition density matrix:
   A->B: 0.168968;   B->A: 0.172215
   ||gamma^AB||*||gamma^BA||: 0.029099

 ------------------------------------------------------------------------------
 State A: eomea_mp2/b: 2/B2g
 State B: eomea_mp2/b: 10/B2g
 Energy GAP = 0.227027 a.u. = 6.177730 eV
 Transition dipole moment (a.u.):
   A->B: 0.000000 (X 0.000000, Y 0.000000, Z 0.000000)
   B->A: 0.000000 (X 0.000000, Y 0.000000, Z 0.000000)
 Oscillator strength (a.u.): 0.000000
 Transition angular momentum against gauge origin (a.u.):
   A->B:  (X 0.000000i, Y 0.000000i, Z 0.000000i)
   B->A:  (X 0.000000i, Y 0.000000i, Z 0.000000i)

 Electronic circular dichroism (ECD):
 Transition dipole moment/angular momentum:
   A->B->A:  (X 0.000000, Y 0.000000, Z 0.000000)
   Rotatory strength, length gauge (a.u.): 0.000000
   Rotatory strength, length gauge (1.0e-40 cgs): 0.000000
 Transition linear momentum/angular momentum:
   A->B->A:  (X 0.000000, Y 0.000000, Z 0.000000)
   Rotatory strength, velocity gauge (a.u.): 0.000000
   Rotatory strength, velocity gauge (1.0e-40 cgs): 0.000000

 Norm of one-particle transition density matrix:
   A->B: 0.219121;   B->A: 0.219415
   ||gamma^AB||*||gamma^BA||: 0.048078

 ------------------------------------------------------------------------------
 State A: eomea_mp2/b: 3/B2g
 State B: eomea_mp2/b: 4/B2g
 Energy GAP = 0.029892 a.u. = 0.813408 eV
 Transition dipole moment (a.u.):
   A->B: 0.000000 (X 0.000000, Y 0.000000, Z 0.000000)
   B->A: 0.000000 (X 0.000000, Y 0.000000, Z 0.000000)
 Oscillator strength (a.u.): 0.000000
 Transition angular momentum against gauge origin (a.u.):
   A->B:  (X 0.000000i, Y 0.000000i, Z 0.000000i)
   B->A:  (X 0.000000i, Y 0.000000i, Z 0.000000i)

 Electronic circular dichroism (ECD):
 Transition dipole moment/angular momentum:
   A->B->A:  (X 0.000000, Y 0.000000, Z 0.000000)
   Rotatory strength, length gauge (a.u.): 0.000000
   Rotatory strength, length gauge (1.0e-40 cgs): 0.000000
 Transition linear momentum/angular momentum:
   A->B->A:  (X 0.000000, Y 0.000000, Z 0.000000)
   Rotatory strength, velocity gauge (a.u.): 0.000000
   Rotatory strength, velocity gauge (1.0e-40 cgs): 0.000000

 Norm of one-particle transition density matrix:
   A->B: 0.982953;   B->A: 0.983030
   ||gamma^AB||*||gamma^BA||: 0.966272

 ------------------------------------------------------------------------------
 State A: eomea_mp2/b: 3/B2g
 State B: eomea_mp2/b: 5/B2g
 Energy GAP = 0.097491 a.u. = 2.652860 eV
 Transition dipole moment (a.u.):
   A->B: 0.000000 (X 0.000000, Y 0.000000, Z 0.000000)
   B->A: 0.000000 (X 0.000000, Y 0.000000, Z 0.000000)
 Oscillator strength (a.u.): 0.000000
 Transition angular momentum against gauge origin (a.u.):
   A->B:  (X 0.000000i, Y 0.000000i, Z 0.000000i)
   B->A:  (X 0.000000i, Y 0.000000i, Z 0.000000i)

 Electronic circular dichroism (ECD):
 Transition dipole moment/angular momentum:
   A->B->A:  (X 0.000000, Y 0.000000, Z 0.000000)
   Rotatory strength, length gauge (a.u.): 0.000000
   Rotatory strength, length gauge (1.0e-40 cgs): 0.000000
 Transition linear momentum/angular momentum:
   A->B->A:  (X 0.000000, Y 0.000000, Z 0.000000)
   Rotatory strength, velocity gauge (a.u.): -0.000000
   Rotatory strength, velocity gauge (1.0e-40 cgs): -0.000000

 Norm of one-particle transition density matrix:
   A->B: 0.979758;   B->A: 0.980663
   ||gamma^AB||*||gamma^BA||: 0.960812

 ------------------------------------------------------------------------------
 State A: eomea_mp2/b: 3/B2g
 State B: eomea_mp2/b: 6/B2g
 Energy GAP = 0.173305 a.u. = 4.715862 eV
 Transition dipole moment (a.u.):
   A->B: 0.000000 (X 0.000000, Y 0.000000, Z 0.000000)
   B->A: 0.000000 (X 0.000000, Y 0.000000, Z 0.000000)
 Oscillator strength (a.u.): -0.000000
 Transition angular momentum against gauge origin (a.u.):
   A->B:  (X 0.000000i, Y 0.000000i, Z 0.000000i)
   B->A:  (X 0.000000i, Y 0.000000i, Z 0.000000i)

 Electronic circular dichroism (ECD):
 Transition dipole moment/angular momentum:
   A->B->A:  (X 0.000000, Y 0.000000, Z 0.000000)
   Rotatory strength, length gauge (a.u.): -0.000000
   Rotatory strength, length gauge (1.0e-40 cgs): -0.000000
 Transition linear momentum/angular momentum:
   A->B->A:  (X 0.000000, Y 0.000000, Z 0.000000)
   Rotatory strength, velocity gauge (a.u.): 0.000000
   Rotatory strength, velocity gauge (1.0e-40 cgs): 0.000000

 Norm of one-particle transition density matrix:
   A->B: 0.556429;   B->A: 0.565511
   ||gamma^AB||*||gamma^BA||: 0.314667

 ------------------------------------------------------------------------------
 State A: eomea_mp2/b: 3/B2g
 State B: eomea_mp2/b: 7/B2g
 Energy GAP = 0.173471 a.u. = 4.720399 eV
 Transition dipole moment (a.u.):
   A->B: 0.000000 (X 0.000000, Y 0.000000, Z 0.000000)
   B->A: 0.000000 (X 0.000000, Y 0.000000, Z 0.000000)
 Oscillator strength (a.u.): 0.000000
 Transition angular momentum against gauge origin (a.u.):
   A->B:  (X 0.000000i, Y 0.000000i, Z 0.000000i)
   B->A:  (X 0.000000i, Y 0.000000i, Z 0.000000i)

 Electronic circular dichroism (ECD):
 Transition dipole moment/angular momentum:
   A->B->A:  (X 0.000000, Y 0.000000, Z 0.000000)
   Rotatory strength, length gauge (a.u.): 0.000000
   Rotatory strength, length gauge (1.0e-40 cgs): 0.000000
 Transition linear momentum/angular momentum:
   A->B->A:  (X 0.000000, Y 0.000000, Z 0.000000)
   Rotatory strength, velocity gauge (a.u.): -0.000000
   Rotatory strength, velocity gauge (1.0e-40 cgs): -0.000000

 Norm of one-particle transition density matrix:
   A->B: 0.625918;   B->A: 0.635588
   ||gamma^AB||*||gamma^BA||: 0.397826

 ------------------------------------------------------------------------------
 State A: eomea_mp2/b: 3/B2g
 State B: eomea_mp2/b: 8/B2g
 Energy GAP = 0.180468 a.u. = 4.910780 eV
 Transition dipole moment (a.u.):
   A->B: 0.000000 (X 0.000000, Y 0.000000, Z 0.000000)
   B->A: 0.000000 (X 0.000000, Y 0.000000, Z 0.000000)
 Oscillator strength (a.u.): 0.000000
 Transition angular momentum against gauge origin (a.u.):
   A->B:  (X 0.000000i, Y 0.000000i, Z 0.000000i)
   B->A:  (X 0.000000i, Y 0.000000i, Z 0.000000i)

 Electronic circular dichroism (ECD):
 Transition dipole moment/angular momentum:
   A->B->A:  (X 0.000000, Y 0.000000, Z 0.000000)
   Rotatory strength, length gauge (a.u.): 0.000000
   Rotatory strength, length gauge (1.0e-40 cgs): 0.000000
 Transition linear momentum/angular momentum:
   A->B->A:  (X 0.000000, Y 0.000000, Z 0.000000)
   Rotatory strength, velocity gauge (a.u.): 0.000000
   Rotatory strength, velocity gauge (1.0e-40 cgs): 0.000000

 Norm of one-particle transition density matrix:
   A->B: 0.974950;   B->A: 0.976195
   ||gamma^AB||*||gamma^BA||: 0.951741

 ------------------------------------------------------------------------------
 State A: eomea_mp2/b: 3/B2g
 State B: eomea_mp2/b: 9/B2g
 Energy GAP = 0.196201 a.u. = 5.338894 eV
 Transition dipole moment (a.u.):
   A->B: 0.000000 (X 0.000000, Y 0.000000, Z 0.000000)
   B->A: 0.000000 (X 0.000000, Y 0.000000, Z 0.000000)
 Oscillator strength (a.u.): -0.000000
 Transition angular momentum against gauge origin (a.u.):
   A->B:  (X 0.000000i, Y 0.000000i, Z 0.000000i)
   B->A:  (X 0.000000i, Y 0.000000i, Z 0.000000i)

 Electronic circular dichroism (ECD):
 Transition dipole moment/angular momentum:
   A->B->A:  (X 0.000000, Y 0.000000, Z 0.000000)
   Rotatory strength, length gauge (a.u.): 0.000000
   Rotatory strength, length gauge (1.0e-40 cgs): 0.000000
 Transition linear momentum/angular momentum:
   A->B->A:  (X 0.000000, Y 0.000000, Z 0.000000)
   Rotatory strength, velocity gauge (a.u.): -0.000000
   Rotatory strength, velocity gauge (1.0e-40 cgs): -0.000000

 Norm of one-particle transition density matrix:
   A->B: 0.559008;   B->A: 0.568118
   ||gamma^AB||*||gamma^BA||: 0.317582

 ------------------------------------------------------------------------------
 State A: eomea_mp2/b: 3/B2g
 State B: eomea_mp2/b: 10/B2g
 Energy GAP = 0.197744 a.u. = 5.380878 eV
 Transition dipole moment (a.u.):
   A->B: 0.000000 (X 0.000000, Y 0.000000, Z 0.000000)
   B->A: 0.000000 (X 0.000000, Y 0.000000, Z 0.000000)
 Oscillator strength (a.u.): 0.000000
 Transition angular momentum against gauge origin (a.u.):
   A->B:  (X 0.000000i, Y 0.000000i, Z 0.000000i)
   B->A:  (X 0.000000i, Y 0.000000i, Z 0.000000i)

 Electronic circular dichroism (ECD):
 Transition dipole moment/angular momentum:
   A->B->A:  (X 0.000000, Y 0.000000, Z 0.000000)
   Rotatory strength, length gauge (a.u.): -0.000000
   Rotatory strength, length gauge (1.0e-40 cgs): -0.000000
 Transition linear momentum/angular momentum:
   A->B->A:  (X 0.000000, Y 0.000000, Z 0.000000)
   Rotatory strength, velocity gauge (a.u.): -0.000000
   Rotatory strength, velocity gauge (1.0e-40 cgs): -0.000000

 Norm of one-particle transition density matrix:
   A->B: 0.629617;   B->A: 0.639141
   ||gamma^AB||*||gamma^BA||: 0.402414

 ------------------------------------------------------------------------------
 State A: eomea_mp2/b: 4/B2g
 State B: eomea_mp2/b: 5/B2g
 Energy GAP = 0.067599 a.u. = 1.839452 eV
 Transition dipole moment (a.u.):
   A->B: 0.000000 (X 0.000000, Y 0.000000, Z 0.000000)
   B->A: 0.000000 (X 0.000000, Y 0.000000, Z 0.000000)
 Oscillator strength (a.u.): 0.000000
 Transition angular momentum against gauge origin (a.u.):
   A->B:  (X 0.000000i, Y 0.000000i, Z 0.000000i)
   B->A:  (X 0.000000i, Y 0.000000i, Z 0.000000i)

 Electronic circular dichroism (ECD):
 Transition dipole moment/angular momentum:
   A->B->A:  (X 0.000000, Y 0.000000, Z 0.000000)
   Rotatory strength, length gauge (a.u.): -0.000000
   Rotatory strength, length gauge (1.0e-40 cgs): -0.000000
 Transition linear momentum/angular momentum:
   A->B->A:  (X 0.000000, Y 0.000000, Z 0.000000)
   Rotatory strength, velocity gauge (a.u.): -0.000000
   Rotatory strength, velocity gauge (1.0e-40 cgs): -0.000000

 Norm of one-particle transition density matrix:
   A->B: 0.980076;   B->A: 0.980926
   ||gamma^AB||*||gamma^BA||: 0.961382

 ------------------------------------------------------------------------------
 State A: eomea_mp2/b: 4/B2g
 State B: eomea_mp2/b: 6/B2g
 Energy GAP = 0.143412 a.u. = 3.902454 eV
 Transition dipole moment (a.u.):
   A->B: 0.000000 (X 0.000000, Y 0.000000, Z 0.000000)
   B->A: 0.000000 (X 0.000000, Y 0.000000, Z 0.000000)
 Oscillator strength (a.u.): 0.000000
 Transition angular momentum against gauge origin (a.u.):
   A->B:  (X 0.000000i, Y 0.000000i, Z 0.000000i)
   B->A:  (X 0.000000i, Y 0.000000i, Z 0.000000i)

 Electronic circular dichroism (ECD):
 Transition dipole moment/angular momentum:
   A->B->A:  (X 0.000000, Y 0.000000, Z 0.000000)
   Rotatory strength, length gauge (a.u.): -0.000000
   Rotatory strength, length gauge (1.0e-40 cgs): -0.000000
 Transition linear momentum/angular momentum:
   A->B->A:  (X 0.000000, Y 0.000000, Z 0.000000)
   Rotatory strength, velocity gauge (a.u.): -0.000000
   Rotatory strength, velocity gauge (1.0e-40 cgs): -0.000000

 Norm of one-particle transition density matrix:
   A->B: 0.457047;   B->A: 0.465874
   ||gamma^AB||*||gamma^BA||: 0.212926

 ------------------------------------------------------------------------------
 State A: eomea_mp2/b: 4/B2g
 State B: eomea_mp2/b: 7/B2g
 Energy GAP = 0.143579 a.u. = 3.906991 eV
 Transition dipole moment (a.u.):
   A->B: 0.000000 (X 0.000000, Y 0.000000, Z 0.000000)
   B->A: 0.000000 (X 0.000000, Y 0.000000, Z 0.000000)
 Oscillator strength (a.u.): 0.000000
 Transition angular momentum against gauge origin (a.u.):
   A->B:  (X 0.000000i, Y 0.000000i, Z 0.000000i)
   B->A:  (X 0.000000i, Y 0.000000i, Z 0.000000i)

 Electronic circular dichroism (ECD):
 Transition dipole moment/angular momentum:
   A->B->A:  (X 0.000000, Y 0.000000, Z 0.000000)
   Rotatory strength, length gauge (a.u.): 0.000000
   Rotatory strength, length gauge (1.0e-40 cgs): 0.000000
 Transition linear momentum/angular momentum:
   A->B->A:  (X 0.000000, Y 0.000000, Z 0.000000)
   Rotatory strength, velocity gauge (a.u.): -0.000000
   Rotatory strength, velocity gauge (1.0e-40 cgs): -0.000000

 Norm of one-particle transition density matrix:
   A->B: 0.517723;   B->A: 0.526799
   ||gamma^AB||*||gamma^BA||: 0.272736

 ------------------------------------------------------------------------------
 State A: eomea_mp2/b: 4/B2g
 State B: eomea_mp2/b: 8/B2g
 Energy GAP = 0.150576 a.u. = 4.097372 eV
 Transition dipole moment (a.u.):
   A->B: 0.000000 (X 0.000000, Y 0.000000, Z 0.000000)
   B->A: 0.000000 (X 0.000000, Y 0.000000, Z 0.000000)
 Oscillator strength (a.u.): 0.000000
 Transition angular momentum against gauge origin (a.u.):
   A->B:  (X 0.000000i, Y 0.000000i, Z 0.000000i)
   B->A:  (X 0.000000i, Y 0.000000i, Z 0.000000i)

 Electronic circular dichroism (ECD):
 Transition dipole moment/angular momentum:
   A->B->A:  (X 0.000000, Y 0.000000, Z 0.000000)
   Rotatory strength, length gauge (a.u.): 0.000000
   Rotatory strength, length gauge (1.0e-40 cgs): 0.000000
 Transition linear momentum/angular momentum:
   A->B->A:  (X 0.000000, Y 0.000000, Z 0.000000)
   Rotatory strength, velocity gauge (a.u.): -0.000000
   Rotatory strength, velocity gauge (1.0e-40 cgs): -0.000000

 Norm of one-particle transition density matrix:
   A->B: 0.974158;   B->A: 0.975260
   ||gamma^AB||*||gamma^BA||: 0.950057

 ------------------------------------------------------------------------------
 State A: eomea_mp2/b: 4/B2g
 State B: eomea_mp2/b: 9/B2g
 Energy GAP = 0.166308 a.u. = 4.525486 eV
 Transition dipole moment (a.u.):
   A->B: 0.000000 (X 0.000000, Y 0.000000, Z 0.000000)
   B->A: 0.000000 (X 0.000000, Y 0.000000, Z 0.000000)
 Oscillator strength (a.u.): 0.000000
 Transition angular momentum against gauge origin (a.u.):
   A->B:  (X 0.000000i, Y 0.000000i, Z 0.000000i)
   B->A:  (X 0.000000i, Y 0.000000i, Z 0.000000i)

 Electronic circular dichroism (ECD):
 Transition dipole moment/angular momentum:
   A->B->A:  (X 0.000000, Y 0.000000, Z 0.000000)
   Rotatory strength, length gauge (a.u.): 0.000000
   Rotatory strength, length gauge (1.0e-40 cgs): 0.000000
 Transition linear momentum/angular momentum:
   A->B->A:  (X 0.000000, Y 0.000000, Z 0.000000)
   Rotatory strength, velocity gauge (a.u.): -0.000000
   Rotatory strength, velocity gauge (1.0e-40 cgs): -0.000000

 Norm of one-particle transition density matrix:
   A->B: 0.453925;   B->A: 0.462795
   ||gamma^AB||*||gamma^BA||: 0.210074

 ------------------------------------------------------------------------------
 State A: eomea_mp2/b: 4/B2g
 State B: eomea_mp2/b: 10/B2g
 Energy GAP = 0.167851 a.u. = 4.567470 eV
 Transition dipole moment (a.u.):
   A->B: 0.000000 (X 0.000000, Y 0.000000, Z 0.000000)
   B->A: 0.000000 (X 0.000000, Y 0.000000, Z 0.000000)
 Oscillator strength (a.u.): 0.000000
 Transition angular momentum against gauge origin (a.u.):
   A->B:  (X 0.000000i, Y 0.000000i, Z 0.000000i)
   B->A:  (X 0.000000i, Y 0.000000i, Z 0.000000i)

 Electronic circular dichroism (ECD):
 Transition dipole moment/angular momentum:
   A->B->A:  (X 0.000000, Y 0.000000, Z 0.000000)
   Rotatory strength, length gauge (a.u.): 0.000000
   Rotatory strength, length gauge (1.0e-40 cgs): 0.000000
 Transition linear momentum/angular momentum:
   A->B->A:  (X 0.000000, Y 0.000000, Z 0.000000)
   Rotatory strength, velocity gauge (a.u.): 0.000000
   Rotatory strength, velocity gauge (1.0e-40 cgs): 0.000000

 Norm of one-particle transition density matrix:
   A->B: 0.520839;   B->A: 0.529716
   ||gamma^AB||*||gamma^BA||: 0.275897

 ------------------------------------------------------------------------------
 State A: eomea_mp2/b: 5/B2g
 State B: eomea_mp2/b: 6/B2g
 Energy GAP = 0.075814 a.u. = 2.063002 eV
 Transition dipole moment (a.u.):
   A->B: 0.000000 (X 0.000000, Y 0.000000, Z 0.000000)
   B->A: 0.000000 (X 0.000000, Y 0.000000, Z 0.000000)
 Oscillator strength (a.u.): 0.000000
 Transition angular momentum against gauge origin (a.u.):
   A->B:  (X 0.000000i, Y 0.000000i, Z 0.000000i)
   B->A:  (X 0.000000i, Y 0.000000i, Z 0.000000i)

 Electronic circular dichroism (ECD):
 Transition dipole moment/angular momentum:
   A->B->A:  (X 0.000000, Y 0.000000, Z 0.000000)
   Rotatory strength, length gauge (a.u.): -0.000000
   Rotatory strength, length gauge (1.0e-40 cgs): -0.000000
 Transition linear momentum/angular momentum:
   A->B->A:  (X 0.000000, Y 0.000000, Z 0.000000)
   Rotatory strength, velocity gauge (a.u.): -0.000000
   Rotatory strength, velocity gauge (1.0e-40 cgs): -0.000000

 Norm of one-particle transition density matrix:
   A->B: 0.214749;   B->A: 0.220512
[...]
   ||gamma^AB||*||gamma^BA||: 0.042417

 ------------------------------------------------------------------------------
 State A: eomea_mp2/b: 9/B2g
 State B: eomea_mp2/b: 10/B2g
 Energy GAP = 0.001543 a.u. = 0.041984 eV
 Transition dipole moment (a.u.):
   A->B: 0.000000 (X 0.000000, Y 0.000000, Z 0.000000)
   B->A: 0.000000 (X 0.000000, Y 0.000000, Z 0.000000)
 Oscillator strength (a.u.): 0.000000
 Transition angular momentum against gauge origin (a.u.):
   A->B:  (X 0.000000i, Y 0.000000i, Z 0.000000i)
   B->A:  (X 0.000000i, Y 0.000000i, Z 0.000000i)

 Electronic circular dichroism (ECD):
 Transition dipole moment/angular momentum:
   A->B->A:  (X 0.000000, Y 0.000000, Z 0.000000)
   Rotatory strength, length gauge (a.u.): -0.000000
   Rotatory strength, length gauge (1.0e-40 cgs): -0.000000
 Transition linear momentum/angular momentum:
   A->B->A:  (X 0.000000, Y 0.000000, Z 0.000000)
   Rotatory strength, velocity gauge (a.u.): -0.000000
   Rotatory strength, velocity gauge (1.0e-40 cgs): -0.000000

 Norm of one-particle transition density matrix:
   A->B: 0.806414;   B->A: 0.806566
   ||gamma^AB||*||gamma^BA||: 0.650426


 All requested transition properties have been computed

 Transition Properties:   CPU 152.61 s  wall 29.77 s

Starting Projected CAP calculation.
Generating CAP matrix for 10 roots.
Performing Projected CAP-EOM calculation for B2g states.
Number of states: 10
Zeroth order Hamiltonian:
-7.83816414583103409e+01 0.00000000000000000e+00 0.00000000000000000e+00 0.00000000000000000e+00 0.00000000000000000e+00 0.00000000000000000e+00 0.00000000000000000e+00 0.00000000000000000e+00 0.00000000000000000e+00 0.00000000000000000e+00
0.00000000000000000e+00 -7.83564579485417170e+01 0.00000000000000000e+00 0.00000000000000000e+00 0.00000000000000000e+00 0.00000000000000000e+00 0.00000000000000000e+00 0.00000000000000000e+00 0.00000000000000000e+00 0.00000000000000000e+00
0.00000000000000000e+00 0.00000000000000000e+00 -7.83271742023177069e+01 0.00000000000000000e+00 0.00000000000000000e+00 0.00000000000000000e+00 0.00000000000000000e+00 0.00000000000000000e+00 0.00000000000000000e+00 0.00000000000000000e+00
0.00000000000000000e+00 0.00000000000000000e+00 0.00000000000000000e+00 -7.82972820203655289e+01 0.00000000000000000e+00 0.00000000000000000e+00 0.00000000000000000e+00 0.00000000000000000e+00 0.00000000000000000e+00 0.00000000000000000e+00
0.00000000000000000e+00 0.00000000000000000e+00 0.00000000000000000e+00 0.00000000000000000e+00 -7.82296834451607879e+01 0.00000000000000000e+00 0.00000000000000000e+00 0.00000000000000000e+00 0.00000000000000000e+00 0.00000000000000000e+00
0.00000000000000000e+00 0.00000000000000000e+00 0.00000000000000000e+00 0.00000000000000000e+00 0.00000000000000000e+00 -7.81538695636768352e+01 0.00000000000000000e+00 0.00000000000000000e+00 0.00000000000000000e+00 0.00000000000000000e+00
0.00000000000000000e+00 0.00000000000000000e+00 0.00000000000000000e+00 0.00000000000000000e+00 0.00000000000000000e+00 0.00000000000000000e+00 -7.81537028398551996e+01 0.00000000000000000e+00 0.00000000000000000e+00 0.00000000000000000e+00
0.00000000000000000e+00 0.00000000000000000e+00 0.00000000000000000e+00 0.00000000000000000e+00 0.00000000000000000e+00 0.00000000000000000e+00 0.00000000000000000e+00 -7.81467064596663192e+01 0.00000000000000000e+00 0.00000000000000000e+00
0.00000000000000000e+00 0.00000000000000000e+00 0.00000000000000000e+00 0.00000000000000000e+00 0.00000000000000000e+00 0.00000000000000000e+00 0.00000000000000000e+00 0.00000000000000000e+00 -7.81309735778116448e+01 0.00000000000000000e+00
0.00000000000000000e+00 0.00000000000000000e+00 0.00000000000000000e+00 0.00000000000000000e+00 0.00000000000000000e+00 0.00000000000000000e+00 0.00000000000000000e+00 0.00000000000000000e+00 0.00000000000000000e+00 -7.81294306882278420e+01
CAP matrix:
-4.71853594631182034e+01 2.93637975315221773e+01 -2.73209330159552977e+01 -2.27661839018525569e+01 -5.28934224973246536e+00 3.72697545708367342e-04 3.91207152520049783e-01 -4.81390679758107343e+00 6.53816817493270766e-04 -6.21263239403539003e-01
2.93741994956497550e+01 -4.30063504536784293e+01 2.01979141862673153e+01 4.61996491479311544e+00 -1.17146303490799291e+01 -1.34714163695204281e-04 -7.49196076399026634e-01 6.82604185657686813e+00 -2.13830079035415288e-04 3.32419967690598728e-01
-2.75138982395366298e+01 2.03358318629411308e+01 -2.74125852219033561e+01 -2.63768013963189425e+01 -3.60397815337553062e+00 3.93540969061079160e-04 1.09442190372789261e+00 -7.58898360803412331e+00 2.33004111550472182e-04 -2.96281614810872673e-03
-2.29197231273504052e+01 4.64714976750166997e+00 -2.63681654581541629e+01 -3.78880752627212445e+01 -1.99487716316482029e+01 -1.36176973673796109e-05 7.92619876378329868e-02 -7.03689047705582560e+00 1.70537593974134927e-03 -1.76117180856386857e+00
-5.29882447719314875e+00 -1.17335832565037688e+01 -3.59166381565928372e+00 -1.98471224335812586e+01 -3.21561880878009987e+01 -1.91348853278650033e-04 -3.59476262240771727e-01 4.41178845233249195e+00 2.09771639181455249e-04 -2.39147962471169429e-01
2.72431282183303695e-04 3.16939525196804905e-05 -3.49091126225276049e-04 3.10060097779701893e-04 2.54027890293495595e-05 -6.61905459645433609e+01 3.02129993704980393e-03 1.38680671827762225e-03 -1.20582640156327052e+01 -2.28817579223896672e-02
3.71863087062903275e-01 -7.08454446459706788e-01 1.03143985324980592e+00 7.90213331445917821e-02 -3.50145543617098431e-01 4.25313238963553886e-03 -6.59290871258147604e+01 -4.15796930799308839e+00 2.64946208362326630e-02 -1.48345023211947442e+01
-4.80837048023054514e+00 6.81732768787335974e+00 -7.52789937767099548e+00 -6.98144394744699959e+00 4.40153081998649487e+00 -5.80867537975926496e-05 -4.35968783357945888e+00 -1.74315379191426629e+01 6.19446953107338771e-04 1.75332904738159323e-01
2.84012035436195798e-04 5.14324777922126053e-05 1.44016169832950069e-05 6.69416679898227063e-04 6.57027955102640338e-04 -1.20455465250868770e+01 1.43682366632198466e-02 1.38447246114814515e-03 -3.76681974533299311e+01 -9.44696817831314206e-03
-5.96000202622203212e-01 3.11581013535306650e-01 6.76865280203514663e-03 -1.67576499104871224e+00 -2.67636473063242675e-01 -3.41138359359041132e-02 -1.48121864056322678e+01 1.59940669990650153e-01 -4.58536348664750903e-03 -4.03815202032221734e+01
Trajectory will be saved to B2g_traj.out
Done with B2g states.
 Trajectory ran in:   CPU 0.05 s  wall 0.00 s
Total Projected CAP Hamiltonian:
Number of states: 10
Zeroth order Hamiltonian:
-7.83816414583103409e+01 0.00000000000000000e+00 0.00000000000000000e+00 0.00000000000000000e+00 0.00000000000000000e+00 0.00000000000000000e+00 0.00000000000000000e+00 0.00000000000000000e+00 0.00000000000000000e+00 0.00000000000000000e+00
0.00000000000000000e+00 -7.83564579485417170e+01 0.00000000000000000e+00 0.00000000000000000e+00 0.00000000000000000e+00 0.00000000000000000e+00 0.00000000000000000e+00 0.00000000000000000e+00 0.00000000000000000e+00 0.00000000000000000e+00
0.00000000000000000e+00 0.00000000000000000e+00 -7.83271742023177069e+01 0.00000000000000000e+00 0.00000000000000000e+00 0.00000000000000000e+00 0.00000000000000000e+00 0.00000000000000000e+00 0.00000000000000000e+00 0.00000000000000000e+00
0.00000000000000000e+00 0.00000000000000000e+00 0.00000000000000000e+00 -7.82972820203655289e+01 0.00000000000000000e+00 0.00000000000000000e+00 0.00000000000000000e+00 0.00000000000000000e+00 0.00000000000000000e+00 0.00000000000000000e+00
0.00000000000000000e+00 0.00000000000000000e+00 0.00000000000000000e+00 0.00000000000000000e+00 -7.82296834451607879e+01 0.00000000000000000e+00 0.00000000000000000e+00 0.00000000000000000e+00 0.00000000000000000e+00 0.00000000000000000e+00
0.00000000000000000e+00 0.00000000000000000e+00 0.00000000000000000e+00 0.00000000000000000e+00 0.00000000000000000e+00 -7.81538695636768352e+01 0.00000000000000000e+00 0.00000000000000000e+00 0.00000000000000000e+00 0.00000000000000000e+00
0.00000000000000000e+00 0.00000000000000000e+00 0.00000000000000000e+00 0.00000000000000000e+00 0.00000000000000000e+00 0.00000000000000000e+00 -7.81537028398551996e+01 0.00000000000000000e+00 0.00000000000000000e+00 0.00000000000000000e+00
0.00000000000000000e+00 0.00000000000000000e+00 0.00000000000000000e+00 0.00000000000000000e+00 0.00000000000000000e+00 0.00000000000000000e+00 0.00000000000000000e+00 -7.81467064596663192e+01 0.00000000000000000e+00 0.00000000000000000e+00
0.00000000000000000e+00 0.00000000000000000e+00 0.00000000000000000e+00 0.00000000000000000e+00 0.00000000000000000e+00 0.00000000000000000e+00 0.00000000000000000e+00 0.00000000000000000e+00 -7.81309735778116448e+01 0.00000000000000000e+00
0.00000000000000000e+00 0.00000000000000000e+00 0.00000000000000000e+00 0.00000000000000000e+00 0.00000000000000000e+00 0.00000000000000000e+00 0.00000000000000000e+00 0.00000000000000000e+00 0.00000000000000000e+00 -7.81294306882278420e+01
CAP matrix:
-4.71853594631182034e+01 2.93637975315221773e+01 -2.73209330159552977e+01 -2.27661839018525569e+01 -5.28934224973246536e+00 3.72697545708367342e-04 3.91207152520049783e-01 -4.81390679758107343e+00 6.53816817493270766e-04 -6.21263239403539003e-01
2.93741994956497550e+01 -4.30063504536784293e+01 2.01979141862673153e+01 4.61996491479311544e+00 -1.17146303490799291e+01 -1.34714163695204281e-04 -7.49196076399026634e-01 6.82604185657686813e+00 -2.13830079035415288e-04 3.32419967690598728e-01
-2.75138982395366298e+01 2.03358318629411308e+01 -2.74125852219033561e+01 -2.63768013963189425e+01 -3.60397815337553062e+00 3.93540969061079160e-04 1.09442190372789261e+00 -7.58898360803412331e+00 2.33004111550472182e-04 -2.96281614810872673e-03
-2.29197231273504052e+01 4.64714976750166997e+00 -2.63681654581541629e+01 -3.78880752627212445e+01 -1.99487716316482029e+01 -1.36176973673796109e-05 7.92619876378329868e-02 -7.03689047705582560e+00 1.70537593974134927e-03 -1.76117180856386857e+00
-5.29882447719314875e+00 -1.17335832565037688e+01 -3.59166381565928372e+00 -1.98471224335812586e+01 -3.21561880878009987e+01 -1.91348853278650033e-04 -3.59476262240771727e-01 4.41178845233249195e+00 2.09771639181455249e-04 -2.39147962471169429e-01
2.72431282183303695e-04 3.16939525196804905e-05 -3.49091126225276049e-04 3.10060097779701893e-04 2.54027890293495595e-05 -6.61905459645433609e+01 3.02129993704980393e-03 1.38680671827762225e-03 -1.20582640156327052e+01 -2.28817579223896672e-02
3.71863087062903275e-01 -7.08454446459706788e-01 1.03143985324980592e+00 7.90213331445917821e-02 -3.50145543617098431e-01 4.25313238963553886e-03 -6.59290871258147604e+01 -4.15796930799308839e+00 2.64946208362326630e-02 -1.48345023211947442e+01
-4.80837048023054514e+00 6.81732768787335974e+00 -7.52789937767099548e+00 -6.98144394744699959e+00 4.40153081998649487e+00 -5.80867537975926496e-05 -4.35968783357945888e+00 -1.74315379191426629e+01 6.19446953107338771e-04 1.75332904738159323e-01
2.84012035436195798e-04 5.14324777922126053e-05 1.44016169832950069e-05 6.69416679898227063e-04 6.57027955102640338e-04 -1.20455465250868770e+01 1.43682366632198466e-02 1.38447246114814515e-03 -3.76681974533299311e+01 -9.44696817831314206e-03
-5.96000202622203212e-01 3.11581013535306650e-01 6.76865280203514663e-03 -1.67576499104871224e+00 -2.67636473063242675e-01 -3.41138359359041132e-02 -1.48121864056322678e+01 1.59940669990650153e-01 -4.58536348664750903e-03 -4.03815202032221734e+01
 Total ccman2 time:   CPU 1163.12 s  wall 186.55 s

 
 --------------------------------------------------------------
             Orbital Energies (a.u.) and Symmetries
 --------------------------------------------------------------
 
 Alpha MOs, Restricted
 -- Occupied --                  
-11.228 -11.226  -1.040  -0.781  -0.661  -0.568  -0.516  -0.377
  1 Ag    1 B3u   2 Ag    2 B3u   1 B2u   3 Ag    1 B1g   1 B1u                
 -- Virtual --                   
  0.010   0.010   0.011   0.016   0.016   0.018   0.031   0.033
  3 B3u   2 B2u   2 B1u   2 B1g   1 B2g   4 Ag    4 B3u   3 B2u                
  0.035   0.039   0.042   0.042   0.058   0.069   0.073   0.078
  3 B1u   5 Ag    3 B1g   2 B2g   6 Ag    5 B3u   4 B2u   4 B1u                
  0.082   0.085   0.094   0.129   0.131   0.134   0.142   0.142
  3 B2g   4 B1g   7 Ag    4 B2g   6 B3u   8 Ag    1 B3g   5 B2u                
  0.153   0.155   0.156   0.169   0.185   0.186   0.188   0.191
  5 B1u   5 B1g   9 Ag    7 B3u   6 B2u   8 B3u   5 B2g   1 Au                 
  0.197   0.239   0.241   0.243   0.258   0.273   0.293   0.299
  6 B1u   9 B3u  10 Ag    6 B1g   6 B2g   7 B2u  11 Ag    7 B1g                
  0.302   0.327   0.352   0.355   0.375   0.391   0.403   0.434
  7 B1u  12 Ag    7 B2g  10 B3u   8 B2u   2 B3g  11 B3u  13 Ag                 
  0.442   0.474   0.487   0.490   0.496   0.509   0.572   0.590
  9 B2u   8 B1g  12 B3u  14 Ag    2 Au    8 B1u  13 B3u   9 B1g                
  0.635   0.696   0.707   0.760   0.764   0.768   0.791   0.811
  8 B2g  10 B2u  14 B3u   9 B1u  15 Ag   11 B2u  10 B1g  16 Ag                 
  0.836   0.865   0.872   0.978   1.005   1.023   1.082   1.140
 15 B3u   9 B2g  17 Ag   16 B3u  11 B1g   3 B3g  10 B1u  18 Ag                 
  1.144   1.151   1.203   1.205   1.230   1.263   1.280   1.376
  3 Au   17 B3u  10 B2g  12 B2u  11 B1u   4 B3g  12 B1g  19 Ag                 
  1.423   1.506   1.521   1.553   1.624   1.664   1.684   1.735
 18 B3u  11 B2g  13 B2u  14 B2u  20 Ag   19 B3u   4 Au   13 B1g                
  1.864   2.004   2.030   2.102   2.579   2.736   2.746   2.761
 20 B3u  21 Ag   21 B3u  14 B1g  12 B1u  22 Ag   15 B2u  23 Ag                 
  2.781   2.803   2.901   2.919   2.996   2.997   3.071   3.105
 12 B2g  16 B2u  15 B1g  13 B1u   5 B3g  22 B3u  16 B1g  14 B1u                
  3.136   3.164   3.229   3.267   3.267   3.291   3.463   3.468
 17 B2u  24 Ag    5 Au   13 B2g   6 B3g  25 Ag   23 B3u  18 B2u                
  3.484   3.506   3.516   3.531   3.555   3.617   3.645   3.662
  6 Au   14 B2g  17 B1g  24 B3u  25 B3u  15 B1u   7 B3g  26 Ag                 
  3.798   3.824   3.980   4.008   4.025   4.030   4.061   4.066
 19 B2u  18 B1g  15 B2g  26 B3u  19 B1g  20 B2u  16 B1u  27 Ag                 
  4.118   4.222   4.288   4.299   4.350   4.355   4.368   4.596
  7 Au   27 B3u  28 Ag    8 B3g  20 B1g  16 B2g  17 B1u  28 B3u                
  4.616   4.666   4.705   4.797   4.856   4.947   5.050   5.089
 21 B2u   8 Au   29 Ag   29 B3u  17 B2g  18 B1u  30 Ag   21 B1g                
  5.166   5.224   5.314   5.366   5.427   5.483   5.543   5.677
 22 B2u   9 B3g  30 B3u  31 Ag    9 Au   22 B1g  18 B2g  23 B2u                
  5.724   6.111   6.187   6.319   6.666   6.898  12.927  15.370
 32 Ag   23 B1g  31 B3u  24 B2u  32 B3u  24 B1g  33 Ag   33 B3u                
 
 Beta MOs, Restricted
 -- Occupied --                  
-11.228 -11.226  -1.040  -0.781  -0.661  -0.568  -0.516  -0.377
  1 Ag    1 B3u   2 Ag    2 B3u   1 B2u   3 Ag    1 B1g   1 B1u                
 -- Virtual --                   
  0.010   0.010   0.011   0.016   0.016   0.018   0.031   0.033
  3 B3u   2 B2u   2 B1u   2 B1g   1 B2g   4 Ag    4 B3u   3 B2u                
  0.035   0.039   0.042   0.042   0.058   0.069   0.073   0.078
  3 B1u   5 Ag    3 B1g   2 B2g   6 Ag    5 B3u   4 B2u   4 B1u                
  0.082   0.085   0.094   0.129   0.131   0.134   0.142   0.142
  3 B2g   4 B1g   7 Ag    4 B2g   6 B3u   8 Ag    1 B3g   5 B2u                
  0.153   0.155   0.156   0.169   0.185   0.186   0.188   0.191
  5 B1u   5 B1g   9 Ag    7 B3u   6 B2u   8 B3u   5 B2g   1 Au                 
  0.197   0.239   0.241   0.243   0.258   0.273   0.293   0.299
  6 B1u   9 B3u  10 Ag    6 B1g   6 B2g   7 B2u  11 Ag    7 B1g                
  0.302   0.327   0.352   0.355   0.375   0.391   0.403   0.434
  7 B1u  12 Ag    7 B2g  10 B3u   8 B2u   2 B3g  11 B3u  13 Ag                 
  0.442   0.474   0.487   0.490   0.496   0.509   0.572   0.590
  9 B2u   8 B1g  12 B3u  14 Ag    2 Au    8 B1u  13 B3u   9 B1g                
  0.635   0.696   0.707   0.760   0.764   0.768   0.791   0.811
  8 B2g  10 B2u  14 B3u   9 B1u  15 Ag   11 B2u  10 B1g  16 Ag                 
  0.836   0.865   0.872   0.978   1.005   1.023   1.082   1.140
 15 B3u   9 B2g  17 Ag   16 B3u  11 B1g   3 B3g  10 B1u  18 Ag                 
  1.144   1.151   1.203   1.205   1.230   1.263   1.280   1.376
  3 Au   17 B3u  10 B2g  12 B2u  11 B1u   4 B3g  12 B1g  19 Ag                 
  1.423   1.506   1.521   1.553   1.624   1.664   1.684   1.735
 18 B3u  11 B2g  13 B2u  14 B2u  20 Ag   19 B3u   4 Au   13 B1g                
  1.864   2.004   2.030   2.102   2.579   2.736   2.746   2.761
 20 B3u  21 Ag   21 B3u  14 B1g  12 B1u  22 Ag   15 B2u  23 Ag                 
  2.781   2.803   2.901   2.919   2.996   2.997   3.071   3.105
 12 B2g  16 B2u  15 B1g  13 B1u   5 B3g  22 B3u  16 B1g  14 B1u                
  3.136   3.164   3.229   3.267   3.267   3.291   3.463   3.468
 17 B2u  24 Ag    5 Au   13 B2g   6 B3g  25 Ag   23 B3u  18 B2u                
  3.484   3.506   3.516   3.531   3.555   3.617   3.645   3.662
  6 Au   14 B2g  17 B1g  24 B3u  25 B3u  15 B1u   7 B3g  26 Ag                 
  3.798   3.824   3.980   4.008   4.025   4.030   4.061   4.066
 19 B2u  18 B1g  15 B2g  26 B3u  19 B1g  20 B2u  16 B1u  27 Ag                 
  4.118   4.222   4.288   4.299   4.350   4.355   4.368   4.596
  7 Au   27 B3u  28 Ag    8 B3g  20 B1g  16 B2g  17 B1u  28 B3u                
  4.616   4.666   4.705   4.797   4.856   4.947   5.050   5.089
 21 B2u   8 Au   29 Ag   29 B3u  17 B2g  18 B1u  30 Ag   21 B1g                
  5.166   5.224   5.314   5.366   5.427   5.483   5.543   5.677
 22 B2u   9 B3g  30 B3u  31 Ag    9 Au   22 B1g  18 B2g  23 B2u                
  5.724   6.111   6.187   6.319   6.666   6.898  12.927  15.370
 32 Ag   23 B1g  31 B3u  24 B2u  32 B3u  24 B1g  33 Ag   33 B3u                
 --------------------------------------------------------------
 
          Ground-State Mulliken Net Atomic Charges

     Atom                 Charge (a.u.)
  ----------------------------------------
      1 C                    -0.349372
      2 C                    -0.349372
      3 H                     0.174686
      4 H                     0.174686
      5 H                     0.174686
      6 H                     0.174686
  ----------------------------------------
  Sum of atomic charges =     0.000000

 -----------------------------------------------------------------
                    Cartesian Multipole Moments
 -----------------------------------------------------------------
    Charge (ESU x 10^10)
                 0.0000
    Dipole Moment (Debye)
         X      -0.0000      Y      -0.0000      Z       0.0000
       Tot       0.0000
    Quadrupole Moments (Debye-Ang)
        XX     -12.8319     XY       0.0000     YY     -11.9245
        XZ      -0.0000     YZ      -0.0000     ZZ     -16.1256
    Octopole Moments (Debye-Ang^2)
       XXX      -0.0000    XXY      -0.0000    XYY      -0.0000
       YYY      -0.0000    XXZ       0.0000    XYZ       0.0000
       YYZ       0.0000    XZZ      -0.0000    YZZ      -0.0000
       ZZZ       0.0000
    Hexadecapole Moments (Debye-Ang^3)
      XXXX     -67.9369   XXXY       0.0000   XXYY     -13.0892
      XYYY       0.0000   YYYY     -26.7725   XXXZ      -0.0000
      XXYZ      -0.0000   XYYZ      -0.0000   YYYZ      -0.0000
      XXZZ     -15.3982   XYZZ       0.0000   YYZZ      -9.0156
      XZZZ      -0.0000   YZZZ      -0.0000   ZZZZ     -21.4680
 -----------------------------------------------------------------
 Total job time:  218.83s(wall), 1235.74s(cpu) 
 Wed Apr  6 18:44:37 2022

        *************************************************************
        *                                                           *
        *  Thank you very much for using Q-Chem.  Have a nice day.  *
        *                                                           *
        *************************************************************


