/src/tsommerfeld/qchem/exe/qcprog.exe .input0.628205.1945.qcin.1 /src/jdavis/qchem.scratch/qchem1945/

                  Welcome to Q-Chem
     A Quantum Leap Into The Future Of Chemistry


 Q-Chem 5.4 (devel), Q-Chem, Inc., Pleasanton, CA (2021)

 E. Epifanovsky,  A. T. B. Gilbert,  Xintian Feng,  Joonho Lee,  Yuezhi Mao,  
 N. Mardirossian,  P. Pokhilko,  A. White,  M. Wormit,  M. P. Coons,  
 A. L. Dempwolff,  Zhengting Gan,  D. Hait,  P. R. Horn,  L. D. Jacobson,  
 I. Kaliman,  J. Kussmann,  A. W. Lange,  Ka Un Lao,  D. S. Levine,  Jie Liu,  
 S. C. McKenzie,  A. F. Morrison,  K. Nanda,  F. Plasser,  D. R. Rehn,  
 M. L. Vidal,  Zhi-Qiang You,  Ying Zhu,  B. Alam,  B. Albrecht,  
 A. Aldossary,  E. Alguire,  J. H. Andersen,  D. Barton,  K. Begam,  A. Behn,  
 Y. A. Bernard,  E. J. Berquist,  H. Burton,  A. Carreras,  K. Carter-Fenk,  
 R. Chakraborty,  A. D. Chien,  K. D. Closser,  V. Cofer-Shabica,  
 S. Dasgupta,  Jia Deng,  M. de Wergifosse,  M. Diedenhofen,  Hainam Do,  
 S. Ehlert,  Po-Tung Fang,  S. Fatehi,  Qingguo Feng,  T. Friedhoff,  
 J. Gayvert,  Qinghui Ge,  G. Gidofalvi,  M. Goldey,  J. Gomes,  
 C. Gonzalez-Espinoza,  S. Gulania,  A. Gunina,  M. W. D. Hanson-Heine,  
 P. H. P. Harbach,  A. W. Hauser,  M. F. Herbst,  M. Hernandez Vera,  
 M. Hodecker,  Z. C. Holden,  S. Houck,  Xunkun Huang,  Kerwin Hui,  
 B. C. Huynh,  M. Ivanov,  Hyunjun Ji,  Hanjie Jiang,  B. Kaduk,  S. Kaehler,  
 K. Khistyaev,  Jaehoon Kim,  P. Klunzinger,  Z. Koczor-Benda,  
 Joong Hoon Koh,  D. Kosenkov,  L. Koulias,  T. Kowalczyk,  C. M. Krauter,  
 K. Kue,  A. Kunitsa,  T. Kus,  A. Landau,  K. V. Lawler,  D. Lefrancois,  
 S. Lehtola,  Rain Li,  Yi-Pei Li,  Jiashu Liang,  M. Liebenthal,  
 Hung-Hsuan Lin,  You-Sheng Lin,  Fenglai Liu,  Kuan-Yu Liu,  
 M. Loipersberger,  A. Luenser,  A. Manjanath,  P. Manohar,  E. Mansoor,  
 S. F. Manzer,  Shan-Ping Mao,  A. V. Marenich,  T. Markovich,  S. Mason,  
 S. A. Maurer,  P. F. McLaughlin,  M. F. S. J. Menger,  J.-M. Mewes,  
 S. A. Mewes,  P. Morgante,  J. W. Mullinax,  K. J. Oosterbaan,  G. Paran,  
 Alexander C. Paul,  Suranjan K. Paul,  F. Pavosevic,  Zheng Pei,  S. Prager,  
 E. I. Proynov,  E. Ramos,  B. Rana,  A. E. Rask,  A. Rettig,  R. M. Richard,  
 F. Rob,  E. Rossomme,  T. Scheele,  M. Scheurer,  M. Schneider,  
 N. Sergueev,  S. M. Sharada,  W. Skomorowski,  D. W. Small,  C. J. Stein,  
 Yu-Chuan Su,  E. J. Sundstrom,  Zhen Tao,  J. Thirman,  T. Tsuchimochi,  
 N. M. Tubman,  S. P. Veccham,  O. Vydrov,  J. Wenzel,  J. Witte,  A. Yamada,  
 Kun Yao,  S. Yeganeh,  S. R. Yost,  A. Zech,  Igor Ying Zhang,  Xing Zhang,  
 Yu Zhang,  D. Zuev,  A. Aspuru-Guzik,  A. T. Bell,  N. A. Besley,  
 K. B. Bravaya,  B. R. Brooks,  D. Casanova,  Jeng-Da Chai,  S. Coriani,  
 C. J. Cramer,  A. E. DePrince, III,  R. A. DiStasio Jr.,  A. Dreuw,  
 B. D. Dunietz,  T. R. Furlani,  W. A. Goddard III,  S. Grimme,  
 S. Hammes-Schiffer,  T. Head-Gordon,  W. J. Hehre,  Chao-Ping Hsu,  
 T.-C. Jagau,  Yousung Jung,  A. Klamt,  Jing Kong,  D. S. Lambrecht,  
 WanZhen Liang,  N. J. Mayhall,  C. W. McCurdy,  J. B. Neaton,  
 C. Ochsenfeld,  J. A. Parkhill,  R. Peverati,  V. A. Rassolov,  Yihan Shao,  
 L. V. Slipchenko,  T. Stauch,  R. P. Steele,  J. E. Subotnik,  
 A. J. W. Thom,  A. Tkatchenko,  D. G. Truhlar,  T. Van Voorhis,  
 T. A. Wesolowski,  K. B. Whaley,  H. L. Woodcock III,  P. M. Zimmerman,  
 S. Faraji,  P. M. W. Gill,  M. Head-Gordon,  J. M. Herbert,  A. I. Krylov

 Additional authors for Version 5.4.1: 
 S. Kotaru,  Shaozhi Li,  Xiangyuan Li,  F. Matz,  A. Molle,  Haisheng Ren,  
 Yingli Su,  Hung-Yi Tsai,  C. Utku,  Fang Wang

 Contributors to earlier versions of Q-Chem not listed above: 
 R. D. Adamson,  B. Austin,  R. Baer,  J. Baker,  G. J. O. Beran,  
 K. Brandhorst,  S. T. Brown,  E. F. C. Byrd,  A. K. Chakraborty,  
 G. K. L. Chan,  Chun-Min Chang,  Yunqing Chen,  C.-L. Cheng,  
 Siu Hung Chien,  D. M. Chipman,  D. L. Crittenden,  H. Dachsel,  
 R. J. Doerksen,  A. D. Dutoi,  R. G. Edgar,  J. Fosso-Tande,  
 L. Fusti-Molnar,  D. Ghosh,  A. Ghysels,  A. Golubeva-Zadorozhnaya,  
 J. Gonthier,  M. S. Gordon,  S. R. Gwaltney,  G. Hawkins,  J. E. Herr,  
 A. Heyden,  S. Hirata,  E. G. Hohenstein,  G. Kedziora,  F. J. Keil,  
 C. Kelley,  Jihan Kim,  R. A. King,  R. Z. Khaliullin,  P. P. Korambath,  
 W. Kurlancheek,  A. Laurent,  A. M. Lee,  M. S. Lee,  S. V. Levchenko,  
 Ching Yeh Lin,  D. Liotard,  E. Livshits,  R. C. Lochan,  I. Lotan,  
 L. A. Martinez-Martinez,  P. E. Maslen,  N. Nair,  D. P. O'Neill,  
 D. Neuhauser,  E. Neuscamman,  C. M. Oana,  R. Olivares-Amaya,  R. Olson,  
 T. M. Perrine,  B. Peters,  P. A. Pieniazek,  A. Prociuk,  Y. M. Rhee,  
 J. Ritchie,  M. A. Rohrdanz,  E. Rosta,  N. J. Russ,  H. F. Schaefer III,  
 M. W. Schmidt,  N. E. Schultz,  S. Sharma,  N. Shenvi,  C. D. Sherrill,  
 A. C. Simmonett,  A. Sodt,  T. Stein,  D. Stuck,  K. S. Thanthiriwatte,  
 V. Vanovschi,  L. Vogt,  Tao Wang,  A. Warshel,  M. A. Watson,  
 C. F. Williams,  Q. Wu,  X. Xu,  Jun Yang,  W. Zhang,  Yan Zhao

 Please cite Q-Chem as follows:
 Y. Shao et al., Mol. Phys. 113, 184-215 (2015)
 DOI: 10.1080/00268976.2014.952696

 Q-Chem 5.4.1 for Intel X86 EM64T Linux

 Parts of Q-Chem use Armadillo 9.900.5 (Nocturnal Misbehaviour).
 http://arma.sourceforge.net/

 Q-Chem begins on Fri Feb 25 17:32:35 2022  

 Host: node01
0

     Scratch files written to /src/jdavis/qchem.scratch/qchem1945//
 Processing $rem in /src/tsommerfeld/qchem/config/preferences:
 Processing $rem in /home/jdavis/.qchemrc:

 Checking the input file for inconsistencies... 	...done.

--------------------------------------------------------------
User input:
--------------------------------------------------------------
$molecule
0 1
C        -0.6645000000    0.0000000000   -0.2082049804
C         0.6645000000    0.0000000000   -0.2082049804
H        -1.1590800000    0.0000000000    0.7541440196
H         1.1590800000    0.0000000000    0.7541440196
H        -1.1590800000    0.0000000000   -1.1705529804
H         1.1590800000    0.0000000000   -1.1705529804
$end

$rem
   METHOD adc(2)
   BASIS gen
   PURECART 11
   EA_STATES [0,0,10,0,0,0,0,0]
   scf_convergence 8
   ADC_DAVIDSON_MAXITER 120
   ADC_DAVIDSON_MAXSUBSPACE 200
   adc_nguess_singles 100
   THRESH 14
   S2THRESH 14
   adc_davidson_conv 5
   adc_davidson_thresh 14
   THREADS 10
   MEM_TOTAL 95000
   STATE_ANALYSIS TRUE
$end
$basis
C     1
S    10   1.00
      8.236000D+03           5.310000D-04
      1.235000D+03           4.108000D-03
      2.808000D+02           2.108700D-02
      7.927000D+01           8.185300D-02
      2.559000D+01           2.348170D-01
      8.997000D+00           4.344010D-01
      3.319000D+00           3.461290D-01
      9.059000D-01           3.937800D-02
      3.643000D-01          -8.983000D-03
      1.285000D-01           2.385000D-03
S    1   1.00
      9.059000D-01           1.000000D+00
S    10   1.00
      8.236000D+03          -1.130000D-04
      1.235000D+03          -8.780000D-04
      2.808000D+02          -4.540000D-03
      7.927000D+01          -1.813300D-02
      2.559000D+01          -5.576000D-02
      8.997000D+00          -1.268950D-01
      3.319000D+00          -1.703520D-01
      9.059000D-01           1.403820D-01
      3.643000D-01           5.986840D-01
      1.285000D-01           3.953890D-01
S    1   1.00
      1.285000D-01           1.000000D+00
P    1   1.00
      3.827000D-01           1.000000D+00
P    5   1.00
      1.871000D+01           1.403100D-02
      4.133000D+00           8.686600D-02
      1.200000D+00           2.902160D-01
      3.827000D-01           5.010080D-01
      1.209000D-01           3.434060D-01
P    1   1.00
      1.209000D-01           1.000000D+00
P   1   1.00
      0.0217      1.0000000
P   1   1.00
      0.01085      1.0000000
D    1   1.00
      1.097000D+00           1.000000D+00
D    1   1.00
      3.180000D-01           1.000000D+00
F    1   1.00
      7.610000D-01           1.0000000
****
C     2
S    10   1.00
      8.236000D+03           5.310000D-04
      1.235000D+03           4.108000D-03
      2.808000D+02           2.108700D-02
      7.927000D+01           8.185300D-02
      2.559000D+01           2.348170D-01
      8.997000D+00           4.344010D-01
      3.319000D+00           3.461290D-01
      9.059000D-01           3.937800D-02
      3.643000D-01          -8.983000D-03
      1.285000D-01           2.385000D-03
S    1   1.00
      9.059000D-01           1.000000D+00
S    10   1.00
      8.236000D+03          -1.130000D-04
      1.235000D+03          -8.780000D-04
      2.808000D+02          -4.540000D-03
      7.927000D+01          -1.813300D-02
      2.559000D+01          -5.576000D-02
      8.997000D+00          -1.268950D-01
      3.319000D+00          -1.703520D-01
      9.059000D-01           1.403820D-01
      3.643000D-01           5.986840D-01
      1.285000D-01           3.953890D-01
S    1   1.00
      1.285000D-01           1.000000D+00
P    1   1.00
      3.827000D-01           1.000000D+00
P    5   1.00
      1.871000D+01           1.403100D-02
      4.133000D+00           8.686600D-02
      1.200000D+00           2.902160D-01
      3.827000D-01           5.010080D-01
      1.209000D-01           3.434060D-01
P    1   1.00
      1.209000D-01           1.000000D+00
P   1   1.00
      0.0217      1.0000000
P   1   1.00
      0.01085      1.0000000
D    1   1.00
      1.097000D+00           1.000000D+00
D    1   1.00
      3.180000D-01           1.000000D+00
F    1   1.00
      7.610000D-01           1.0000000
****
H 3
cc-pVTZ
****
H 4
cc-pVTZ
****
H 5
cc-pVTZ
****
H 6
cc-pVTZ
****
$end
--------------------------------------------------------------
 Atom   2: ( -0.6645000000, -0.0000001250,  0.0000000000)
         ->( -0.6645000000,  0.0000001250, -0.0000000000)
 Atom   1: (  0.6645000000, -0.0000001250, -0.0000000000)
         ->(  0.6645000000,  0.0000000000,  0.0000000000)
 Atom   6: ( -1.1590800000, -0.9623481250, -0.0000000000)
         ->( -1.1590800000, -0.9623488750,  0.0000000000)
 Atom   5: (  1.1590800000, -0.9623481250, -0.0000000000)
         ->(  1.1590800000, -0.9623488750, -0.0000000000)
 ----------------------------------------------------------------
             Standard Nuclear Orientation (Angstroms)
    I     Atom           X                Y                Z
 ----------------------------------------------------------------
    1      C       0.6645000000     0.0000000000     0.0000000000
    2      C      -0.6645000000     0.0000001250    -0.0000000000
    3      H       1.1590800000     0.9623488750     0.0000000000
    4      H      -1.1590800000     0.9623488750     0.0000000000
    5      H       1.1590800000    -0.9623488750    -0.0000000000
    6      H      -1.1590800000    -0.9623488750     0.0000000000
 ----------------------------------------------------------------
 Molecular Point Group                 D2h   NOp =  8
 Largest Abelian Subgroup              D2h   NOp =  8
 Nuclear Repulsion Energy =          33.58921667 hartrees
 There are        8 alpha and        8 beta electrons
 Requested basis set is non-standard
 There are 48 shells and 128 basis functions
 Total memory of 95000 MB is distributed as follows: 
   MEM_STATIC is set to 192 MB
   QALLOC/CCMAN JOB total memory use is  94808 MB
 Warning: actual memory use might exceed 95000 MB

 Total QAlloc Memory Limit  95000 MB
 Mega-Array Size       188 MB
 MEM_STATIC part       192 MB

                       Distance Matrix (Angstroms)
             C (  1)   C (  2)   H (  3)   H (  4)   H (  5)
   C (  2)  1.329000
   H (  3)  1.082000  2.061931
   H (  4)  2.061931  1.082000  2.318160
   H (  5)  1.082000  2.061931  1.924698  3.013026
   H (  6)  2.061931  1.082000  3.013026  1.924698  2.318160
 
 A cutoff of  1.0D-14 yielded   1176 shell pairs
 There are      8432 function pairs (     10417 Cartesian)
 Smallest overlap matrix eigenvalue = 7.36E-04

 Scale SEOQF with 1.000000e-01/1.000000e-01/1.000000e-01

 Standard Electronic Orientation quadrupole field applied
 Nucleus-field energy     =     0.0000000006 hartrees
 ================ Generating on-the-fly SAD Guess ================
Attempting to make child job directory: /src/jdavis/qchem.scratch/qchem1945//Frg1/
Attempting to make child job directory: /src/jdavis/qchem.scratch/qchem1945//Frg2/
Creating input file /src/jdavis/qchem.scratch/qchem1945/Frg1.input
using default PutDataFrgm: nothing
calling putenv with: QCSCRATCH=/src/jdavis/qchem.scratch/qchem1945/ 
Spawning Job For Fragment 0
Done Job For Fragment 0
calling putenv with: QCSCRATCH=/src/jdavis/qchem.scratch 
calling putenv with: QCTHREADS=1 
Creating input file /src/jdavis/qchem.scratch/qchem1945/Frg2.input
using default PutDataFrgm: nothing
calling putenv with: QCSCRATCH=/src/jdavis/qchem.scratch/qchem1945/ 
Spawning Job For Fragment 1
Done Job For Fragment 1
calling putenv with: QCSCRATCH=/src/jdavis/qchem.scratch 
calling putenv with: QCTHREADS=1 
 Time for running child jobs:  CPU 1.75 s  wall 53.76 s
 ============= Method Specific SAD Guess Constructed =============
 Guess from on-the-fly superposition of atomic densities
 Warning: Energy on first SCF cycle will be non-variational
 A restricted Hartree-Fock SCF calculation will be
 performed using Pulay DIIS extrapolation
 SCF converges when DIIS error is below 1.0E-08
 using 10 threads for integral computing
 -------------------------------------------------------
 OpenMP Integral computing Module                
 Release: version 1.0, May 2013, Q-Chem Inc. Pittsburgh 
 -------------------------------------------------------
 ---------------------------------------
  Cycle       Energy         DIIS Error
 ---------------------------------------
    1     -78.4647155816      3.89E-02
    2     -78.0360689197      2.90E-03
    3     -78.0577276084      7.92E-04
    4     -78.0595103205      2.78E-04
    5     -78.0597187337      3.02E-05
    6     -78.0597233108      6.22E-06
    7     -78.0597235739      1.66E-06
    8     -78.0597235972      1.74E-07
    9     -78.0597236006      2.19E-08
   10     -78.0597236010      2.32E-09 Convergence criterion met
 ---------------------------------------
 SCF time:  CPU 15.56 s  wall 1.56 s
 SCF   energy in the final basis set = -78.05972360
 Total energy in the final basis set = -78.05972360
================================================================================
|                                                                              |
|                                 A D C  M A N                                 |
|                                                                              |
 ------------------------------------------------------------------------------ 
|                                                                              |
| Components:                                                                  |
|                                                                              |
| - libvmm - 1.3-trunk                                                         |
|   Authors:                                                                   |
|   Evgeny Epifanovsky, Ilya Kaliman                                           |
|                                                                              |
| - libtensor - 2.5-trunk                                                      |
|   Authors:                                                                   |
|   Evgeny Epifanovsky, Michael Wormit, Dmitry Zuev, Sam Manzer,               |
|   Ilya Kaliman                                                               |
|                                                                              |
| - libwfa - 1.1-trunk                                                         |
|   Authors:                                                                   |
|   Felix Plasser, Stefanie Mewes (Baeppler), Benjamin Thomitzni,              |
|   Michael Wormit, Feng Chen, Anna I. Krylov, Pavel Pokhilko                  |
|                                                                              |
| - libadc - 1.1-trunk                                                         |
|   Authors:                                                                   |
|   Michael Wormit, Adrian L. Dempwolff, Philipp H. P. Harbach,                |
|   Caroline Krauter, Dirk Rehn, Matthias Schneider, Jan Wenzel                |
|                                                                              |
| - adcman - 2.6-trunk                                                         |
|   Authors:                                                                   |
|   Michael Wormit, Adrian L. Dempwolff, Philipp H. P. Harbach,                |
|   Caroline Krauter, Daniel Lefrancois, Jan-Michael Mewes, Dirk Rehn,         |
|   Matthias Schneider, Jan Wenzel, Andreas Dreuw                              |
|                                                                              |
| Authors of earlier versions of ADCMAN:                                       |
| Andreas Dreuw, Jan Hendrik Starcke, Dirk Rehn, Michael Wormit                |
|                                                                              |
================================================================================

 
 Alpha MOs, Restricted
 -- Occupied --                  
-11.228 -11.226  -1.039  -0.781  -0.660  -0.567  -0.516  -0.377
  1 Ag    1 B3u   2 Ag    2 B3u   1 B2u   3 Ag    1 B1g   1 B1u                
 -- Virtual --                   
  0.022   0.022   0.024   0.032   0.033   0.040   0.086   0.087
  2 B2u   3 B3u   2 B1u   2 B1g   1 B2g   4 Ag    3 B2u   4 B3u                
  0.092   0.095   0.099   0.101   0.176   0.182   0.269   0.275
  2 B2g   5 Ag    3 B1u   3 B1g   6 Ag    3 B2g   4 B2u   5 B3u                
  0.317   0.367   0.386   0.487   0.506   0.530   0.594   0.613
  4 B1g   6 B3u   7 Ag    5 B2u   8 Ag    4 B1u   7 B3u   4 B2g                
  0.634   0.641   0.666   0.677   0.744   0.800   0.828   0.897
  9 Ag    6 B2u   1 B3g   8 B3u   5 B1g   9 B3u   1 Au    5 B1u                
  0.904   0.991   1.021   1.039   1.185   1.189   1.254   1.259
  6 B1g  10 Ag    7 B1g   7 B2u   6 B1u   5 B2g   2 B3g  11 Ag                 
  1.333   1.373   1.375   1.478   1.481   1.514   1.544   1.635
 10 B3u   6 B2g   8 B2u  11 B3u   9 B2u  12 Ag   12 B3u   2 Au                 
  1.640   1.830   1.854   1.968   2.296   2.416   2.556   2.579
  8 B1g  13 B3u  13 Ag    9 B1g  14 Ag    7 B1u  15 Ag    7 B2g                
  2.648   2.710   2.761   2.762   2.848   2.915   3.064   3.098
 10 B2u  11 B2u   8 B1u  14 B3u  10 B1g   3 B3g  11 B1g   9 B1u                
  3.105   3.120   3.124   3.152   3.178   3.237   3.273   3.338
  4 B3g  16 Ag   12 B2u   3 Au   17 Ag    8 B2g  15 B3u  13 B2u                
  3.404   3.426   3.426   3.456   3.470   3.550   3.582   3.641
  9 B2g  16 B3u   4 Au   17 B3u  12 B1g  10 B1u  18 Ag    5 B3g                
  3.743   3.814   3.883   3.919   3.972   3.977   4.013   4.015
 14 B2u  13 B1g  18 B3u  14 B1g  10 B2g   5 Au   15 B2u  19 Ag                 
  4.058   4.187   4.191   4.201   4.202   4.330   4.351   4.472
 11 B1u  19 B3u  15 B1g  20 Ag    6 B3g  12 B1u  11 B2g  16 B2u                
  4.520   4.606   4.647   4.757   4.813   4.930   4.975   5.043
 20 B3u   6 Au   21 Ag   21 B3u  12 B2g  13 B1u  22 Ag   16 B1g                
  5.142   5.216   5.301   5.306   5.426   5.452   5.538   5.563
 17 B2u   7 B3g  23 Ag   22 B3u   7 Au   17 B1g  13 B2g  24 Ag                 
  5.626   5.960   6.095   6.273   6.537   6.874  11.904  14.801
 18 B2u  23 B3u  18 B1g  19 B2u  24 B3u  19 B1g  25 Ag   25 B3u                
 
 Beta MOs, Restricted
 -- Occupied --                  
-11.228 -11.226  -1.039  -0.781  -0.660  -0.567  -0.516  -0.377
  1 Ag    1 B3u   2 Ag    2 B3u   1 B2u   3 Ag    1 B1g   1 B1u                
 -- Virtual --                   
  0.022   0.022   0.024   0.032   0.033   0.040   0.086   0.087
  2 B2u   3 B3u   2 B1u   2 B1g   1 B2g   4 Ag    3 B2u   4 B3u                
  0.092   0.095   0.099   0.101   0.176   0.182   0.269   0.275
  2 B2g   5 Ag    3 B1u   3 B1g   6 Ag    3 B2g   4 B2u   5 B3u                
  0.317   0.367   0.386   0.487   0.506   0.530   0.594   0.613
  4 B1g   6 B3u   7 Ag    5 B2u   8 Ag    4 B1u   7 B3u   4 B2g                
  0.634   0.641   0.666   0.677   0.744   0.800   0.828   0.897
  9 Ag    6 B2u   1 B3g   8 B3u   5 B1g   9 B3u   1 Au    5 B1u                
  0.904   0.991   1.021   1.039   1.185   1.189   1.254   1.259
  6 B1g  10 Ag    7 B1g   7 B2u   6 B1u   5 B2g   2 B3g  11 Ag                 
  1.333   1.373   1.375   1.478   1.481   1.514   1.544   1.635
 10 B3u   6 B2g   8 B2u  11 B3u   9 B2u  12 Ag   12 B3u   2 Au                 
  1.640   1.830   1.854   1.968   2.296   2.416   2.556   2.579
  8 B1g  13 B3u  13 Ag    9 B1g  14 Ag    7 B1u  15 Ag    7 B2g                
  2.648   2.710   2.761   2.762   2.848   2.915   3.064   3.098
 10 B2u  11 B2u   8 B1u  14 B3u  10 B1g   3 B3g  11 B1g   9 B1u                
  3.105   3.120   3.124   3.152   3.178   3.237   3.273   3.338
  4 B3g  16 Ag   12 B2u   3 Au   17 Ag    8 B2g  15 B3u  13 B2u                
  3.404   3.426   3.426   3.456   3.470   3.550   3.582   3.641
  9 B2g  16 B3u   4 Au   17 B3u  12 B1g  10 B1u  18 Ag    5 B3g                
  3.743   3.814   3.883   3.919   3.972   3.977   4.013   4.015
 14 B2u  13 B1g  18 B3u  14 B1g  10 B2g   5 Au   15 B2u  19 Ag                 
  4.058   4.187   4.191   4.201   4.202   4.330   4.351   4.472
 11 B1u  19 B3u  15 B1g  20 Ag    6 B3g  12 B1u  11 B2g  16 B2u                
  4.520   4.606   4.647   4.757   4.813   4.930   4.975   5.043
 20 B3u   6 Au   21 Ag   21 B3u  12 B2g  13 B1u  22 Ag   16 B1g                
  5.142   5.216   5.301   5.306   5.426   5.452   5.538   5.563
 17 B2u   7 B3g  23 Ag   22 B3u   7 Au   17 B1g  13 B2g  24 Ag                 
  5.626   5.960   6.095   6.273   6.537   6.874  11.904  14.801
 18 B2u  23 B3u  18 B1g  19 B2u  24 B3u  19 B1g  25 Ag   25 B3u                

--------------------------------------------------------------------------------
                                   HF Summary                                   
--------------------------------------------------------------------------------
  Energy:                                                  -78.0597236010 a.u.
  Dip. moment [a.u.]:                  [   0.000000,   -0.000000,   -0.000000]
  Total dipole [Debye]:                                               0.000001
  <r^2> [a.u.]:                        [  47.679086,   22.101084,   11.966249]
  Total <r^2> [a.u.]:                                                81.746420
--------------------------------------------------------------------------------

--------------------------------------------------------------------------------
                                 MP(2) Summary                                  
--------------------------------------------------------------------------------
  MP energy contribution:                                   -0.3668819280 a.u.
  Total energy:                                            -78.4266055290 a.u.
  Dip. moment [a.u.]:                  [   0.000000,   -0.000000,    0.000000]
  Total dipole [Debye]:                                               0.000000
  <r^2> [a.u.]:                        [  47.649313,   21.993095,   11.729234]
  Total <r^2> [a.u.]:                                                81.371643

  Density matrix analysis:
  ------------------------
  NOs (alpha)
    Occupation of frontier NOs:
       0.0226   0.9661
    Number of electrons:  8.000000
  NOs (beta)
    Occupation of frontier NOs:
       0.0226   0.9661
    Number of electrons:  8.000000
  NOs (spin-traced)
    Occupation of frontier NOs:
       0.0452   1.9322
    Number of electrons: 16.000000
    Number of unpaired electrons: n_u =  0.45259, n_u,nl =  0.05287
    NO participation ratio (PR_NO): 14.820030
  
  
  Mulliken Population Analysis
  Atom  Charge (e)    Spin (e)  h+ (alpha)   h+ (beta)  e- (alpha)   e- (beta)
  ----------------------------------------------------------------------------
   1 C   -0.314337    0.000000    0.043825    0.043825   -0.060170   -0.060170
   2 C   -0.314337    0.000000    0.043825    0.043825   -0.060170   -0.060170
   3 H    0.157164    0.000000    0.012955    0.012955   -0.004783   -0.004783
   4 H    0.157191    0.000000    0.012956    0.012956   -0.004784   -0.004784
   5 H    0.157173    0.000000    0.012956    0.012956   -0.004784   -0.004784
   6 H    0.157146   -0.000000    0.012955    0.012955   -0.004783   -0.004783
  ----------------------------------------------------------------------------
  Sum:    0.000000    0.000000    0.139473    0.139473   -0.139473   -0.139473
  
  Multipole moment analysis of the density matrix
    Molecular charge:                      0.000000
    Number of electrons:                   16.000000
      Center of electronic charge [Ang]: [ -0.000000,   0.000000,  -0.000000]
    Total nuclear charge:                  16.000000
      Center of nuclear charge [Ang]:    [  0.000000,   0.000000,   0.000000]
    Dipole moment [D]:                     0.000000
      Cartesian components [D]:          [  0.000000,  -0.000000,   0.000000]
    RMS size of the density [Ang]:         1.193377
      Cartesian components [Ang]:        [  0.913207,   0.620418,   0.453081]
  
  Exciton analysis of the difference density matrix
  Total:
    <r_h> [Ang]:                  [ -0.000000,   0.000000,   0.000000]
    <r_e> [Ang]:                  [ -0.000000,  -0.000000,  -0.000000]
    |<r_e - r_h>| [Ang]:            0.000001
    Hole size [Ang]:                1.446535
      Cartesian components [Ang]: [  0.971310,   0.750051,   0.765797]
    Electron size [Ang]:            1.310051
      Cartesian components [Ang]: [  0.955801,   0.673920,   0.590347]
  
  Alpha spin:
    <r_h> [Ang]:                  [ -0.000000,   0.000000,   0.000000]
    <r_e> [Ang]:                  [ -0.000000,  -0.000000,  -0.000000]
    |<r_e - r_h>| [Ang]:            0.000001
    Hole size [Ang]:                1.446535
      Cartesian components [Ang]: [  0.971310,   0.750051,   0.765797]
    Electron size [Ang]:            1.310051
      Cartesian components [Ang]: [  0.955801,   0.673920,   0.590347]
  
  Beta spin:
    <r_h> [Ang]:                  [ -0.000000,   0.000000,   0.000000]
    <r_e> [Ang]:                  [ -0.000000,  -0.000000,  -0.000000]
    |<r_e - r_h>| [Ang]:            0.000001
    Hole size [Ang]:                1.446535
      Cartesian components [Ang]: [  0.971310,   0.750051,   0.765797]
    Electron size [Ang]:            1.310051
      Cartesian components [Ang]: [  0.955801,   0.673920,   0.590347]
--------------------------------------------------------------------------------
Less particle guess vectors found than requested: 13 (found), 100 (requested).
Adjusting number of hole-2particle guess vectors to 87.
  Starting Davidson for electron-attached states of irrep B2g ... 
--------------------------------------------------------------------------------
   It NVec Conv  Avg. Norm  Max. Norm  Conv. states           Remark
--------------------------------------------------------------------------------
       100    0  4.603e-02  4.357e-01  0.0330 n n n n n n n n Guess.
    1  110    6  4.960e-04  3.645e-03  0.0326 n n n y y y y y 
    2  120   10  5.468e-07  3.900e-06  0.0326 y y y y y y y y Converged.
--------------------------------------------------------------------------------
  Davidson Summary: 
 ------------------------------------------------------------
  State  0: electron attachment energy =   0.0326 a.u.   (converged)
  State  1: electron attachment energy =   0.0702 a.u.   (converged)
  State  2: electron attachment energy =   0.1323 a.u.   (converged)
  State  3: electron attachment energy =   0.4313 a.u.   (converged)
  State  4: electron attachment energy =   0.4313 a.u.   (converged)
  State  5: electron attachment energy =   0.4346 a.u.   (converged)
  State  6: electron attachment energy =   0.4346 a.u.   (converged)
  State  7: electron attachment energy =   0.4397 a.u.   (converged)
  State  8: electron attachment energy =   0.4397 a.u.   (converged)
  State  9: electron attachment energy =   0.4931 a.u.   (converged)
 ------------------------------------------------------------


--------------------------------------------------------------------------------
                        Electron-Attached State Summary
--------------------------------------------------------------------------------

  Electron-attached state 1 (B2g)                                  [converged]
  ----------------------------------------------------------------------------
  Term symbol:  1 (2) B2g                                   R^2 =  3.78579e-07

  Total energy:                                            -78.3939736839 a.u.
  Electron attachment energy:                                      0.887958 eV

  Pole strength:                                                      0.999117

  Dip. moment [a.u.]:                  [   0.000000,   -0.000000,    0.000000]
  Total dipole [Debye]:                                               0.000001
  <r^2> [a.u.]:                        [ 131.461310,   49.719216,   94.826835]
  Total <r^2> [a.u.]:                                               276.007360

  V1^2 = 0.9993, V2^2 = 0.0007

  Important amplitudes:
       occ i       vir a        vir b           v   
    -------------------------------------------------
                               1 (B2g) B     -0.9984
                               2 (B2g) B     -0.0401
    -------------------------------------------------

  Density matrix analysis:
  ------------------------
  NOs (alpha)
    Occupation of frontier NOs:
       0.0226   0.9660
    Number of electrons:  8.000000
  NOs (beta)
    Occupation of frontier NOs:
       0.0228   0.9660
    Number of electrons:  9.000000
  NOs (spin-traced)
    Occupation of frontier NOs:
       0.0453   0.9994
    Number of electrons: 17.000000
    Number of unpaired electrons: n_u =  1.45359, n_u,nl =  1.05311
    NO participation ratio (PR_NO):  2.086410
  
  
  Mulliken Population Analysis
  Atom  Charge (e)    Spin (e)  h+ (alpha)   h+ (beta)  e- (alpha)   e- (beta)
  ----------------------------------------------------------------------------
   1 C   -0.810967    0.500789    0.001603    0.001705    0.000476   -0.500415
   2 C   -0.810967    0.500789    0.001603    0.001705    0.000476   -0.500415
   3 H    0.155479   -0.000394   -0.000079    0.000092   -0.000960   -0.000738
   4 H    0.155506   -0.000394   -0.000079    0.000092   -0.000960   -0.000738
   5 H    0.155489   -0.000394   -0.000079    0.000092   -0.000960   -0.000738
   6 H    0.155462   -0.000394   -0.000079    0.000092   -0.000960   -0.000738
  ----------------------------------------------------------------------------
  Sum:   -1.000000    1.000000    0.002890    0.003780   -0.002890   -1.003780
  
  Multipole moment analysis of the density matrix
    Molecular charge:                      -1.000000
    Number of electrons:                   17.000000
      Center of electronic charge [Ang]: [ -0.000000,   0.000000,  -0.000000]
    Total nuclear charge:                  16.000000
      Center of nuclear charge [Ang]:    [  0.000000,   0.000000,   0.000000]
    Dipole moment [D]:                     0.000001
      Cartesian components [D]:          [  0.000000,  -0.000001,   0.000000]
    RMS size of the density [Ang]:         2.132244
      Cartesian components [Ang]:        [  1.471552,   0.904980,   1.249805]
  
  Exciton analysis of the difference density matrix
  Total:
    <r_h> [Ang]:                  [ -0.000000,  -0.000000,   0.000000]
    <r_e> [Ang]:                  [  0.000000,   0.000000,  -0.000000]
    |<r_e - r_h>| [Ang]:            0.000001
    Hole size [Ang]:                2.304210
      Cartesian components [Ang]: [  1.402874,   1.156552,   1.415527]
    Electron size [Ang]:            7.360545
      Cartesian components [Ang]: [  4.829834,   2.778763,   4.809241]
  
  Alpha spin:
    <r_h> [Ang]:                  [ -0.000000,  -0.000001,  -0.000000]
    <r_e> [Ang]:                  [ -0.000000,  -0.000000,   0.000000]
    |<r_e - r_h>| [Ang]:            0.000000
    Hole size [Ang]:                1.675231
      Cartesian components [Ang]: [  1.177843,   0.921302,   0.755173]
    Electron size [Ang]:            2.151931
      Cartesian components [Ang]: [  1.289564,   1.470630,   0.897263]
  
  Beta spin:
    <r_h> [Ang]:                  [ -0.000000,  -0.000000,   0.000000]
    <r_e> [Ang]:                  [  0.000000,   0.000000,  -0.000000]
    |<r_e - r_h>| [Ang]:            0.000001
    Hole size [Ang]:                2.687552
      Cartesian components [Ang]: [  1.553073,   1.308172,   1.760564]
    Electron size [Ang]:            7.370228
      Cartesian components [Ang]: [  4.836286,   2.781641,   4.815918]
  ----------------------------------------------------------------------------


  Electron-attached state 2 (B2g)                                  [converged]
  ----------------------------------------------------------------------------
  Term symbol:  2 (2) B2g                                   R^2 =  3.79521e-06

  Total energy:                                            -78.3563984735 a.u.
  Electron attachment energy:                                      1.910431 eV

  Pole strength:                                                      0.956681

  Dip. moment [a.u.]:                  [   0.000000,   -0.000000,   -0.000000]
  Total dipole [Debye]:                                               0.000001
  <r^2> [a.u.]:                        [  71.721145,   30.449066,   34.369747]
  Total <r^2> [a.u.]:                                               136.539959

  V1^2 = 0.9668, V2^2 = 0.0332

  Important amplitudes:
       occ i       vir a        vir b           v   
    -------------------------------------------------
                               2 (B2g) B      0.9049
                               3 (B2g) B      0.3771
    -------------------------------------------------

  Density matrix analysis:
  ------------------------
  NOs (alpha)
    Occupation of frontier NOs:
       0.0192   0.9641
    Number of electrons:  8.000000
  NOs (beta)
    Occupation of frontier NOs:
       0.0231   0.9718
    Number of electrons:  9.000000
  NOs (spin-traced)
    Occupation of frontier NOs:
       0.0335   0.9875
    Number of electrons: 17.000000
    Number of unpaired electrons: n_u =  1.46935, n_u,nl =  1.05342
    NO participation ratio (PR_NO):  2.182779
  
  
  Mulliken Population Analysis
  Atom  Charge (e)    Spin (e)  h+ (alpha)   h+ (beta)  e- (alpha)   e- (beta)
  ----------------------------------------------------------------------------
   1 C   -0.732276    0.526058    0.071466    0.053835   -0.017406   -0.525834
   2 C   -0.732276    0.526058    0.071466    0.053835   -0.017406   -0.525834
   3 H    0.116134   -0.013028    0.001044    0.008025   -0.028073   -0.022026
   4 H    0.116158   -0.013030    0.001043    0.008025   -0.028075   -0.022026
   5 H    0.116142   -0.013030    0.001044    0.008025   -0.028074   -0.022026
   6 H    0.116118   -0.013028    0.001045    0.008026   -0.028073   -0.022026
  ----------------------------------------------------------------------------
  Sum:   -1.000000    1.000000    0.147107    0.139772   -0.147107   -1.139772
  
  Multipole moment analysis of the density matrix
    Molecular charge:                      -1.000000
    Number of electrons:                   17.000000
      Center of electronic charge [Ang]: [ -0.000000,   0.000000,   0.000000]
    Total nuclear charge:                  16.000000
      Center of nuclear charge [Ang]:    [  0.000000,   0.000000,   0.000000]
    Dipole moment [D]:                     0.000001
      Cartesian components [D]:          [  0.000000,  -0.000001,  -0.000000]
    RMS size of the density [Ang]:         1.499707
      Cartesian components [Ang]:        [  1.086927,   0.708213,   0.752428]
  
  Exciton analysis of the difference density matrix
  Total:
    <r_h> [Ang]:                  [ -0.000000,  -0.000000,  -0.000000]
    <r_e> [Ang]:                  [ -0.000000,  -0.000000,   0.000000]
    |<r_e - r_h>| [Ang]:            0.000000
    Hole size [Ang]:                1.519068
      Cartesian components [Ang]: [  1.045832,   0.766813,   0.791076]
    Electron size [Ang]:            3.538248
      Cartesian components [Ang]: [  2.341352,   1.403967,   2.250810]
  
  Alpha spin:
    <r_h> [Ang]:                  [ -0.000000,  -0.000000,  -0.000000]
    <r_e> [Ang]:                  [ -0.000000,  -0.000000,   0.000000]
    |<r_e - r_h>| [Ang]:            0.000000
    Hole size [Ang]:                1.451725
      Cartesian components [Ang]: [  1.018921,   0.733091,   0.729303]
    Electron size [Ang]:            2.199217
      Cartesian components [Ang]: [  1.421739,   1.273679,   1.092225]
  
  Beta spin:
    <r_h> [Ang]:                  [ -0.000000,  -0.000001,  -0.000000]
    <r_e> [Ang]:                  [ -0.000000,  -0.000000,   0.000000]
    |<r_e - r_h>| [Ang]:            0.000000
    Hole size [Ang]:                1.586862
      Cartesian components [Ang]: [  1.073427,   0.800772,   0.851263]
    Electron size [Ang]:            3.675701
      Cartesian components [Ang]: [  2.434867,   1.419912,   2.359248]
  ----------------------------------------------------------------------------


  Electron-attached state 3 (B2g)                                  [converged]
  ----------------------------------------------------------------------------
  Term symbol:  3 (2) B2g                                   R^2 =  3.89981e-06

  Total energy:                                            -78.2942702880 a.u.
  Electron attachment energy:                                      3.601025 eV

  Pole strength:                                                      0.959124

  Dip. moment [a.u.]:                  [   0.000000,   -0.000000,   -0.000000]
  Total dipole [Debye]:                                               0.000001
  <r^2> [a.u.]:                        [  77.436178,   32.326489,   40.405748]
  Total <r^2> [a.u.]:                                               150.168415

  V1^2 = 0.9672, V2^2 = 0.0328

  Important amplitudes:
       occ i       vir a        vir b           v   
    -------------------------------------------------
                               3 (B2g) B     -0.8901
                               2 (B2g) B      0.4101
    -------------------------------------------------

  Density matrix analysis:
  ------------------------
  NOs (alpha)
    Occupation of frontier NOs:
       0.0218   0.9611
    Number of electrons:  8.000000
  NOs (beta)
    Occupation of frontier NOs:
       0.0274   0.9713
    Number of electrons:  9.000000
  NOs (spin-traced)
    Occupation of frontier NOs:
       0.0408   0.9842
    Number of electrons: 17.000000
    Number of unpaired electrons: n_u =  1.48062, n_u,nl =  1.05788
    NO participation ratio (PR_NO):  2.228300
  
  
  Mulliken Population Analysis
  Atom  Charge (e)    Spin (e)  h+ (alpha)   h+ (beta)  e- (alpha)   e- (beta)
  ----------------------------------------------------------------------------
   1 C   -0.725851    0.507048    0.068322    0.048445   -0.020555   -0.507726
   2 C   -0.725851    0.507048    0.068322    0.048445   -0.020555   -0.507726
   3 H    0.112921   -0.003523    0.000973    0.002030   -0.024856   -0.022390
   4 H    0.112945   -0.003525    0.000972    0.002030   -0.024857   -0.022390
   5 H    0.112930   -0.003525    0.000972    0.002030   -0.024856   -0.022390
   6 H    0.112906   -0.003523    0.000974    0.002031   -0.024855   -0.022390
  ----------------------------------------------------------------------------
  Sum:   -1.000000    1.000000    0.140535    0.105012   -0.140535   -1.105012
  
  Multipole moment analysis of the density matrix
    Molecular charge:                      -1.000000
    Number of electrons:                   17.000000
      Center of electronic charge [Ang]: [ -0.000000,   0.000000,   0.000000]
    Total nuclear charge:                  16.000000
      Center of nuclear charge [Ang]:    [  0.000000,   0.000000,   0.000000]
    Dipole moment [D]:                     0.000001
      Cartesian components [D]:          [  0.000000,  -0.000001,  -0.000000]
    RMS size of the density [Ang]:         1.572773
      Cartesian components [Ang]:        [  1.129402,   0.729719,   0.815827]
  
  Exciton analysis of the difference density matrix
  Total:
    <r_h> [Ang]:                  [ -0.000000,  -0.000001,  -0.000000]
    <r_e> [Ang]:                  [ -0.000000,  -0.000000,   0.000000]
    |<r_e - r_h>| [Ang]:            0.000001
    Hole size [Ang]:                1.325819
      Cartesian components [Ang]: [  0.968275,   0.680007,   0.598189]
    Electron size [Ang]:            3.976641
      Cartesian components [Ang]: [  2.623285,   1.553818,   2.552979]
  
  Alpha spin:
    <r_h> [Ang]:                  [ -0.000000,  -0.000001,  -0.000000]
    <r_e> [Ang]:                  [ -0.000000,  -0.000000,   0.000000]
    |<r_e - r_h>| [Ang]:            0.000000
    Hole size [Ang]:                1.355374
      Cartesian components [Ang]: [  0.970504,   0.676385,   0.661561]
    Electron size [Ang]:            2.155273
      Cartesian components [Ang]: [  1.412636,   1.236154,   1.059047]
  
  Beta spin:
    <r_h> [Ang]:                  [ -0.000000,  -0.000001,  -0.000000]
    <r_e> [Ang]:                  [ -0.000000,   0.000000,   0.000000]
    |<r_e - r_h>| [Ang]:            0.000001
    Hole size [Ang]:                1.285203
      Cartesian components [Ang]: [  0.965284,   0.684823,   0.500989]
    Electron size [Ang]:            4.151395
      Cartesian components [Ang]: [  2.739166,   1.589675,   2.684023]
  ----------------------------------------------------------------------------


  Electron-attached state 4 (B2g)                                  [converged]
  ----------------------------------------------------------------------------
  Term symbol:  4 (2) B2g                                   R^2 =  2.97318e-10

  Total energy:                                            -77.9952793545 a.u.
  Electron attachment energy:                                     11.736982 eV

  Pole strength:                                                      0.000000

  Dip. moment [a.u.]:                  [   0.000000,    0.000000,    0.000000]
  Total dipole [Debye]:                                               0.000000
  <r^2> [a.u.]:                        [ 165.897431,  202.617673,   69.520241]
  Total <r^2> [a.u.]:                                               438.035346

  V1^2 = 0.0000, V2^2 = 1.0000

  Important amplitudes:
       occ i       vir a        vir b           v   
    -------------------------------------------------
     1 (B1u) A    2 (B1g) A    2 (B2u) B      0.5403
     1 (B1u) B    2 (B1g) B    2 (B2u) B      0.4464
    -------------------------------------------------

  Density matrix analysis:
  ------------------------
  NOs (alpha)
    Occupation of frontier NOs:
       0.3656   0.5839
    Number of electrons:  8.000000
  NOs (beta)
    Occupation of frontier NOs:
       0.4162   0.5681
    Number of electrons:  9.000000
  NOs (spin-traced)
    Occupation of frontier NOs:
       0.9336   1.0000
    Number of electrons: 17.000000
    Number of unpaired electrons: n_u =  3.31677, n_u,nl =  3.02685
    NO participation ratio (PR_NO):  3.819142
  
  
  Mulliken Population Analysis
  Atom  Charge (e)    Spin (e)  h+ (alpha)   h+ (beta)  e- (alpha)   e- (beta)
  ----------------------------------------------------------------------------
   1 C   -0.807846    0.488243    0.293820    0.194652   -0.296453   -0.685528
   2 C   -0.807846    0.488243    0.293820    0.194652   -0.296453   -0.685528
   3 H    0.153918    0.005879    0.003467    0.002297   -0.002151   -0.006859
   4 H    0.153945    0.005878    0.003467    0.002297   -0.002151   -0.006859
   5 H    0.153928    0.005878    0.003467    0.002297   -0.002151   -0.006859
   6 H    0.153901    0.005879    0.003467    0.002297   -0.002151   -0.006859
  ----------------------------------------------------------------------------
  Sum:   -1.000000    1.000000    0.601509    0.398491   -0.601509   -1.398491
  
  Multipole moment analysis of the density matrix
    Molecular charge:                      -1.000000
    Number of electrons:                   17.000000
      Center of electronic charge [Ang]: [ -0.000000,   0.000000,  -0.000000]
    Total nuclear charge:                  16.000000
      Center of nuclear charge [Ang]:    [  0.000000,   0.000000,   0.000000]
    Dipole moment [D]:                     0.000000
      Cartesian components [D]:          [  0.000000,   0.000000,   0.000000]
    RMS size of the density [Ang]:         2.686156
      Cartesian components [Ang]:        [  1.653090,   1.826902,   1.070120]
  
  Exciton analysis of the difference density matrix
  Total:
    <r_h> [Ang]:                  [ -0.000000,   0.000000,   0.000000]
    <r_e> [Ang]:                  [  0.000000,  -0.000000,  -0.000000]
    |<r_e - r_h>| [Ang]:            0.000000
    Hole size [Ang]:                1.246977
      Cartesian components [Ang]: [  0.742443,   0.513732,   0.860121]
    Electron size [Ang]:            7.121480
      Cartesian components [Ang]: [  4.102686,   5.042021,   2.908860]
  
  Alpha spin:
    <r_h> [Ang]:                  [ -0.000000,   0.000000,   0.000000]
    <r_e> [Ang]:                  [  0.000000,  -0.000000,  -0.000000]
    |<r_e - r_h>| [Ang]:            0.000000
    Hole size [Ang]:                1.246977
      Cartesian components [Ang]: [  0.742443,   0.513732,   0.860121]
    Electron size [Ang]:            7.541499
      Cartesian components [Ang]: [  4.918811,   4.951446,   2.857044]
  
  Beta spin:
    <r_h> [Ang]:                  [ -0.000000,   0.000000,   0.000000]
    <r_e> [Ang]:                  [  0.000000,   0.000000,   0.000000]
    |<r_e - r_h>| [Ang]:            0.000000
    Hole size [Ang]:                1.246977
      Cartesian components [Ang]: [  0.742443,   0.513732,   0.860121]
    Electron size [Ang]:            6.933003
      Cartesian components [Ang]: [  3.696655,   5.080482,   2.930866]
  ----------------------------------------------------------------------------


  Electron-attached state 5 (B2g)                                  [converged]
  ----------------------------------------------------------------------------
  Term symbol:  5 (2) B2g                                   R^2 =  4.03332e-10

  Total energy:                                            -77.9952793323 a.u.
  Electron attachment energy:                                     11.736983 eV

  Pole strength:                                                      0.000000

  Dip. moment [a.u.]:                  [   0.000000,    0.000000,    0.000000]
  Total dipole [Debye]:                                               0.000000
  <r^2> [a.u.]:                        [ 165.897483,  202.617765,   69.520275]
  Total <r^2> [a.u.]:                                               438.035524

  V1^2 = 0.0000, V2^2 = 1.0000

  Important amplitudes:
       occ i       vir a        vir b           v   
    -------------------------------------------------
     1 (B1u) A    2 (B2u) A    2 (B1g) B      0.5697
     1 (B1u) B    2 (B1g) B    2 (B2u) B     -0.3662
    -------------------------------------------------

  Density matrix analysis:
  ------------------------
  NOs (alpha)
    Occupation of frontier NOs:
       0.2362   0.6491
    Number of electrons:  8.000000
  NOs (beta)
    Occupation of frontier NOs:
       0.3510   0.6982
    Number of electrons:  9.000000
  NOs (spin-traced)
    Occupation of frontier NOs:
       0.9336   1.0000
    Number of electrons: 17.000000
    Number of unpaired electrons: n_u =  3.31677, n_u,nl =  3.02685
    NO participation ratio (PR_NO):  3.819142
  
  
  Mulliken Population Analysis
  Atom  Charge (e)    Spin (e)  h+ (alpha)   h+ (beta)  e- (alpha)   e- (beta)
  ----------------------------------------------------------------------------
   1 C   -0.807846    0.492059    0.357476    0.130996   -0.358201   -0.623780
   2 C   -0.807846    0.492059    0.357476    0.130996   -0.358201   -0.623780
   3 H    0.153918    0.003971    0.004218    0.001546   -0.003856   -0.005154
   4 H    0.153945    0.003971    0.004218    0.001546   -0.003855   -0.005154
   5 H    0.153928    0.003971    0.004218    0.001546   -0.003855   -0.005154
   6 H    0.153901    0.003971    0.004218    0.001546   -0.003856   -0.005154
  ----------------------------------------------------------------------------
  Sum:   -1.000000    1.000000    0.731825    0.268175   -0.731825   -1.268175
  
  Multipole moment analysis of the density matrix
    Molecular charge:                      -1.000000
    Number of electrons:                   17.000000
      Center of electronic charge [Ang]: [ -0.000000,   0.000000,  -0.000000]
    Total nuclear charge:                  16.000000
      Center of nuclear charge [Ang]:    [  0.000000,   0.000000,   0.000000]
    Dipole moment [D]:                     0.000000
      Cartesian components [D]:          [  0.000000,   0.000000,   0.000000]
    RMS size of the density [Ang]:         2.686157
      Cartesian components [Ang]:        [  1.653090,   1.826903,   1.070120]
  
  Exciton analysis of the difference density matrix
  Total:
    <r_h> [Ang]:                  [ -0.000000,   0.000000,   0.000000]
    <r_e> [Ang]:                  [  0.000000,  -0.000000,  -0.000000]
    |<r_e - r_h>| [Ang]:            0.000000
    Hole size [Ang]:                1.246977
      Cartesian components [Ang]: [  0.742443,   0.513732,   0.860121]
    Electron size [Ang]:            7.121482
      Cartesian components [Ang]: [  4.102687,   5.042022,   2.908861]
  
  Alpha spin:
    <r_h> [Ang]:                  [ -0.000000,   0.000000,   0.000000]
    <r_e> [Ang]:                  [  0.000000,   0.000000,  -0.000000]
    |<r_e - r_h>| [Ang]:            0.000000
    Hole size [Ang]:                1.246977
      Cartesian components [Ang]: [  0.742443,   0.513732,   0.860121]
    Electron size [Ang]:            6.756735
      Cartesian components [Ang]: [  3.283359,   5.115269,   2.950770]
  
  Beta spin:
    <r_h> [Ang]:                  [ -0.000000,   0.000000,   0.000000]
    <r_e> [Ang]:                  [  0.000000,  -0.000000,  -0.000000]
    |<r_e - r_h>| [Ang]:            0.000000
    Hole size [Ang]:                1.246977
      Cartesian components [Ang]: [  0.742443,   0.513732,   0.860121]
    Electron size [Ang]:            7.323705
      Cartesian components [Ang]: [  4.508240,   4.999266,   2.884400]
  ----------------------------------------------------------------------------


  Electron-attached state 6 (B2g)                                  [converged]
  ----------------------------------------------------------------------------
  Term symbol:  6 (2) B2g                                   R^2 =  1.05006e-08

  Total energy:                                            -77.9920019813 a.u.
  Electron attachment energy:                                     11.826164 eV

  Pole strength:                                                      0.000001

  Dip. moment [a.u.]:                  [   0.000000,   -0.000000,    0.000000]
  Total dipole [Debye]:                                               0.000001
  <r^2> [a.u.]:                        [ 163.295886,   80.820238,  188.397810]
  Total <r^2> [a.u.]:                                               432.513934

  V1^2 = 0.0000, V2^2 = 1.0000

  Important amplitudes:
       occ i       vir a        vir b           v   
    -------------------------------------------------
     1 (B1u) A    2 (B1u) A    1 (B2g) B      0.5757
     1 (B1u) B    1 (B2g) B    2 (B1u) B     -0.3252
    -------------------------------------------------

  Density matrix analysis:
  ------------------------
  NOs (alpha)
    Occupation of frontier NOs:
       0.1803   0.6630
    Number of electrons:  8.000000
  NOs (beta)
    Occupation of frontier NOs:
       0.3371   0.7548
    Number of electrons:  9.000000
  NOs (spin-traced)
    Occupation of frontier NOs:
       0.9333   1.0001
    Number of electrons: 17.000000
    Number of unpaired electrons: n_u =  3.31609, n_u,nl =  3.02676
    NO participation ratio (PR_NO):  3.819242
  
  
  Mulliken Population Analysis
  Atom  Charge (e)    Spin (e)  h+ (alpha)   h+ (beta)  e- (alpha)   e- (beta)
  ----------------------------------------------------------------------------
   1 C   -0.825874    0.493358    0.385174    0.103298   -0.394263   -0.605745
   2 C   -0.825874    0.493358    0.385174    0.103298   -0.394263   -0.605745
   3 H    0.162932    0.003321    0.004545    0.001219   -0.000000    0.000005
   4 H    0.162959    0.003321    0.004545    0.001219   -0.000000    0.000005
   5 H    0.162942    0.003321    0.004545    0.001219   -0.000000    0.000005
   6 H    0.162915    0.003321    0.004545    0.001219   -0.000000    0.000005
  ----------------------------------------------------------------------------
  Sum:   -1.000000    1.000000    0.788528    0.211472   -0.788528   -1.211472
  
  Multipole moment analysis of the density matrix
    Molecular charge:                      -1.000000
    Number of electrons:                   17.000000
      Center of electronic charge [Ang]: [ -0.000000,   0.000000,  -0.000000]
    Total nuclear charge:                  16.000000
      Center of nuclear charge [Ang]:    [  0.000000,   0.000000,   0.000000]
    Dipole moment [D]:                     0.000001
      Cartesian components [D]:          [  0.000000,  -0.000001,   0.000000]
    RMS size of the density [Ang]:         2.669173
      Cartesian components [Ang]:        [  1.640077,   1.153816,   1.761630]
  
  Exciton analysis of the difference density matrix
  Total:
    <r_h> [Ang]:                  [ -0.000000,   0.000000,   0.000000]
    <r_e> [Ang]:                  [ -0.000000,   0.000000,  -0.000000]
    |<r_e - r_h>| [Ang]:            0.000000
    Hole size [Ang]:                1.246966
      Cartesian components [Ang]: [  0.742441,   0.513728,   0.860111]
    Electron size [Ang]:            7.066992
      Cartesian components [Ang]: [  4.058051,   2.892852,   5.010590]
  
  Alpha spin:
    <r_h> [Ang]:                  [ -0.000000,   0.000000,   0.000000]
    <r_e> [Ang]:                  [ -0.000000,   0.000000,  -0.000000]
    |<r_e - r_h>| [Ang]:            0.000000
    Hole size [Ang]:                1.246967
      Cartesian components [Ang]: [  0.742440,   0.513728,   0.860112]
    Electron size [Ang]:            6.790504
      Cartesian components [Ang]: [  3.374107,   2.946440,   5.103414]
  
  Beta spin:
    <r_h> [Ang]:                  [ -0.000000,   0.000000,   0.000000]
    <r_e> [Ang]:                  [  0.000000,   0.000000,  -0.000000]
    |<r_e - r_h>| [Ang]:            0.000000
    Hole size [Ang]:                1.246964
      Cartesian components [Ang]: [  0.742441,   0.513728,   0.860107]
    Electron size [Ang]:            7.241285
      Cartesian components [Ang]: [  4.447060,   2.857433,   4.949237]
  ----------------------------------------------------------------------------


  Electron-attached state 7 (B2g)                                  [converged]
  ----------------------------------------------------------------------------
  Term symbol:  7 (2) B2g                                   R^2 =  2.07435e-09

  Total energy:                                            -77.9920012258 a.u.
  Electron attachment energy:                                     11.826185 eV

  Pole strength:                                                      0.000005

  Dip. moment [a.u.]:                  [   0.000000,   -0.000000,    0.000000]
  Total dipole [Debye]:                                               0.000001
  <r^2> [a.u.]:                        [ 163.298737,   80.820850,  188.399445]
  Total <r^2> [a.u.]:                                               432.519031

  V1^2 = 0.0000, V2^2 = 1.0000

  Important amplitudes:
       occ i       vir a        vir b           v   
    -------------------------------------------------
     1 (B1u) A    1 (B2g) A    2 (B1u) B      0.5201
     1 (B1u) B    1 (B2g) B    2 (B1u) B      0.4771
    -------------------------------------------------

  Density matrix analysis:
  ------------------------
  NOs (alpha)
    Occupation of frontier NOs:
       0.4221   0.5411
    Number of electrons:  8.000000
  NOs (beta)
    Occupation of frontier NOs:
       0.4589   0.5114
    Number of electrons:  9.000000
  NOs (spin-traced)
    Occupation of frontier NOs:
       0.9331   1.0001
    Number of electrons: 17.000000
    Number of unpaired electrons: n_u =  3.31587, n_u,nl =  3.02672
    NO participation ratio (PR_NO):  3.819309
  
  
  Mulliken Population Analysis
  Atom  Charge (e)    Spin (e)  h+ (alpha)   h+ (beta)  e- (alpha)   e- (beta)
  ----------------------------------------------------------------------------
   1 C   -0.825868    0.498962    0.266124    0.222353   -0.272408   -0.727600
   2 C   -0.825868    0.498962    0.266124    0.222353   -0.272408   -0.727600
   3 H    0.162929    0.000519    0.003140    0.002624    0.000002   -0.000001
   4 H    0.162956    0.000519    0.003140    0.002624    0.000002   -0.000001
   5 H    0.162939    0.000519    0.003140    0.002624    0.000002   -0.000001
   6 H    0.162912    0.000519    0.003140    0.002624    0.000002   -0.000001
  ----------------------------------------------------------------------------
  Sum:   -1.000000    1.000000    0.544809    0.455201   -0.544809   -1.455201
  
  Multipole moment analysis of the density matrix
    Molecular charge:                      -1.000000
    Number of electrons:                   17.000000
      Center of electronic charge [Ang]: [ -0.000000,   0.000000,  -0.000000]
    Total nuclear charge:                  16.000000
      Center of nuclear charge [Ang]:    [  0.000000,   0.000000,   0.000000]
    Dipole moment [D]:                     0.000001
      Cartesian components [D]:          [  0.000000,  -0.000001,   0.000000]
    RMS size of the density [Ang]:         2.669189
      Cartesian components [Ang]:        [  1.640092,   1.153821,   1.761637]
  
  Exciton analysis of the difference density matrix
  Total:
    <r_h> [Ang]:                  [ -0.000000,   0.000000,   0.000000]
    <r_e> [Ang]:                  [ -0.000000,   0.000000,  -0.000000]
    |<r_e - r_h>| [Ang]:            0.000000
    Hole size [Ang]:                1.247013
      Cartesian components [Ang]: [  0.742459,   0.513750,   0.860148]
    Electron size [Ang]:            7.067030
      Cartesian components [Ang]: [  4.058092,   2.892862,   5.010604]
  
  Alpha spin:
    <r_h> [Ang]:                  [ -0.000000,   0.000000,   0.000000]
    <r_e> [Ang]:                  [  0.000000,   0.000000,  -0.000000]
    |<r_e - r_h>| [Ang]:            0.000000
    Hole size [Ang]:                1.246941
      Cartesian components [Ang]: [  0.742432,   0.513717,   0.860088]
    Electron size [Ang]:            7.449107
      Cartesian components [Ang]: [  4.881142,   2.813521,   4.873166]
  
  Beta spin:
    <r_h> [Ang]:                  [ -0.000000,   0.000000,   0.000000]
    <r_e> [Ang]:                  [ -0.000000,   0.000000,  -0.000000]
    |<r_e - r_h>| [Ang]:            0.000000
    Hole size [Ang]:                1.247098
      Cartesian components [Ang]: [  0.742492,   0.513791,   0.860220]
    Electron size [Ang]:            6.918559
      Cartesian components [Ang]: [  3.703185,   2.922013,   5.061099]
  ----------------------------------------------------------------------------


  Electron-attached state 8 (B2g)                                  [converged]
  ----------------------------------------------------------------------------
  Term symbol:  8 (2) B2g                                   R^2 =  2.86021e-09

  Total energy:                                            -77.9868631995 a.u.
  Electron attachment energy:                                     11.965997 eV

  Pole strength:                                                      0.000000

  Dip. moment [a.u.]:                  [   0.000000,   -0.000000,   -0.000000]
  Total dipole [Debye]:                                               0.000001
  <r^2> [a.u.]:                        [ 228.935465,   85.698689,   74.035822]
  Total <r^2> [a.u.]:                                               388.669976

  V1^2 = 0.0000, V2^2 = 1.0000

  Important amplitudes:
       occ i       vir a        vir b           v   
    -------------------------------------------------
     1 (B1u) A    3 (B3u) A    4 (Ag ) B      0.5725
     1 (B1u) B    4 (Ag ) B    3 (B3u) B     -0.3510
    -------------------------------------------------

  Density matrix analysis:
  ------------------------
  NOs (alpha)
    Occupation of frontier NOs:
       0.2148   0.6555
    Number of electrons:  8.000000
  NOs (beta)
    Occupation of frontier NOs:
       0.3446   0.7199
    Number of electrons:  9.000000
  NOs (spin-traced)
    Occupation of frontier NOs:
       0.9336   1.0001
    Number of electrons: 17.000000
    Number of unpaired electrons: n_u =  3.31593, n_u,nl =  3.02682
    NO participation ratio (PR_NO):  3.818327
  
  
  Mulliken Population Analysis
  Atom  Charge (e)    Spin (e)  h+ (alpha)   h+ (beta)  e- (alpha)   e- (beta)
  ----------------------------------------------------------------------------
   1 C   -0.835058    0.511504    0.368079    0.120393   -0.372688   -0.636505
   2 C   -0.835058    0.511504    0.368079    0.120393   -0.372688   -0.636505
   3 H    0.167525   -0.005752    0.004343    0.001421   -0.002039    0.006636
   4 H    0.167551   -0.005752    0.004343    0.001421   -0.002039    0.006636
   5 H    0.167534   -0.005752    0.004343    0.001421   -0.002039    0.006636
   6 H    0.167508   -0.005752    0.004343    0.001421   -0.002039    0.006636
  ----------------------------------------------------------------------------
  Sum:   -1.000000    1.000000    0.753532    0.246468   -0.753532   -1.246468
  
  Multipole moment analysis of the density matrix
    Molecular charge:                      -1.000000
    Number of electrons:                   17.000000
      Center of electronic charge [Ang]: [ -0.000000,   0.000000,   0.000000]
    Total nuclear charge:                  16.000000
      Center of nuclear charge [Ang]:    [  0.000000,   0.000000,   0.000000]
    Dipole moment [D]:                     0.000001
      Cartesian components [D]:          [  0.000000,  -0.000001,  -0.000000]
    RMS size of the density [Ang]:         2.530272
      Cartesian components [Ang]:        [  1.941928,   1.188129,   1.104327]
  
  Exciton analysis of the difference density matrix
  Total:
    <r_h> [Ang]:                  [ -0.000000,   0.000000,   0.000000]
    <r_e> [Ang]:                  [ -0.000000,   0.000000,   0.000000]
    |<r_e - r_h>| [Ang]:            0.000000
    Hole size [Ang]:                1.246977
      Cartesian components [Ang]: [  0.742443,   0.513732,   0.860121]
    Electron size [Ang]:            6.618431
      Cartesian components [Ang]: [  5.065398,   3.008597,   3.015579]
  
  Alpha spin:
    <r_h> [Ang]:                  [ -0.000000,   0.000000,   0.000000]
    <r_e> [Ang]:                  [ -0.000000,   0.000000,   0.000000]
    |<r_e - r_h>| [Ang]:            0.000000
    Hole size [Ang]:                1.246977
      Cartesian components [Ang]: [  0.742443,   0.513732,   0.860121]
    Electron size [Ang]:            6.723980
      Cartesian components [Ang]: [  5.207087,   3.009882,   3.006452]
  
  Beta spin:
    <r_h> [Ang]:                  [ -0.000000,   0.000000,   0.000000]
    <r_e> [Ang]:                  [ -0.000000,   0.000000,   0.000000]
    |<r_e - r_h>| [Ang]:            0.000000
    Hole size [Ang]:                1.246977
      Cartesian components [Ang]: [  0.742443,   0.513732,   0.860121]
    Electron size [Ang]:            6.553799
      Cartesian components [Ang]: [  4.977787,   3.007819,   3.021083]
  ----------------------------------------------------------------------------


  Electron-attached state 9 (B2g)                                  [converged]
  ----------------------------------------------------------------------------
  Term symbol:  9 (2) B2g                                   R^2 =  5.71686e-10

  Total energy:                                            -77.9868556634 a.u.
  Electron attachment energy:                                     11.966202 eV

  Pole strength:                                                      0.000021

  Dip. moment [a.u.]:                  [   0.000000,   -0.000000,   -0.000000]
  Total dipole [Debye]:                                               0.000001
  <r^2> [a.u.]:                        [ 228.947985,   85.702558,   74.039984]
  Total <r^2> [a.u.]:                                               388.690527

  V1^2 = 0.0000, V2^2 = 1.0000

  Important amplitudes:
       occ i       vir a        vir b           v   
    -------------------------------------------------
     1 (B1u) A    4 (Ag ) A    3 (B3u) B     -0.5332
     1 (B1u) B    4 (Ag ) B    3 (B3u) B     -0.4584
    -------------------------------------------------

  Density matrix analysis:
  ------------------------
  NOs (alpha)
    Occupation of frontier NOs:
       0.3873   0.5688
    Number of electrons:  8.000000
  NOs (beta)
    Occupation of frontier NOs:
       0.4316   0.5464
    Number of electrons:  9.000000
  NOs (spin-traced)
    Occupation of frontier NOs:
       0.9336   1.0001
    Number of electrons: 17.000000
    Number of unpaired electrons: n_u =  3.31601, n_u,nl =  3.02682
    NO participation ratio (PR_NO):  3.818360
  
  
  Mulliken Population Analysis
  Atom  Charge (e)    Spin (e)  h+ (alpha)   h+ (beta)  e- (alpha)   e- (beta)
  ----------------------------------------------------------------------------
   1 C   -0.835045    0.486936    0.283211    0.205251   -0.300097   -0.709074
   2 C   -0.835045    0.486936    0.283211    0.205251   -0.300097   -0.709074
   3 H    0.167518    0.006532    0.003342    0.002422    0.005101   -0.000511
   4 H    0.167544    0.006532    0.003342    0.002422    0.005101   -0.000511
   5 H    0.167527    0.006532    0.003342    0.002422    0.005101   -0.000511
   6 H    0.167501    0.006532    0.003342    0.002422    0.005101   -0.000511
  ----------------------------------------------------------------------------
  Sum:   -1.000000    1.000000    0.579789    0.420190   -0.579789   -1.420190
  
  Multipole moment analysis of the density matrix
    Molecular charge:                      -1.000000
    Number of electrons:                   17.000000
      Center of electronic charge [Ang]: [ -0.000000,   0.000000,   0.000000]
    Total nuclear charge:                  16.000000
      Center of nuclear charge [Ang]:    [  0.000000,   0.000000,   0.000000]
    Dipole moment [D]:                     0.000001
      Cartesian components [D]:          [  0.000000,  -0.000001,  -0.000000]
    RMS size of the density [Ang]:         2.530339
      Cartesian components [Ang]:        [  1.941981,   1.188156,   1.104358]
  
  Exciton analysis of the difference density matrix
  Total:
    <r_h> [Ang]:                  [ -0.000000,   0.000000,   0.000000]
    <r_e> [Ang]:                  [ -0.000000,   0.000000,   0.000000]
    |<r_e - r_h>| [Ang]:            0.000000
    Hole size [Ang]:                1.246977
      Cartesian components [Ang]: [  0.742444,   0.513732,   0.860121]
    Electron size [Ang]:            6.618680
      Cartesian components [Ang]: [  5.065596,   3.008701,   3.015689]
  
  Alpha spin:
    <r_h> [Ang]:                  [ -0.000000,   0.000000,   0.000000]
    <r_e> [Ang]:                  [ -0.000000,  -0.000000,  -0.000000]
    |<r_e - r_h>| [Ang]:            0.000000
    Hole size [Ang]:                1.246977
      Cartesian components [Ang]: [  0.742444,   0.513732,   0.860121]
    Electron size [Ang]:            6.478891
      Cartesian components [Ang]: [  4.875282,   3.007006,   3.027469]
  
  Beta spin:
    <r_h> [Ang]:                  [ -0.000000,   0.000000,   0.000000]
    <r_e> [Ang]:                  [ -0.000000,   0.000000,   0.000000]
    |<r_e - r_h>| [Ang]:            0.000000
    Hole size [Ang]:                1.246977
      Cartesian components [Ang]: [  0.742444,   0.513732,   0.860121]
    Electron size [Ang]:            6.674908
      Cartesian components [Ang]: [  5.141267,   3.009393,   3.010867]
  ----------------------------------------------------------------------------


  Electron-attached state 10 (B2g)                                  [converged]
  ----------------------------------------------------------------------------
  Term symbol:  10 (2) B2g                                  R^2 =  3.74690e-07

  Total energy:                                            -77.9335330053 a.u.
  Electron attachment energy:                                     13.417186 eV

  Pole strength:                                                      0.002953

  Dip. moment [a.u.]:                  [   0.000000,   -0.000000,   -0.000000]
  Total dipole [Debye]:                                               0.000001
  <r^2> [a.u.]:                        [ 114.488708,   64.447892,  139.132904]
  Total <r^2> [a.u.]:                                               318.069504

  V1^2 = 0.0030, V2^2 = 0.9970

  Important amplitudes:
       occ i       vir a        vir b           v   
    -------------------------------------------------
     1 (B1u) A    2 (B2g) A    2 (B1u) B      0.5235
     1 (B1u) A    2 (B1u) A    2 (B2g) B      0.4706
    -------------------------------------------------

  Density matrix analysis:
  ------------------------
  NOs (alpha)
    Occupation of frontier NOs:
       0.4431   0.5516
    Number of electrons:  8.000000
  NOs (beta)
    Occupation of frontier NOs:
       0.4521   0.5538
    Number of electrons:  9.000000
  NOs (spin-traced)
    Occupation of frontier NOs:
       0.9363   0.9972
    Number of electrons: 17.000000
    Number of unpaired electrons: n_u =  3.30988, n_u,nl =  3.02558
    NO participation ratio (PR_NO):  3.813950
  
  
  Mulliken Population Analysis
  Atom  Charge (e)    Spin (e)  h+ (alpha)   h+ (beta)  e- (alpha)   e- (beta)
  ----------------------------------------------------------------------------
   1 C   -0.819609    0.489402    0.484377    0.002857   -0.492312   -0.500194
   2 C   -0.819609    0.489402    0.484377    0.002857   -0.492312   -0.500194
   3 H    0.159800    0.005299    0.005702    0.000045   -0.001735   -0.001377
   4 H    0.159826    0.005299    0.005702    0.000045   -0.001735   -0.001377
   5 H    0.159809    0.005299    0.005702    0.000045   -0.001735   -0.001377
   6 H    0.159782    0.005299    0.005702    0.000045   -0.001735   -0.001377
  ----------------------------------------------------------------------------
  Sum:   -1.000000    1.000000    0.991563    0.005895   -0.991563   -1.005895
  
  Multipole moment analysis of the density matrix
    Molecular charge:                      -1.000000
    Number of electrons:                   17.000000
      Center of electronic charge [Ang]: [ -0.000000,   0.000000,   0.000000]
    Total nuclear charge:                  16.000000
      Center of nuclear charge [Ang]:    [  0.000000,   0.000000,   0.000000]
    Dipole moment [D]:                     0.000001
      Cartesian components [D]:          [  0.000000,  -0.000001,  -0.000000]
    RMS size of the density [Ang]:         2.288957
      Cartesian components [Ang]:        [  1.373277,   1.030341,   1.513880]
  
  Exciton analysis of the difference density matrix
  Total:
    <r_h> [Ang]:                  [ -0.000000,   0.000000,   0.000000]
    <r_e> [Ang]:                  [ -0.000000,   0.000000,   0.000000]
    |<r_e - r_h>| [Ang]:            0.000000
    Hole size [Ang]:                1.246787
      Cartesian components [Ang]: [  0.742520,   0.513740,   0.859775]
    Electron size [Ang]:            5.827478
      Cartesian components [Ang]: [  3.105752,   2.466503,   4.269680]
  
  Alpha spin:
    <r_h> [Ang]:                  [ -0.000000,   0.000000,   0.000000]
    <r_e> [Ang]:                  [  0.000000,   0.000000,   0.000000]
    |<r_e - r_h>| [Ang]:            0.000000
    Hole size [Ang]:                1.246844
      Cartesian components [Ang]: [  0.742467,   0.513712,   0.859921]
    Electron size [Ang]:            5.740408
      Cartesian components [Ang]: [  3.119824,   2.410487,   4.172353]
  
  Beta spin:
    <r_h> [Ang]:                  [ -0.000000,   0.000000,  -0.000000]
    <r_e> [Ang]:                  [ -0.000000,   0.000000,   0.000000]
    |<r_e - r_h>| [Ang]:            0.000000
    Hole size [Ang]:                1.237080
      Cartesian components [Ang]: [  0.751437,   0.518314,   0.834901]
    Electron size [Ang]:            5.912052
      Cartesian components [Ang]: [  3.091817,   2.520503,   4.363495]
  ----------------------------------------------------------------------------


--------------------------------------------------------------------------------
  Time of ADC calculation:  CPU 96.79 s  wall 22.01 s
================================================================================
 
 --------------------------------------------------------------
             Orbital Energies (a.u.) and Symmetries
 --------------------------------------------------------------
 
 Alpha MOs, Restricted
 -- Occupied --                  
-11.228 -11.226  -1.039  -0.781  -0.660  -0.567  -0.516  -0.377
  1 Ag    1 B3u   2 Ag    2 B3u   1 B2u   3 Ag    1 B1g   1 B1u                
 -- Virtual --                   
  0.022   0.022   0.024   0.032   0.033   0.040   0.086   0.087
  2 B2u   3 B3u   2 B1u   2 B1g   1 B2g   4 Ag    3 B2u   4 B3u                
  0.092   0.095   0.099   0.101   0.176   0.182   0.269   0.275
  2 B2g   5 Ag    3 B1u   3 B1g   6 Ag    3 B2g   4 B2u   5 B3u                
  0.317   0.367   0.386   0.487   0.506   0.530   0.594   0.613
  4 B1g   6 B3u   7 Ag    5 B2u   8 Ag    4 B1u   7 B3u   4 B2g                
  0.634   0.641   0.666   0.677   0.744   0.800   0.828   0.897
  9 Ag    6 B2u   1 B3g   8 B3u   5 B1g   9 B3u   1 Au    5 B1u                
  0.904   0.991   1.021   1.039   1.185   1.189   1.254   1.259
  6 B1g  10 Ag    7 B1g   7 B2u   6 B1u   5 B2g   2 B3g  11 Ag                 
  1.333   1.373   1.375   1.478   1.481   1.514   1.544   1.635
 10 B3u   6 B2g   8 B2u  11 B3u   9 B2u  12 Ag   12 B3u   2 Au                 
  1.640   1.830   1.854   1.968   2.296   2.416   2.556   2.579
  8 B1g  13 B3u  13 Ag    9 B1g  14 Ag    7 B1u  15 Ag    7 B2g                
  2.648   2.710   2.761   2.762   2.848   2.915   3.064   3.098
 10 B2u  11 B2u   8 B1u  14 B3u  10 B1g   3 B3g  11 B1g   9 B1u                
  3.105   3.120   3.124   3.152   3.178   3.237   3.273   3.338
  4 B3g  16 Ag   12 B2u   3 Au   17 Ag    8 B2g  15 B3u  13 B2u                
  3.404   3.426   3.426   3.456   3.470   3.550   3.582   3.641
  9 B2g  16 B3u   4 Au   17 B3u  12 B1g  10 B1u  18 Ag    5 B3g                
  3.743   3.814   3.883   3.919   3.972   3.977   4.013   4.015
 14 B2u  13 B1g  18 B3u  14 B1g  10 B2g   5 Au   15 B2u  19 Ag                 
  4.058   4.187   4.191   4.201   4.202   4.330   4.351   4.472
 11 B1u  19 B3u  15 B1g  20 Ag    6 B3g  12 B1u  11 B2g  16 B2u                
  4.520   4.606   4.647   4.757   4.813   4.930   4.975   5.043
 20 B3u   6 Au   21 Ag   21 B3u  12 B2g  13 B1u  22 Ag   16 B1g                
  5.142   5.216   5.301   5.306   5.426   5.452   5.538   5.563
 17 B2u   7 B3g  23 Ag   22 B3u   7 Au   17 B1g  13 B2g  24 Ag                 
  5.626   5.960   6.095   6.273   6.537   6.874  11.904  14.801
 18 B2u  23 B3u  18 B1g  19 B2u  24 B3u  19 B1g  25 Ag   25 B3u                
 
 Beta MOs, Restricted
 -- Occupied --                  
-11.228 -11.226  -1.039  -0.781  -0.660  -0.567  -0.516  -0.377
  1 Ag    1 B3u   2 Ag    2 B3u   1 B2u   3 Ag    1 B1g   1 B1u                
 -- Virtual --                   
  0.022   0.022   0.024   0.032   0.033   0.040   0.086   0.087
  2 B2u   3 B3u   2 B1u   2 B1g   1 B2g   4 Ag    3 B2u   4 B3u                
  0.092   0.095   0.099   0.101   0.176   0.182   0.269   0.275
  2 B2g   5 Ag    3 B1u   3 B1g   6 Ag    3 B2g   4 B2u   5 B3u                
  0.317   0.367   0.386   0.487   0.506   0.530   0.594   0.613
  4 B1g   6 B3u   7 Ag    5 B2u   8 Ag    4 B1u   7 B3u   4 B2g                
  0.634   0.641   0.666   0.677   0.744   0.800   0.828   0.897
  9 Ag    6 B2u   1 B3g   8 B3u   5 B1g   9 B3u   1 Au    5 B1u                
  0.904   0.991   1.021   1.039   1.185   1.189   1.254   1.259
  6 B1g  10 Ag    7 B1g   7 B2u   6 B1u   5 B2g   2 B3g  11 Ag                 
  1.333   1.373   1.375   1.478   1.481   1.514   1.544   1.635
 10 B3u   6 B2g   8 B2u  11 B3u   9 B2u  12 Ag   12 B3u   2 Au                 
  1.640   1.830   1.854   1.968   2.296   2.416   2.556   2.579
  8 B1g  13 B3u  13 Ag    9 B1g  14 Ag    7 B1u  15 Ag    7 B2g                
  2.648   2.710   2.761   2.762   2.848   2.915   3.064   3.098
 10 B2u  11 B2u   8 B1u  14 B3u  10 B1g   3 B3g  11 B1g   9 B1u                
  3.105   3.120   3.124   3.152   3.178   3.237   3.273   3.338
  4 B3g  16 Ag   12 B2u   3 Au   17 Ag    8 B2g  15 B3u  13 B2u                
  3.404   3.426   3.426   3.456   3.470   3.550   3.582   3.641
  9 B2g  16 B3u   4 Au   17 B3u  12 B1g  10 B1u  18 Ag    5 B3g                
  3.743   3.814   3.883   3.919   3.972   3.977   4.013   4.015
 14 B2u  13 B1g  18 B3u  14 B1g  10 B2g   5 Au   15 B2u  19 Ag                 
  4.058   4.187   4.191   4.201   4.202   4.330   4.351   4.472
 11 B1u  19 B3u  15 B1g  20 Ag    6 B3g  12 B1u  11 B2g  16 B2u                
  4.520   4.606   4.647   4.757   4.813   4.930   4.975   5.043
 20 B3u   6 Au   21 Ag   21 B3u  12 B2g  13 B1u  22 Ag   16 B1g                
  5.142   5.216   5.301   5.306   5.426   5.452   5.538   5.563
 17 B2u   7 B3g  23 Ag   22 B3u   7 Au   17 B1g  13 B2g  24 Ag                 
  5.626   5.960   6.095   6.273   6.537   6.874  11.904  14.801
 18 B2u  23 B3u  18 B1g  19 B2u  24 B3u  19 B1g  25 Ag   25 B3u                
 --------------------------------------------------------------
 
          Ground-State Mulliken Net Atomic Charges

     Atom                 Charge (a.u.)
  ----------------------------------------
      1 C                    -0.281648
      2 C                    -0.281648
      3 H                     0.140819
      4 H                     0.140847
      5 H                     0.140829
      6 H                     0.140801
  ----------------------------------------
  Sum of atomic charges =     0.000000

 -----------------------------------------------------------------
                    Cartesian Multipole Moments
 -----------------------------------------------------------------
    Charge (ESU x 10^10)
                 0.0000
    Dipole Moment (Debye)
         X       0.0000      Y      -0.0000      Z      -0.0000
       Tot       0.0000
    Quadrupole Moments (Debye-Ang)
        XX     -12.8674     XY       0.0000     YY     -11.9334
        XZ       0.0000     YZ      -0.0000     ZZ     -16.0950
    Octopole Moments (Debye-Ang^2)
       XXX       0.0000    XXY      -0.0000    XYY       0.0000
       YYY      -0.0000    XXZ      -0.0000    XYZ      -0.0000
       YYZ      -0.0000    XZZ       0.0000    YZZ      -0.0000
       ZZZ      -0.0000
    Hexadecapole Moments (Debye-Ang^3)
      XXXX     -68.1764   XXXY       0.0000   XXYY     -13.1256
      XYYY       0.0000   YYYY     -26.8715   XXXZ       0.0000
      XXYZ      -0.0000   XYYZ       0.0000   YYYZ      -0.0000
      XXZZ     -15.5331   XYZZ       0.0000   YYZZ      -9.0601
      XZZZ       0.0000   YZZZ      -0.0000   ZZZZ     -21.6879
 -----------------------------------------------------------------
 Total job time:  104.04s(wall), 146.15s(cpu) 
 Fri Feb 25 17:34:19 2022

        *************************************************************
        *                                                           *
        *  Thank you very much for using Q-Chem.  Have a nice day.  *
        *                                                           *
        *************************************************************


