/src/tsommerfeld/qchem/exe/qcprog.exe .input1.391026.3225.qcin.1 /src/jdavis/qchem.scratch/qchem3225/

                  Welcome to Q-Chem
     A Quantum Leap Into The Future Of Chemistry


 Q-Chem 5.4 (devel), Q-Chem, Inc., Pleasanton, CA (2021)

 E. Epifanovsky,  A. T. B. Gilbert,  Xintian Feng,  Joonho Lee,  Yuezhi Mao,  
 N. Mardirossian,  P. Pokhilko,  A. White,  M. Wormit,  M. P. Coons,  
 A. L. Dempwolff,  Zhengting Gan,  D. Hait,  P. R. Horn,  L. D. Jacobson,  
 I. Kaliman,  J. Kussmann,  A. W. Lange,  Ka Un Lao,  D. S. Levine,  Jie Liu,  
 S. C. McKenzie,  A. F. Morrison,  K. Nanda,  F. Plasser,  D. R. Rehn,  
 M. L. Vidal,  Zhi-Qiang You,  Ying Zhu,  B. Alam,  B. Albrecht,  
 A. Aldossary,  E. Alguire,  J. H. Andersen,  D. Barton,  K. Begam,  A. Behn,  
 Y. A. Bernard,  E. J. Berquist,  H. Burton,  A. Carreras,  K. Carter-Fenk,  
 R. Chakraborty,  A. D. Chien,  K. D. Closser,  V. Cofer-Shabica,  
 S. Dasgupta,  Jia Deng,  M. de Wergifosse,  M. Diedenhofen,  Hainam Do,  
 S. Ehlert,  Po-Tung Fang,  S. Fatehi,  Qingguo Feng,  T. Friedhoff,  
 J. Gayvert,  Qinghui Ge,  G. Gidofalvi,  M. Goldey,  J. Gomes,  
 C. Gonzalez-Espinoza,  S. Gulania,  A. Gunina,  M. W. D. Hanson-Heine,  
 P. H. P. Harbach,  A. W. Hauser,  M. F. Herbst,  M. Hernandez Vera,  
 M. Hodecker,  Z. C. Holden,  S. Houck,  Xunkun Huang,  Kerwin Hui,  
 B. C. Huynh,  M. Ivanov,  Hyunjun Ji,  Hanjie Jiang,  B. Kaduk,  S. Kaehler,  
 K. Khistyaev,  Jaehoon Kim,  P. Klunzinger,  Z. Koczor-Benda,  
 Joong Hoon Koh,  D. Kosenkov,  L. Koulias,  T. Kowalczyk,  C. M. Krauter,  
 K. Kue,  A. Kunitsa,  T. Kus,  A. Landau,  K. V. Lawler,  D. Lefrancois,  
 S. Lehtola,  Rain Li,  Yi-Pei Li,  Jiashu Liang,  M. Liebenthal,  
 Hung-Hsuan Lin,  You-Sheng Lin,  Fenglai Liu,  Kuan-Yu Liu,  
 M. Loipersberger,  A. Luenser,  A. Manjanath,  P. Manohar,  E. Mansoor,  
 S. F. Manzer,  Shan-Ping Mao,  A. V. Marenich,  T. Markovich,  S. Mason,  
 S. A. Maurer,  P. F. McLaughlin,  M. F. S. J. Menger,  J.-M. Mewes,  
 S. A. Mewes,  P. Morgante,  J. W. Mullinax,  K. J. Oosterbaan,  G. Paran,  
 Alexander C. Paul,  Suranjan K. Paul,  F. Pavosevic,  Zheng Pei,  S. Prager,  
 E. I. Proynov,  E. Ramos,  B. Rana,  A. E. Rask,  A. Rettig,  R. M. Richard,  
 F. Rob,  E. Rossomme,  T. Scheele,  M. Scheurer,  M. Schneider,  
 N. Sergueev,  S. M. Sharada,  W. Skomorowski,  D. W. Small,  C. J. Stein,  
 Yu-Chuan Su,  E. J. Sundstrom,  Zhen Tao,  J. Thirman,  T. Tsuchimochi,  
 N. M. Tubman,  S. P. Veccham,  O. Vydrov,  J. Wenzel,  J. Witte,  A. Yamada,  
 Kun Yao,  S. Yeganeh,  S. R. Yost,  A. Zech,  Igor Ying Zhang,  Xing Zhang,  
 Yu Zhang,  D. Zuev,  A. Aspuru-Guzik,  A. T. Bell,  N. A. Besley,  
 K. B. Bravaya,  B. R. Brooks,  D. Casanova,  Jeng-Da Chai,  S. Coriani,  
 C. J. Cramer,  A. E. DePrince, III,  R. A. DiStasio Jr.,  A. Dreuw,  
 B. D. Dunietz,  T. R. Furlani,  W. A. Goddard III,  S. Grimme,  
 S. Hammes-Schiffer,  T. Head-Gordon,  W. J. Hehre,  Chao-Ping Hsu,  
 T.-C. Jagau,  Yousung Jung,  A. Klamt,  Jing Kong,  D. S. Lambrecht,  
 WanZhen Liang,  N. J. Mayhall,  C. W. McCurdy,  J. B. Neaton,  
 C. Ochsenfeld,  J. A. Parkhill,  R. Peverati,  V. A. Rassolov,  Yihan Shao,  
 L. V. Slipchenko,  T. Stauch,  R. P. Steele,  J. E. Subotnik,  
 A. J. W. Thom,  A. Tkatchenko,  D. G. Truhlar,  T. Van Voorhis,  
 T. A. Wesolowski,  K. B. Whaley,  H. L. Woodcock III,  P. M. Zimmerman,  
 S. Faraji,  P. M. W. Gill,  M. Head-Gordon,  J. M. Herbert,  A. I. Krylov

 Additional authors for Version 5.4.1: 
 S. Kotaru,  Shaozhi Li,  Xiangyuan Li,  F. Matz,  A. Molle,  Haisheng Ren,  
 Yingli Su,  Hung-Yi Tsai,  C. Utku,  Fang Wang

 Contributors to earlier versions of Q-Chem not listed above: 
 R. D. Adamson,  B. Austin,  R. Baer,  J. Baker,  G. J. O. Beran,  
 K. Brandhorst,  S. T. Brown,  E. F. C. Byrd,  A. K. Chakraborty,  
 G. K. L. Chan,  Chun-Min Chang,  Yunqing Chen,  C.-L. Cheng,  
 Siu Hung Chien,  D. M. Chipman,  D. L. Crittenden,  H. Dachsel,  
 R. J. Doerksen,  A. D. Dutoi,  R. G. Edgar,  J. Fosso-Tande,  
 L. Fusti-Molnar,  D. Ghosh,  A. Ghysels,  A. Golubeva-Zadorozhnaya,  
 J. Gonthier,  M. S. Gordon,  S. R. Gwaltney,  G. Hawkins,  J. E. Herr,  
 A. Heyden,  S. Hirata,  E. G. Hohenstein,  G. Kedziora,  F. J. Keil,  
 C. Kelley,  Jihan Kim,  R. A. King,  R. Z. Khaliullin,  P. P. Korambath,  
 W. Kurlancheek,  A. Laurent,  A. M. Lee,  M. S. Lee,  S. V. Levchenko,  
 Ching Yeh Lin,  D. Liotard,  E. Livshits,  R. C. Lochan,  I. Lotan,  
 L. A. Martinez-Martinez,  P. E. Maslen,  N. Nair,  D. P. O'Neill,  
 D. Neuhauser,  E. Neuscamman,  C. M. Oana,  R. Olivares-Amaya,  R. Olson,  
 T. M. Perrine,  B. Peters,  P. A. Pieniazek,  A. Prociuk,  Y. M. Rhee,  
 J. Ritchie,  M. A. Rohrdanz,  E. Rosta,  N. J. Russ,  H. F. Schaefer III,  
 M. W. Schmidt,  N. E. Schultz,  S. Sharma,  N. Shenvi,  C. D. Sherrill,  
 A. C. Simmonett,  A. Sodt,  T. Stein,  D. Stuck,  K. S. Thanthiriwatte,  
 V. Vanovschi,  L. Vogt,  Tao Wang,  A. Warshel,  M. A. Watson,  
 C. F. Williams,  Q. Wu,  X. Xu,  Jun Yang,  W. Zhang,  Yan Zhao

 Please cite Q-Chem as follows:
 Y. Shao et al., Mol. Phys. 113, 184-215 (2015)
 DOI: 10.1080/00268976.2014.952696

 Q-Chem 5.4.1 for Intel X86 EM64T Linux

 Parts of Q-Chem use Armadillo 9.900.5 (Nocturnal Misbehaviour).
 http://arma.sourceforge.net/

 Q-Chem begins on Fri Feb 25 18:02:09 2022  

 Host: node01
0

     Scratch files written to /src/jdavis/qchem.scratch/qchem3225//
 Processing $rem in /src/tsommerfeld/qchem/config/preferences:
 Processing $rem in /home/jdavis/.qchemrc:

 Checking the input file for inconsistencies... 	...done.

--------------------------------------------------------------
User input:
--------------------------------------------------------------
$molecule
0 1
C        -0.6645000000    0.0000000000   -0.2082049804
C         0.6645000000    0.0000000000   -0.2082049804
H        -1.1590800000    0.0000000000    0.7541440196
H         1.1590800000    0.0000000000    0.7541440196
H        -1.1590800000    0.0000000000   -1.1705529804
H         1.1590800000    0.0000000000   -1.1705529804
$end

$rem
   METHOD adc(2)
   BASIS gen
   PURECART 11
   EA_STATES [0,0,10,0,0,0,0,0]
   scf_convergence 8
   ADC_DAVIDSON_MAXITER 120
   ADC_DAVIDSON_MAXSUBSPACE 200
   adc_nguess_singles 100
   THRESH 14
   S2THRESH 14
   adc_davidson_conv 5
   adc_davidson_thresh 14
   THREADS 10
   MEM_TOTAL 95000
   STATE_ANALYSIS TRUE
$end
$basis
C     1
S    10   1.00
      8.236000D+03           5.310000D-04
      1.235000D+03           4.108000D-03
      2.808000D+02           2.108700D-02
      7.927000D+01           8.185300D-02
      2.559000D+01           2.348170D-01
      8.997000D+00           4.344010D-01
      3.319000D+00           3.461290D-01
      9.059000D-01           3.937800D-02
      3.643000D-01          -8.983000D-03
      1.285000D-01           2.385000D-03
S    1   1.00
      9.059000D-01           1.000000D+00
S    10   1.00
      8.236000D+03          -1.130000D-04
      1.235000D+03          -8.780000D-04
      2.808000D+02          -4.540000D-03
      7.927000D+01          -1.813300D-02
      2.559000D+01          -5.576000D-02
      8.997000D+00          -1.268950D-01
      3.319000D+00          -1.703520D-01
      9.059000D-01           1.403820D-01
      3.643000D-01           5.986840D-01
      1.285000D-01           3.953890D-01
S    1   1.00
      1.285000D-01           1.000000D+00
P    1   1.00
      3.827000D-01           1.000000D+00
P    5   1.00
      1.871000D+01           1.403100D-02
      4.133000D+00           8.686600D-02
      1.200000D+00           2.902160D-01
      3.827000D-01           5.010080D-01
      1.209000D-01           3.434060D-01
P    1   1.00
      1.209000D-01           1.000000D+00
P   1   1.00
      0.04805      1.0000000
P   1   1.00
      0.024025      1.0000000
D    1   1.00
      1.097000D+00           1.000000D+00
D    1   1.00
      3.180000D-01           1.000000D+00
F    1   1.00
      7.610000D-01           1.0000000
****
C     2
S    10   1.00
      8.236000D+03           5.310000D-04
      1.235000D+03           4.108000D-03
      2.808000D+02           2.108700D-02
      7.927000D+01           8.185300D-02
      2.559000D+01           2.348170D-01
      8.997000D+00           4.344010D-01
      3.319000D+00           3.461290D-01
      9.059000D-01           3.937800D-02
      3.643000D-01          -8.983000D-03
      1.285000D-01           2.385000D-03
S    1   1.00
      9.059000D-01           1.000000D+00
S    10   1.00
      8.236000D+03          -1.130000D-04
      1.235000D+03          -8.780000D-04
      2.808000D+02          -4.540000D-03
      7.927000D+01          -1.813300D-02
      2.559000D+01          -5.576000D-02
      8.997000D+00          -1.268950D-01
      3.319000D+00          -1.703520D-01
      9.059000D-01           1.403820D-01
      3.643000D-01           5.986840D-01
      1.285000D-01           3.953890D-01
S    1   1.00
      1.285000D-01           1.000000D+00
P    1   1.00
      3.827000D-01           1.000000D+00
P    5   1.00
      1.871000D+01           1.403100D-02
      4.133000D+00           8.686600D-02
      1.200000D+00           2.902160D-01
      3.827000D-01           5.010080D-01
      1.209000D-01           3.434060D-01
P    1   1.00
      1.209000D-01           1.000000D+00
P   1   1.00
      0.04805      1.0000000
P   1   1.00
      0.024025      1.0000000
D    1   1.00
      1.097000D+00           1.000000D+00
D    1   1.00
      3.180000D-01           1.000000D+00
F    1   1.00
      7.610000D-01           1.0000000
****
H 3
cc-pVTZ
****
H 4
cc-pVTZ
****
H 5
cc-pVTZ
****
H 6
cc-pVTZ
****
$end
--------------------------------------------------------------
 Atom   2: ( -0.6645000000, -0.0000001250,  0.0000000000)
         ->( -0.6645000000,  0.0000001250, -0.0000000000)
 Atom   1: (  0.6645000000, -0.0000001250, -0.0000000000)
         ->(  0.6645000000,  0.0000000000,  0.0000000000)
 Atom   6: ( -1.1590800000, -0.9623481250, -0.0000000000)
         ->( -1.1590800000, -0.9623488750,  0.0000000000)
 Atom   5: (  1.1590800000, -0.9623481250, -0.0000000000)
         ->(  1.1590800000, -0.9623488750, -0.0000000000)
 ----------------------------------------------------------------
             Standard Nuclear Orientation (Angstroms)
    I     Atom           X                Y                Z
 ----------------------------------------------------------------
    1      C       0.6645000000     0.0000000000     0.0000000000
    2      C      -0.6645000000     0.0000001250    -0.0000000000
    3      H       1.1590800000     0.9623488750     0.0000000000
    4      H      -1.1590800000     0.9623488750     0.0000000000
    5      H       1.1590800000    -0.9623488750    -0.0000000000
    6      H      -1.1590800000    -0.9623488750     0.0000000000
 ----------------------------------------------------------------
 Molecular Point Group                 D2h   NOp =  8
 Largest Abelian Subgroup              D2h   NOp =  8
 Nuclear Repulsion Energy =          33.58921667 hartrees
 There are        8 alpha and        8 beta electrons
 Requested basis set is non-standard
 There are 48 shells and 128 basis functions
 Total memory of 95000 MB is distributed as follows: 
   MEM_STATIC is set to 192 MB
   QALLOC/CCMAN JOB total memory use is  94808 MB
 Warning: actual memory use might exceed 95000 MB

 Total QAlloc Memory Limit  95000 MB
 Mega-Array Size       188 MB
 MEM_STATIC part       192 MB

                       Distance Matrix (Angstroms)
             C (  1)   C (  2)   H (  3)   H (  4)   H (  5)
   C (  2)  1.329000
   H (  3)  1.082000  2.061931
   H (  4)  2.061931  1.082000  2.318160
   H (  5)  1.082000  2.061931  1.924698  3.013026
   H (  6)  2.061931  1.082000  3.013026  1.924698  2.318160
 
 A cutoff of  1.0D-14 yielded   1176 shell pairs
 There are      8432 function pairs (     10417 Cartesian)
 Smallest overlap matrix eigenvalue = 7.13E-04

 Scale SEOQF with 1.000000e-01/1.000000e-01/1.000000e-01

 Standard Electronic Orientation quadrupole field applied
 Nucleus-field energy     =     0.0000000006 hartrees
 ================ Generating on-the-fly SAD Guess ================
Attempting to make child job directory: /src/jdavis/qchem.scratch/qchem3225//Frg1/
Attempting to make child job directory: /src/jdavis/qchem.scratch/qchem3225//Frg2/
Creating input file /src/jdavis/qchem.scratch/qchem3225/Frg1.input
using default PutDataFrgm: nothing
calling putenv with: QCSCRATCH=/src/jdavis/qchem.scratch/qchem3225/ 
Spawning Job For Fragment 0
Done Job For Fragment 0
calling putenv with: QCSCRATCH=/src/jdavis/qchem.scratch 
calling putenv with: QCTHREADS=1 
Creating input file /src/jdavis/qchem.scratch/qchem3225/Frg2.input
using default PutDataFrgm: nothing
calling putenv with: QCSCRATCH=/src/jdavis/qchem.scratch/qchem3225/ 
Spawning Job For Fragment 1
Done Job For Fragment 1
calling putenv with: QCSCRATCH=/src/jdavis/qchem.scratch 
calling putenv with: QCTHREADS=1 
 Time for running child jobs:  CPU 1.79 s  wall 53.81 s
 ============= Method Specific SAD Guess Constructed =============
 Guess from on-the-fly superposition of atomic densities
 Warning: Energy on first SCF cycle will be non-variational
 A restricted Hartree-Fock SCF calculation will be
 performed using Pulay DIIS extrapolation
 SCF converges when DIIS error is below 1.0E-08
 using 10 threads for integral computing
 -------------------------------------------------------
 OpenMP Integral computing Module                
 Release: version 1.0, May 2013, Q-Chem Inc. Pittsburgh 
 -------------------------------------------------------
 ---------------------------------------
  Cycle       Energy         DIIS Error
 ---------------------------------------
    1     -78.4648754479      3.89E-02
    2     -78.0360172827      2.90E-03
    3     -78.0576874533      7.93E-04
    4     -78.0594746907      2.78E-04
    5     -78.0596845889      3.07E-05
    6     -78.0596893896      6.54E-06
    7     -78.0596896917      1.78E-06
    8     -78.0596897237      1.85E-07
    9     -78.0596897285      2.35E-08
   10     -78.0596897288      2.48E-09 Convergence criterion met
 ---------------------------------------
 SCF time:  CPU 15.60 s  wall 1.57 s
 SCF   energy in the final basis set = -78.05968973
 Total energy in the final basis set = -78.05968973
================================================================================
|                                                                              |
|                                 A D C  M A N                                 |
|                                                                              |
 ------------------------------------------------------------------------------ 
|                                                                              |
| Components:                                                                  |
|                                                                              |
| - libvmm - 1.3-trunk                                                         |
|   Authors:                                                                   |
|   Evgeny Epifanovsky, Ilya Kaliman                                           |
|                                                                              |
| - libtensor - 2.5-trunk                                                      |
|   Authors:                                                                   |
|   Evgeny Epifanovsky, Michael Wormit, Dmitry Zuev, Sam Manzer,               |
|   Ilya Kaliman                                                               |
|                                                                              |
| - libwfa - 1.1-trunk                                                         |
|   Authors:                                                                   |
|   Felix Plasser, Stefanie Mewes (Baeppler), Benjamin Thomitzni,              |
|   Michael Wormit, Feng Chen, Anna I. Krylov, Pavel Pokhilko                  |
|                                                                              |
| - libadc - 1.1-trunk                                                         |
|   Authors:                                                                   |
|   Michael Wormit, Adrian L. Dempwolff, Philipp H. P. Harbach,                |
|   Caroline Krauter, Dirk Rehn, Matthias Schneider, Jan Wenzel                |
|                                                                              |
| - adcman - 2.6-trunk                                                         |
|   Authors:                                                                   |
|   Michael Wormit, Adrian L. Dempwolff, Philipp H. P. Harbach,                |
|   Caroline Krauter, Daniel Lefrancois, Jan-Michael Mewes, Dirk Rehn,         |
|   Matthias Schneider, Jan Wenzel, Andreas Dreuw                              |
|                                                                              |
| Authors of earlier versions of ADCMAN:                                       |
| Andreas Dreuw, Jan Hendrik Starcke, Dirk Rehn, Michael Wormit                |
|                                                                              |
================================================================================

 
 Alpha MOs, Restricted
 -- Occupied --                  
-11.228 -11.226  -1.040  -0.781  -0.661  -0.568  -0.516  -0.377
  1 Ag    1 B3u   2 Ag    2 B3u   1 B2u   3 Ag    1 B1g   1 B1u                
 -- Virtual --                   
  0.046   0.048   0.054   0.067   0.067   0.081   0.139   0.148
  3 B3u   2 B2u   2 B1u   2 B1g   1 B2g   4 Ag    2 B2g   5 Ag                 
  0.180   0.185   0.206   0.211   0.213   0.283   0.296   0.307
  4 B3u   3 B2u   3 B1g   3 B1u   6 Ag    3 B2g   5 B3u   4 B2u                
  0.438   0.443   0.448   0.594   0.596   0.638   0.642   0.644
  6 B3u   4 B1g   7 Ag    8 Ag    5 B2u   7 B3u   9 Ag    6 B2u                
  0.666   0.675   0.686   0.751   0.762   0.828   0.838   0.901
  1 B3g   8 B3u   4 B1u   4 B2g   5 B1g   1 Au    9 B3u   5 B1u                
  0.956   1.005   1.028   1.054   1.188   1.201   1.254   1.340
  6 B1g  10 Ag    7 B1g   7 B2u   6 B1u   5 B2g   2 B3g  11 Ag                 
  1.354   1.396   1.457   1.478   1.495   1.531   1.611   1.635
 10 B3u   6 B2g   8 B2u   9 B2u  11 B3u  12 Ag   12 B3u   2 Au                 
  1.710   1.835   1.857   1.975   2.298   2.536   2.608   2.646
  8 B1g  13 B3u  13 Ag    9 B1g  14 Ag    7 B1u  15 Ag    7 B2g                
  2.709   2.756   2.765   2.820   2.853   2.915   3.067   3.101
 10 B2u  11 B2u   8 B1u  14 B3u  10 B1g   3 B3g  11 B1g   9 B1u                
  3.105   3.132   3.148   3.152   3.183   3.256   3.309   3.340
  4 B3g  12 B2u  16 Ag    3 Au   17 Ag    8 B2g  15 B3u  13 B2u                
  3.412   3.426   3.435   3.469   3.501   3.550   3.596   3.641
  9 B2g   4 Au   16 B3u  17 B3u  12 B1g  10 B1u  18 Ag    5 B3g                
  3.744   3.814   3.897   3.952   3.976   3.979   4.014   4.031
 14 B2u  13 B1g  18 B3u  14 B1g   5 Au   10 B2g  15 B2u  19 Ag                 
  4.060   4.187   4.192   4.202   4.208   4.331   4.351   4.485
 11 B1u  19 B3u  15 B1g   6 B3g  20 Ag   12 B1u  11 B2g  16 B2u                
  4.533   4.606   4.677   4.761   4.813   4.936   4.974   5.058
 20 B3u   6 Au   21 Ag   21 B3u  12 B2g  13 B1u  22 Ag   16 B1g                
  5.152   5.216   5.305   5.306   5.426   5.470   5.541   5.562
 17 B2u   7 B3g  23 Ag   22 B3u   7 Au   17 B1g  13 B2g  24 Ag                 
  5.663   5.994   6.098   6.296   6.583   6.874  12.018  14.806
 18 B2u  23 B3u  18 B1g  19 B2u  24 B3u  19 B1g  25 Ag   25 B3u                
 
 Beta MOs, Restricted
 -- Occupied --                  
-11.228 -11.226  -1.040  -0.781  -0.661  -0.568  -0.516  -0.377
  1 Ag    1 B3u   2 Ag    2 B3u   1 B2u   3 Ag    1 B1g   1 B1u                
 -- Virtual --                   
  0.046   0.048   0.054   0.067   0.067   0.081   0.139   0.148
  3 B3u   2 B2u   2 B1u   2 B1g   1 B2g   4 Ag    2 B2g   5 Ag                 
  0.180   0.185   0.206   0.211   0.213   0.283   0.296   0.307
  4 B3u   3 B2u   3 B1g   3 B1u   6 Ag    3 B2g   5 B3u   4 B2u                
  0.438   0.443   0.448   0.594   0.596   0.638   0.642   0.644
  6 B3u   4 B1g   7 Ag    8 Ag    5 B2u   7 B3u   9 Ag    6 B2u                
  0.666   0.675   0.686   0.751   0.762   0.828   0.838   0.901
  1 B3g   8 B3u   4 B1u   4 B2g   5 B1g   1 Au    9 B3u   5 B1u                
  0.956   1.005   1.028   1.054   1.188   1.201   1.254   1.340
  6 B1g  10 Ag    7 B1g   7 B2u   6 B1u   5 B2g   2 B3g  11 Ag                 
  1.354   1.396   1.457   1.478   1.495   1.531   1.611   1.635
 10 B3u   6 B2g   8 B2u   9 B2u  11 B3u  12 Ag   12 B3u   2 Au                 
  1.710   1.835   1.857   1.975   2.298   2.536   2.608   2.646
  8 B1g  13 B3u  13 Ag    9 B1g  14 Ag    7 B1u  15 Ag    7 B2g                
  2.709   2.756   2.765   2.820   2.853   2.915   3.067   3.101
 10 B2u  11 B2u   8 B1u  14 B3u  10 B1g   3 B3g  11 B1g   9 B1u                
  3.105   3.132   3.148   3.152   3.183   3.256   3.309   3.340
  4 B3g  12 B2u  16 Ag    3 Au   17 Ag    8 B2g  15 B3u  13 B2u                
  3.412   3.426   3.435   3.469   3.501   3.550   3.596   3.641
  9 B2g   4 Au   16 B3u  17 B3u  12 B1g  10 B1u  18 Ag    5 B3g                
  3.744   3.814   3.897   3.952   3.976   3.979   4.014   4.031
 14 B2u  13 B1g  18 B3u  14 B1g   5 Au   10 B2g  15 B2u  19 Ag                 
  4.060   4.187   4.192   4.202   4.208   4.331   4.351   4.485
 11 B1u  19 B3u  15 B1g   6 B3g  20 Ag   12 B1u  11 B2g  16 B2u                
  4.533   4.606   4.677   4.761   4.813   4.936   4.974   5.058
 20 B3u   6 Au   21 Ag   21 B3u  12 B2g  13 B1u  22 Ag   16 B1g                
  5.152   5.216   5.305   5.306   5.426   5.470   5.541   5.562
 17 B2u   7 B3g  23 Ag   22 B3u   7 Au   17 B1g  13 B2g  24 Ag                 
  5.663   5.994   6.098   6.296   6.583   6.874  12.018  14.806
 18 B2u  23 B3u  18 B1g  19 B2u  24 B3u  19 B1g  25 Ag   25 B3u                

--------------------------------------------------------------------------------
                                   HF Summary                                   
--------------------------------------------------------------------------------
  Energy:                                                  -78.0596897288 a.u.
  Dip. moment [a.u.]:                  [   0.000000,   -0.000000,   -0.000000]
  Total dipole [Debye]:                                               0.000001
  <r^2> [a.u.]:                        [  47.674821,   22.101383,   11.970000]
  Total <r^2> [a.u.]:                                                81.746204
--------------------------------------------------------------------------------

--------------------------------------------------------------------------------
                                 MP(2) Summary                                  
--------------------------------------------------------------------------------
  MP energy contribution:                                   -0.3672098845 a.u.
  Total energy:                                            -78.4268996133 a.u.
  Dip. moment [a.u.]:                  [  -0.000000,    0.000001,   -0.000000]
  Total dipole [Debye]:                                               0.000002
  <r^2> [a.u.]:                        [  47.644943,   21.993254,   11.732232]
  Total <r^2> [a.u.]:                                                81.370429

  Density matrix analysis:
  ------------------------
  NOs (alpha)
    Occupation of frontier NOs:
       0.0226   0.9661
    Number of electrons:  8.000000
  NOs (beta)
    Occupation of frontier NOs:
       0.0226   0.9661
    Number of electrons:  8.000000
  NOs (spin-traced)
    Occupation of frontier NOs:
       0.0452   1.9322
    Number of electrons: 16.000000
    Number of unpaired electrons: n_u =  0.45280, n_u,nl =  0.05291
    NO participation ratio (PR_NO): 14.823739
  
  
  Mulliken Population Analysis
  Atom  Charge (e)    Spin (e)  h+ (alpha)   h+ (beta)  e- (alpha)   e- (beta)
  ----------------------------------------------------------------------------
   1 C   -0.301543    0.000000    0.043476    0.043476   -0.060396   -0.060396
   2 C   -0.301543    0.000000    0.043476    0.043476   -0.060396   -0.060396
   3 H    0.150759    0.000000    0.013172    0.013172   -0.004712   -0.004712
   4 H    0.150804    0.000000    0.013171    0.013171   -0.004712   -0.004712
   5 H    0.150784    0.000000    0.013172    0.013172   -0.004711   -0.004711
   6 H    0.150739    0.000000    0.013172    0.013172   -0.004711   -0.004711
  ----------------------------------------------------------------------------
  Sum:    0.000000    0.000000    0.139638    0.139638   -0.139638   -0.139638
  
  Multipole moment analysis of the density matrix
    Molecular charge:                      0.000000
    Number of electrons:                   16.000000
      Center of electronic charge [Ang]: [  0.000000,   0.000000,   0.000000]
    Total nuclear charge:                  16.000000
      Center of nuclear charge [Ang]:    [  0.000000,   0.000000,   0.000000]
    Dipole moment [D]:                     0.000002
      Cartesian components [D]:          [ -0.000000,   0.000002,  -0.000000]
    RMS size of the density [Ang]:         1.193368
      Cartesian components [Ang]:        [  0.913166,   0.620420,   0.453139]
  
  Exciton analysis of the difference density matrix
  Total:
    <r_h> [Ang]:                  [  0.000000,   0.000001,  -0.000000]
    <r_e> [Ang]:                  [  0.000000,  -0.000001,   0.000000]
    |<r_e - r_h>| [Ang]:            0.000002
    Hole size [Ang]:                1.446351
      Cartesian components [Ang]: [  0.971086,   0.749582,   0.766191]
    Electron size [Ang]:            1.309635
      Cartesian components [Ang]: [  0.955537,   0.673388,   0.590458]
  
  Alpha spin:
    <r_h> [Ang]:                  [  0.000000,   0.000001,  -0.000000]
    <r_e> [Ang]:                  [  0.000000,  -0.000001,   0.000000]
    |<r_e - r_h>| [Ang]:            0.000002
    Hole size [Ang]:                1.446351
      Cartesian components [Ang]: [  0.971086,   0.749582,   0.766191]
    Electron size [Ang]:            1.309635
      Cartesian components [Ang]: [  0.955537,   0.673388,   0.590458]
  
  Beta spin:
    <r_h> [Ang]:                  [  0.000000,   0.000001,  -0.000000]
    <r_e> [Ang]:                  [  0.000000,  -0.000001,   0.000000]
    |<r_e - r_h>| [Ang]:            0.000002
    Hole size [Ang]:                1.446351
      Cartesian components [Ang]: [  0.971086,   0.749582,   0.766191]
    Electron size [Ang]:            1.309635
      Cartesian components [Ang]: [  0.955537,   0.673388,   0.590458]
--------------------------------------------------------------------------------
Less particle guess vectors found than requested: 13 (found), 100 (requested).
Adjusting number of hole-2particle guess vectors to 87.
  Starting Davidson for electron-attached states of irrep B2g ... 
--------------------------------------------------------------------------------
   It NVec Conv  Avg. Norm  Max. Norm  Conv. states           Remark
--------------------------------------------------------------------------------
       100    0  5.053e-02  3.705e-01  0.0675 n n n n n n n n Guess.
    1  110    4  3.724e-04  2.903e-03  0.0593 n n n y y n n y 
    2  120   10  4.110e-07  3.310e-06  0.0593 y y y y y y y y Converged.
--------------------------------------------------------------------------------
  Davidson Summary: 
 ------------------------------------------------------------
  State  0: electron attachment energy =   0.0593 a.u.   (converged)
  State  1: electron attachment energy =   0.0949 a.u.   (converged)
  State  2: electron attachment energy =   0.2473 a.u.   (converged)
  State  3: electron attachment energy =   0.4917 a.u.   (converged)
  State  4: electron attachment energy =   0.4917 a.u.   (converged)
  State  5: electron attachment energy =   0.4991 a.u.   (converged)
  State  6: electron attachment energy =   0.4992 a.u.   (converged)
  State  7: electron attachment energy =   0.5044 a.u.   (converged)
  State  8: electron attachment energy =   0.5044 a.u.   (converged)
  State  9: electron attachment energy =   0.5711 a.u.   (converged)
 ------------------------------------------------------------


--------------------------------------------------------------------------------
                        Electron-Attached State Summary
--------------------------------------------------------------------------------

  Electron-attached state 1 (B2g)                                  [converged]
  ----------------------------------------------------------------------------
  Term symbol:  1 (2) B2g                                   R^2 =  2.23648e-06

  Total energy:                                            -78.3676133591 a.u.
  Electron attachment energy:                                      1.613261 eV

  Pole strength:                                                      0.977499

  Dip. moment [a.u.]:                  [  -0.000000,    0.000000,   -0.000000]
  Total dipole [Debye]:                                               0.000000
  <r^2> [a.u.]:                        [  75.383661,   31.340417,   38.350681]
  Total <r^2> [a.u.]:                                               145.074759

  V1^2 = 0.9826, V2^2 = 0.0174

  Important amplitudes:
       occ i       vir a        vir b           v   
    -------------------------------------------------
                               1 (B2g) B     -0.9320
                               2 (B2g) B      0.3231
    -------------------------------------------------

  Density matrix analysis:
  ------------------------
  NOs (alpha)
    Occupation of frontier NOs:
       0.0209   0.9646
    Number of electrons:  8.000000
  NOs (beta)
    Occupation of frontier NOs:
       0.0255   0.9682
    Number of electrons:  9.000000
  NOs (spin-traced)
    Occupation of frontier NOs:
       0.0413   0.9909
    Number of electrons: 17.000000
    Number of unpaired electrons: n_u =  1.46580, n_u,nl =  1.05458
    NO participation ratio (PR_NO):  2.156858
  
  
  Mulliken Population Analysis
  Atom  Charge (e)    Spin (e)  h+ (alpha)   h+ (beta)  e- (alpha)   e- (beta)
  ----------------------------------------------------------------------------
   1 C   -0.759351    0.517998    0.036544    0.029889   -0.006449   -0.517792
   2 C   -0.759351    0.517998    0.036544    0.029889   -0.006449   -0.517792
   3 H    0.129661   -0.008999    0.000242    0.004079   -0.015290   -0.010128
   4 H    0.129706   -0.008999    0.000242    0.004078   -0.015290   -0.010127
   5 H    0.129689   -0.008999    0.000242    0.004079   -0.015289   -0.010127
   6 H    0.129644   -0.008998    0.000242    0.004079   -0.015289   -0.010127
  ----------------------------------------------------------------------------
  Sum:   -1.000000    1.000000    0.074056    0.076093   -0.074056   -1.076093
  
  Multipole moment analysis of the density matrix
    Molecular charge:                      -1.000000
    Number of electrons:                   17.000000
      Center of electronic charge [Ang]: [  0.000000,   0.000000,   0.000000]
    Total nuclear charge:                  16.000000
      Center of nuclear charge [Ang]:    [  0.000000,   0.000000,   0.000000]
    Dipole moment [D]:                     0.000000
      Cartesian components [D]:          [ -0.000000,   0.000000,  -0.000000]
    RMS size of the density [Ang]:         1.545869
      Cartesian components [Ang]:        [  1.114334,   0.718504,   0.794810]
  
  Exciton analysis of the difference density matrix
  Total:
    <r_h> [Ang]:                  [  0.000000,  -0.000002,   0.000000]
    <r_e> [Ang]:                  [  0.000000,   0.000000,   0.000000]
    |<r_e - r_h>| [Ang]:            0.000002
    Hole size [Ang]:                1.557813
      Cartesian components [Ang]: [  1.063750,   0.789073,   0.820111]
    Electron size [Ang]:            3.978317
      Cartesian components [Ang]: [  2.627035,   1.535269,   2.562936]
  
  Alpha spin:
    <r_h> [Ang]:                  [ -0.000000,  -0.000002,  -0.000000]
    <r_e> [Ang]:                  [  0.000000,  -0.000000,   0.000000]
    |<r_e - r_h>| [Ang]:            0.000002
    Hole size [Ang]:                1.429059
      Cartesian components [Ang]: [  1.016798,   0.737263,   0.681744]
    Electron size [Ang]:            2.170675
      Cartesian components [Ang]: [  1.405140,   1.284043,   1.043383]
  
  Beta spin:
    <r_h> [Ang]:                  [  0.000000,  -0.000002,   0.000000]
    <r_e> [Ang]:                  [  0.000000,   0.000000,   0.000000]
    |<r_e - r_h>| [Ang]:            0.000002
    Hole size [Ang]:                1.673637
      Cartesian components [Ang]: [  1.107536,   0.836419,   0.935322]
    Electron size [Ang]:            4.073320
      Cartesian components [Ang]: [  2.690795,   1.551063,   2.635482]
  ----------------------------------------------------------------------------


  Electron-attached state 2 (B2g)                                  [converged]
  ----------------------------------------------------------------------------
  Term symbol:  2 (2) B2g                                   R^2 =  3.30961e-06

  Total energy:                                            -78.3319666760 a.u.
  Electron attachment energy:                                      2.583257 eV

  Pole strength:                                                      0.951506

  Dip. moment [a.u.]:                  [  -0.000000,   -0.000001,   -0.000000]
  Total dipole [Debye]:                                               0.000002
  <r^2> [a.u.]:                        [  70.676996,   30.154000,   33.258487]
  Total <r^2> [a.u.]:                                               134.089484

  V1^2 = 0.9623, V2^2 = 0.0377

  Important amplitudes:
       occ i       vir a        vir b           v   
    -------------------------------------------------
                               2 (B2g) B     -0.8925
                               1 (B2g) B     -0.3561
    -------------------------------------------------

  Density matrix analysis:
  ------------------------
  NOs (alpha)
    Occupation of frontier NOs:
       0.0197   0.9627
    Number of electrons:  8.000000
  NOs (beta)
    Occupation of frontier NOs:
       0.0238   0.9727
    Number of electrons:  9.000000
  NOs (spin-traced)
    Occupation of frontier NOs:
       0.0335   0.9859
    Number of electrons: 17.000000
    Number of unpaired electrons: n_u =  1.47469, n_u,nl =  1.05473
    NO participation ratio (PR_NO):  2.204966
  
  
  Mulliken Population Analysis
  Atom  Charge (e)    Spin (e)  h+ (alpha)   h+ (beta)  e- (alpha)   e- (beta)
  ----------------------------------------------------------------------------
   1 C   -0.702440    0.513925    0.081024    0.058129   -0.024510   -0.515540
   2 C   -0.702440    0.513925    0.081024    0.058129   -0.024510   -0.515540
   3 H    0.101204   -0.006963    0.001517    0.005914   -0.029776   -0.027210
   4 H    0.101250   -0.006963    0.001517    0.005915   -0.029776   -0.027209
   5 H    0.101235   -0.006962    0.001518    0.005915   -0.029774   -0.027209
   6 H    0.101190   -0.006962    0.001518    0.005915   -0.029774   -0.027209
  ----------------------------------------------------------------------------
  Sum:   -1.000000    1.000000    0.168118    0.139917   -0.168118   -1.139917
  
  Multipole moment analysis of the density matrix
    Molecular charge:                      -1.000000
    Number of electrons:                   17.000000
      Center of electronic charge [Ang]: [  0.000000,   0.000000,   0.000000]
    Total nuclear charge:                  16.000000
      Center of nuclear charge [Ang]:    [  0.000000,   0.000000,   0.000000]
    Dipole moment [D]:                     0.000002
      Cartesian components [D]:          [ -0.000000,  -0.000002,  -0.000000]
    RMS size of the density [Ang]:         1.486189
      Cartesian components [Ang]:        [  1.078986,   0.704773,   0.740164]
  
  Exciton analysis of the difference density matrix
  Total:
    <r_h> [Ang]:                  [  0.000000,  -0.000002,   0.000000]
    <r_e> [Ang]:                  [  0.000000,   0.000000,   0.000000]
    |<r_e - r_h>| [Ang]:            0.000002
    Hole size [Ang]:                1.364552
      Cartesian components [Ang]: [  0.987726,   0.695396,   0.634683]
    Electron size [Ang]:            3.424144
      Cartesian components [Ang]: [  2.271679,   1.364170,   2.168703]
  
  Alpha spin:
    <r_h> [Ang]:                  [  0.000000,  -0.000002,  -0.000000]
    <r_e> [Ang]:                  [  0.000000,   0.000000,   0.000000]
    |<r_e - r_h>| [Ang]:            0.000002
    Hole size [Ang]:                1.365210
      Cartesian components [Ang]: [  0.984853,   0.684459,   0.652210]
    Electron size [Ang]:            2.144647
      Cartesian components [Ang]: [  1.406061,   1.236674,   1.045533]
  
  Beta spin:
    <r_h> [Ang]:                  [  0.000000,  -0.000002,   0.000000]
    <r_e> [Ang]:                  [  0.000000,   0.000000,   0.000000]
    |<r_e - r_h>| [Ang]:            0.000003
    Hole size [Ang]:                1.363760
      Cartesian components [Ang]: [  0.991167,   0.708314,   0.612961]
    Electron size [Ang]:            3.574299
      Cartesian components [Ang]: [  2.372771,   1.381978,   2.288167]
  ----------------------------------------------------------------------------


  Electron-attached state 3 (B2g)                                  [converged]
  ----------------------------------------------------------------------------
  Term symbol:  3 (2) B2g                                   R^2 =  8.52653e-07

  Total energy:                                            -78.1796086666 a.u.
  Electron attachment energy:                                      6.729129 eV

  Pole strength:                                                      0.967856

  Dip. moment [a.u.]:                  [  -0.000000,   -0.000001,    0.000000]
  Total dipole [Debye]:                                               0.000001
  <r^2> [a.u.]:                        [  68.976461,   29.431048,   32.411469]
  Total <r^2> [a.u.]:                                               130.818978

  V1^2 = 0.9713, V2^2 = 0.0287

  Important amplitudes:
       occ i       vir a        vir b           v   
    -------------------------------------------------
                               3 (B2g) B      0.9502
                               2 (B2g) B      0.2484
    -------------------------------------------------

  Density matrix analysis:
  ------------------------
  NOs (alpha)
    Occupation of frontier NOs:
       0.0263   0.9566
    Number of electrons:  8.000000
  NOs (beta)
    Occupation of frontier NOs:
       0.0316   0.9676
    Number of electrons:  9.000000
  NOs (spin-traced)
    Occupation of frontier NOs:
       0.0542   0.9786
    Number of electrons: 17.000000
    Number of unpaired electrons: n_u =  1.49541, n_u,nl =  1.06607
    NO participation ratio (PR_NO):  2.293156
  
  
  Mulliken Population Analysis
  Atom  Charge (e)    Spin (e)  h+ (alpha)   h+ (beta)  e- (alpha)   e- (beta)
  ----------------------------------------------------------------------------
   1 C   -0.726528    0.500972    0.047891    0.035595   -0.009898   -0.498574
   2 C   -0.726528    0.500972    0.047891    0.035595   -0.009898   -0.498574
   3 H    0.113250   -0.000487   -0.000802   -0.001425   -0.018195   -0.017086
   4 H    0.113295   -0.000487   -0.000802   -0.001425   -0.018195   -0.017086
   5 H    0.113278   -0.000486   -0.000801   -0.001425   -0.018194   -0.017085
   6 H    0.113233   -0.000486   -0.000801   -0.001425   -0.018194   -0.017085
  ----------------------------------------------------------------------------
  Sum:   -1.000000    1.000000    0.092575    0.065490   -0.092575   -1.065490
  
  Multipole moment analysis of the density matrix
    Molecular charge:                      -1.000000
    Number of electrons:                   17.000000
      Center of electronic charge [Ang]: [  0.000000,   0.000000,  -0.000000]
    Total nuclear charge:                  16.000000
      Center of nuclear charge [Ang]:    [  0.000000,   0.000000,   0.000000]
    Dipole moment [D]:                     0.000001
      Cartesian components [D]:          [ -0.000000,  -0.000001,   0.000000]
    RMS size of the density [Ang]:         1.467953
      Cartesian components [Ang]:        [  1.065926,   0.696273,   0.730678]
  
  Exciton analysis of the difference density matrix
  Total:
    <r_h> [Ang]:                  [  0.000000,  -0.000003,  -0.000000]
    <r_e> [Ang]:                  [  0.000000,   0.000000,  -0.000000]
    |<r_e - r_h>| [Ang]:            0.000003
    Hole size [Ang]:                1.334282
      Cartesian components [Ang]: [  0.968211,   0.702782,   0.590739]
    Electron size [Ang]:            3.492852
      Cartesian components [Ang]: [  2.299145,   1.365989,   2.246780]
  
  Alpha spin:
    <r_h> [Ang]:                  [  0.000000,  -0.000002,  -0.000000]
    <r_e> [Ang]:                  [  0.000000,   0.000000,   0.000000]
    |<r_e - r_h>| [Ang]:            0.000003
    Hole size [Ang]:                1.277744
      Cartesian components [Ang]: [  0.935111,   0.650210,   0.579159]
    Electron size [Ang]:            2.098149
      Cartesian components [Ang]: [  1.383777,   1.226074,   0.992034]
  
  Beta spin:
    <r_h> [Ang]:                  [  0.000000,  -0.000003,   0.000000]
    <r_e> [Ang]:                  [  0.000000,   0.000000,  -0.000000]
    |<r_e - r_h>| [Ang]:            0.000003
    Hole size [Ang]:                1.410340
      Cartesian components [Ang]: [  1.013158,   0.771006,   0.606730]
    Electron size [Ang]:            3.588526
      Cartesian components [Ang]: [  2.361985,   1.377475,   2.324029]
  ----------------------------------------------------------------------------


  Electron-attached state 4 (B2g)                                  [converged]
  ----------------------------------------------------------------------------
  Term symbol:  4 (2) B2g                                   R^2 =  1.88822e-09

  Total energy:                                            -77.9351666399 a.u.
  Electron attachment energy:                                     13.380735 eV

  Pole strength:                                                      0.000000

  Dip. moment [a.u.]:                  [  -0.000000,    0.000001,   -0.000000]
  Total dipole [Debye]:                                               0.000003
  <r^2> [a.u.]:                        [ 106.534010,  111.404933,   38.604594]
  Total <r^2> [a.u.]:                                               256.543537

  V1^2 = 0.0000, V2^2 = 1.0000

  Important amplitudes:
       occ i       vir a        vir b           v   
    -------------------------------------------------
     1 (B1u) A    2 (B1g) A    2 (B2u) B      0.5354
     1 (B1u) B    2 (B1g) B    2 (B2u) B      0.4548
    -------------------------------------------------

  Density matrix analysis:
  ------------------------
  NOs (alpha)
    Occupation of frontier NOs:
       0.3807   0.5735
    Number of electrons:  8.000000
  NOs (beta)
    Occupation of frontier NOs:
       0.4268   0.5529
    Number of electrons:  9.000000
  NOs (spin-traced)
    Occupation of frontier NOs:
       0.9335   1.0003
    Number of electrons: 17.000000
    Number of unpaired electrons: n_u =  3.31542, n_u,nl =  3.02677
    NO participation ratio (PR_NO):  3.818107
  
  
  Mulliken Population Analysis
  Atom  Charge (e)    Spin (e)  h+ (alpha)   h+ (beta)  e- (alpha)   e- (beta)
  ----------------------------------------------------------------------------
   1 C   -0.670567    0.464715    0.286276    0.201993   -0.238430   -0.618863
   2 C   -0.670567    0.464715    0.286276    0.201993   -0.238430   -0.618863
   3 H    0.085271    0.017642    0.003439    0.002426   -0.027362   -0.043991
   4 H    0.085315    0.017642    0.003439    0.002426   -0.027362   -0.043992
   5 H    0.085296    0.017642    0.003439    0.002426   -0.027362   -0.043992
   6 H    0.085251    0.017642    0.003439    0.002426   -0.027362   -0.043991
  ----------------------------------------------------------------------------
  Sum:   -1.000000    1.000000    0.586307    0.413693   -0.586307   -1.413693
  
  Multipole moment analysis of the density matrix
    Molecular charge:                      -1.000000
    Number of electrons:                   17.000000
      Center of electronic charge [Ang]: [  0.000000,   0.000000,   0.000000]
    Total nuclear charge:                  16.000000
      Center of nuclear charge [Ang]:    [  0.000000,   0.000000,   0.000000]
    Dipole moment [D]:                     0.000003
      Cartesian components [D]:          [ -0.000000,   0.000003,  -0.000000]
    RMS size of the density [Ang]:         2.055688
      Cartesian components [Ang]:        [  1.324710,   1.354656,   0.797437]
  
  Exciton analysis of the difference density matrix
  Total:
    <r_h> [Ang]:                  [ -0.000000,   0.000000,  -0.000000]
    <r_e> [Ang]:                  [ -0.000000,  -0.000000,   0.000000]
    |<r_e - r_h>| [Ang]:            0.000000
    Hole size [Ang]:                1.247905
      Cartesian components [Ang]: [  0.742746,   0.514388,   0.860814]
    Electron size [Ang]:            5.030444
      Cartesian components [Ang]: [  2.919100,   3.556854,   2.032982]
  
  Alpha spin:
    <r_h> [Ang]:                  [ -0.000000,   0.000000,  -0.000000]
    <r_e> [Ang]:                  [ -0.000000,  -0.000000,  -0.000000]
    |<r_e - r_h>| [Ang]:            0.000000
    Hole size [Ang]:                1.247905
      Cartesian components [Ang]: [  0.742746,   0.514388,   0.860814]
    Electron size [Ang]:            5.328766
      Cartesian components [Ang]: [  3.494126,   3.495756,   1.991611]
  
  Beta spin:
    <r_h> [Ang]:                  [ -0.000000,   0.000000,  -0.000000]
    <r_e> [Ang]:                  [ -0.000000,  -0.000000,   0.000000]
    |<r_e - r_h>| [Ang]:            0.000000
    Hole size [Ang]:                1.247905
      Cartesian components [Ang]: [  0.742746,   0.514388,   0.860814]
    Electron size [Ang]:            4.901396
      Cartesian components [Ang]: [  2.644182,   3.581887,   2.049894]
  ----------------------------------------------------------------------------


  Electron-attached state 5 (B2g)                                  [converged]
  ----------------------------------------------------------------------------
  Term symbol:  5 (2) B2g                                   R^2 =  3.02159e-09

  Total energy:                                            -77.9351663270 a.u.
  Electron attachment energy:                                     13.380743 eV

  Pole strength:                                                      0.000001

  Dip. moment [a.u.]:                  [  -0.000000,    0.000001,   -0.000000]
  Total dipole [Debye]:                                               0.000003
  <r^2> [a.u.]:                        [ 106.534096,  111.404998,   38.604680]
  Total <r^2> [a.u.]:                                               256.543774

  V1^2 = 0.0000, V2^2 = 1.0000

  Important amplitudes:
       occ i       vir a        vir b           v   
    -------------------------------------------------
     1 (B1u) A    2 (B2u) A    2 (B1g) B      0.5717
     1 (B1u) B    2 (B1g) B    2 (B2u) B     -0.3556
    -------------------------------------------------

  Density matrix analysis:
  ------------------------
  NOs (alpha)
    Occupation of frontier NOs:
       0.2212   0.6540
    Number of electrons:  8.000000
  NOs (beta)
    Occupation of frontier NOs:
       0.3466   0.7133
    Number of electrons:  9.000000
  NOs (spin-traced)
    Occupation of frontier NOs:
       0.9335   1.0003
    Number of electrons: 17.000000
    Number of unpaired electrons: n_u =  3.31542, n_u,nl =  3.02677
    NO participation ratio (PR_NO):  3.818111
  
  
  Mulliken Population Analysis
  Atom  Charge (e)    Spin (e)  h+ (alpha)   h+ (beta)  e- (alpha)   e- (beta)
  ----------------------------------------------------------------------------
   1 C   -0.670565    0.432326    0.364749    0.123519   -0.333097   -0.524194
   2 C   -0.670565    0.432326    0.364749    0.123519   -0.333097   -0.524194
   3 H    0.085270    0.033837    0.004382    0.001484   -0.020207   -0.051146
   4 H    0.085314    0.033837    0.004382    0.001484   -0.020208   -0.051147
   5 H    0.085295    0.033837    0.004382    0.001484   -0.020208   -0.051147
   6 H    0.085251    0.033837    0.004382    0.001484   -0.020207   -0.051146
  ----------------------------------------------------------------------------
  Sum:   -1.000000    1.000000    0.747025    0.252974   -0.747025   -1.252974
  
  Multipole moment analysis of the density matrix
    Molecular charge:                      -1.000000
    Number of electrons:                   17.000000
      Center of electronic charge [Ang]: [  0.000000,   0.000000,   0.000000]
    Total nuclear charge:                  16.000000
      Center of nuclear charge [Ang]:    [  0.000000,   0.000000,   0.000000]
    Dipole moment [D]:                     0.000003
      Cartesian components [D]:          [ -0.000000,   0.000003,  -0.000000]
    RMS size of the density [Ang]:         2.055689
      Cartesian components [Ang]:        [  1.324711,   1.354656,   0.797437]
  
  Exciton analysis of the difference density matrix
  Total:
    <r_h> [Ang]:                  [ -0.000000,   0.000000,  -0.000000]
    <r_e> [Ang]:                  [ -0.000000,  -0.000000,  -0.000000]
    |<r_e - r_h>| [Ang]:            0.000000
    Hole size [Ang]:                1.247905
      Cartesian components [Ang]: [  0.742746,   0.514388,   0.860813]
    Electron size [Ang]:            5.030449
      Cartesian components [Ang]: [  2.919103,   3.556856,   2.032985]
  
  Alpha spin:
    <r_h> [Ang]:                  [ -0.000000,   0.000000,  -0.000000]
    <r_e> [Ang]:                  [ -0.000000,  -0.000000,  -0.000000]
    |<r_e - r_h>| [Ang]:            0.000000
    Hole size [Ang]:                1.247905
      Cartesian components [Ang]: [  0.742746,   0.514388,   0.860814]
    Electron size [Ang]:            4.783298
      Cartesian components [Ang]: [  2.372088,   3.604085,   2.064874]
  
  Beta spin:
    <r_h> [Ang]:                  [ -0.000000,   0.000000,  -0.000000]
    <r_e> [Ang]:                  [ -0.000000,  -0.000000,  -0.000000]
    |<r_e - r_h>| [Ang]:            0.000000
    Hole size [Ang]:                1.247904
      Cartesian components [Ang]: [  0.742745,   0.514388,   0.860812]
    Electron size [Ang]:            5.172184
      Cartesian components [Ang]: [  3.201059,   3.528397,   2.013733]
  ----------------------------------------------------------------------------


  Electron-attached state 6 (B2g)                                  [converged]
  ----------------------------------------------------------------------------
  Term symbol:  6 (2) B2g                                   R^2 =  8.08647e-08

  Total energy:                                            -77.9277592379 a.u.
  Electron attachment energy:                                     13.582300 eV

  Pole strength:                                                      0.000189

  Dip. moment [a.u.]:                  [  -0.000000,    0.000000,   -0.000000]
  Total dipole [Debye]:                                               0.000001
  <r^2> [a.u.]:                        [ 100.156723,   49.220037,   93.590992]
  Total <r^2> [a.u.]:                                               242.967753

  V1^2 = 0.0002, V2^2 = 0.9998

  Important amplitudes:
       occ i       vir a        vir b           v   
    -------------------------------------------------
     1 (B1u) A    2 (B1u) A    1 (B2g) B      0.5770
     1 (B1u) B    1 (B2g) B    2 (B1u) B     -0.3036
    -------------------------------------------------

  Density matrix analysis:
  ------------------------
  NOs (alpha)
    Occupation of frontier NOs:
       0.1536   0.6664
    Number of electrons:  8.000000
  NOs (beta)
    Occupation of frontier NOs:
       0.3342   0.7820
    Number of electrons:  9.000000
  NOs (spin-traced)
    Occupation of frontier NOs:
       0.9311   1.0016
    Number of electrons: 17.000000
    Number of unpaired electrons: n_u =  3.30784, n_u,nl =  3.02559
    NO participation ratio (PR_NO):  3.816867
  
  
  Mulliken Population Analysis
  Atom  Charge (e)    Spin (e)  h+ (alpha)   h+ (beta)  e- (alpha)   e- (beta)
  ----------------------------------------------------------------------------
   1 C   -0.812483    0.492104    0.398234    0.090027   -0.407653   -0.591549
   2 C   -0.812483    0.492104    0.398234    0.090027   -0.407653   -0.591549
   3 H    0.156229    0.003948    0.004783    0.001084   -0.000074   -0.000323
   4 H    0.156274    0.003948    0.004783    0.001084   -0.000074   -0.000323
   5 H    0.156254    0.003948    0.004783    0.001084   -0.000074   -0.000323
   6 H    0.156209    0.003948    0.004783    0.001084   -0.000074   -0.000323
  ----------------------------------------------------------------------------
  Sum:   -1.000000    1.000000    0.815602    0.184389   -0.815602   -1.184389
  
  Multipole moment analysis of the density matrix
    Molecular charge:                      -1.000000
    Number of electrons:                   17.000000
      Center of electronic charge [Ang]: [  0.000000,   0.000000,   0.000000]
    Total nuclear charge:                  16.000000
      Center of nuclear charge [Ang]:    [  0.000000,   0.000000,   0.000000]
    Dipole moment [D]:                     0.000001
      Cartesian components [D]:          [ -0.000000,   0.000001,  -0.000000]
    RMS size of the density [Ang]:         2.000557
      Cartesian components [Ang]:        [  1.284449,   0.900425,   1.241634]
  
  Exciton analysis of the difference density matrix
  Total:
    <r_h> [Ang]:                  [ -0.000000,   0.000000,  -0.000000]
    <r_e> [Ang]:                  [  0.000000,   0.000000,  -0.000000]
    |<r_e - r_h>| [Ang]:            0.000000
    Hole size [Ang]:                1.248607
      Cartesian components [Ang]: [  0.743049,   0.514762,   0.861347]
    Electron size [Ang]:            4.837927
      Cartesian components [Ang]: [  2.761972,   1.986113,   3.439826]
  
  Alpha spin:
    <r_h> [Ang]:                  [ -0.000000,   0.000000,  -0.000000]
    <r_e> [Ang]:                  [  0.000000,   0.000000,  -0.000000]
    |<r_e - r_h>| [Ang]:            0.000000
    Hole size [Ang]:                1.248564
      Cartesian components [Ang]: [  0.743019,   0.514726,   0.861332]
    Electron size [Ang]:            4.753068
      Cartesian components [Ang]: [  2.384011,   2.055948,   3.561071]
  
  Beta spin:
    <r_h> [Ang]:                  [ -0.000000,   0.000000,  -0.000000]
    <r_e> [Ang]:                  [ -0.000000,   0.000000,  -0.000000]
    |<r_e - r_h>| [Ang]:            0.000000
    Hole size [Ang]:                1.248796
      Cartesian components [Ang]: [  0.743179,   0.514921,   0.861413]
    Electron size [Ang]:            4.895508
      Cartesian components [Ang]: [  2.994638,   1.936559,   3.353786]
  ----------------------------------------------------------------------------


  Electron-attached state 7 (B2g)                                  [converged]
  ----------------------------------------------------------------------------
  Term symbol:  7 (2) B2g                                   R^2 =  1.83055e-08

  Total energy:                                            -77.9277311210 a.u.
  Electron attachment energy:                                     13.583065 eV

  Pole strength:                                                      0.000302

  Dip. moment [a.u.]:                  [  -0.000000,    0.000000,   -0.000000]
  Total dipole [Debye]:                                               0.000001
  <r^2> [a.u.]:                        [ 100.162475,   49.215655,   93.570521]
  Total <r^2> [a.u.]:                                               242.948650

  V1^2 = 0.0003, V2^2 = 0.9997

  Important amplitudes:
       occ i       vir a        vir b           v   
    -------------------------------------------------
     1 (B1u) A    1 (B2g) A    2 (B1u) B      0.5083
     1 (B1u) B    1 (B2g) B    2 (B1u) B      0.4910
    -------------------------------------------------

  Density matrix analysis:
  ------------------------
  NOs (alpha)
    Occupation of frontier NOs:
       0.4493   0.5177
    Number of electrons:  8.000000
  NOs (beta)
    Occupation of frontier NOs:
       0.4838   0.4841
    Number of electrons:  9.000000
  NOs (spin-traced)
    Occupation of frontier NOs:
       0.9292   1.0015
    Number of electrons: 17.000000
    Number of unpaired electrons: n_u =  3.30438, n_u,nl =  3.02500
    NO participation ratio (PR_NO):  3.818157
  
  
  Mulliken Population Analysis
  Atom  Charge (e)    Spin (e)  h+ (alpha)   h+ (beta)  e- (alpha)   e- (beta)
  ----------------------------------------------------------------------------
   1 C   -0.812423    0.499600    0.252743    0.235577   -0.258383   -0.740817
   2 C   -0.812423    0.499600    0.252743    0.235577   -0.258383   -0.740817
   3 H    0.156199    0.000200    0.003036    0.002826   -0.000216   -0.000206
   4 H    0.156244    0.000200    0.003036    0.002826   -0.000216   -0.000206
   5 H    0.156224    0.000200    0.003036    0.002826   -0.000216   -0.000206
   6 H    0.156179    0.000200    0.003037    0.002826   -0.000216   -0.000206
  ----------------------------------------------------------------------------
  Sum:   -1.000000    1.000000    0.517632    0.482458   -0.517632   -1.482458
  
  Multipole moment analysis of the density matrix
    Molecular charge:                      -1.000000
    Number of electrons:                   17.000000
      Center of electronic charge [Ang]: [  0.000000,   0.000000,   0.000000]
    Total nuclear charge:                  16.000000
      Center of nuclear charge [Ang]:    [  0.000000,   0.000000,   0.000000]
    Dipole moment [D]:                     0.000001
      Cartesian components [D]:          [ -0.000000,   0.000001,  -0.000000]
    RMS size of the density [Ang]:         2.000479
      Cartesian components [Ang]:        [  1.284485,   0.900385,   1.241498]
  
  Exciton analysis of the difference density matrix
  Total:
    <r_h> [Ang]:                  [ -0.000000,   0.000000,  -0.000000]
    <r_e> [Ang]:                  [  0.000000,   0.000000,  -0.000000]
    |<r_e - r_h>| [Ang]:            0.000000
    Hole size [Ang]:                1.249268
      Cartesian components [Ang]: [  0.743301,   0.515085,   0.861894]
    Electron size [Ang]:            4.837624
      Cartesian components [Ang]: [  2.762089,   1.985955,   3.439398]
  
  Alpha spin:
    <r_h> [Ang]:                  [ -0.000000,   0.000000,  -0.000000]
    <r_e> [Ang]:                  [ -0.000000,   0.000000,  -0.000000]
    |<r_e - r_h>| [Ang]:            0.000000
    Hole size [Ang]:                1.247401
      Cartesian components [Ang]: [  0.742621,   0.514194,   0.860306]
    Electron size [Ang]:            4.969086
      Cartesian components [Ang]: [  3.270277,   1.871074,   3.239782]
  
  Beta spin:
    <r_h> [Ang]:                  [ -0.000000,   0.000000,  -0.000000]
    <r_e> [Ang]:                  [  0.000000,   0.000000,  -0.000000]
    |<r_e - r_h>| [Ang]:            0.000000
    Hole size [Ang]:                1.251268
      Cartesian components [Ang]: [  0.744030,   0.516039,   0.863595]
    Electron size [Ang]:            4.790872
      Cartesian components [Ang]: [  2.561000,   2.024533,   3.506423]
  ----------------------------------------------------------------------------


  Electron-attached state 8 (B2g)                                  [converged]
  ----------------------------------------------------------------------------
  Term symbol:  8 (2) B2g                                   R^2 =  5.27592e-09

  Total energy:                                            -77.9225222426 a.u.
  Electron attachment energy:                                     13.724806 eV

  Pole strength:                                                      0.000002

  Dip. moment [a.u.]:                  [  -0.000000,   -0.000000,   -0.000000]
  Total dipole [Debye]:                                               0.000000
  <r^2> [a.u.]:                        [ 148.417784,   53.816242,   42.793878]
  Total <r^2> [a.u.]:                                               245.027904

  V1^2 = 0.0000, V2^2 = 1.0000

  Important amplitudes:
       occ i       vir a        vir b           v   
    -------------------------------------------------
     1 (B1u) A    3 (B3u) A    4 (Ag ) B     -0.5771
     1 (B1u) B    4 (Ag ) B    3 (B3u) B      0.3035
    -------------------------------------------------

  Density matrix analysis:
  ------------------------
  NOs (alpha)
    Occupation of frontier NOs:
       0.1537   0.6663
    Number of electrons:  8.000000
  NOs (beta)
    Occupation of frontier NOs:
       0.3341   0.7820
    Number of electrons:  9.000000
  NOs (spin-traced)
    Occupation of frontier NOs:
       0.9335   1.0004
    Number of electrons: 17.000000
    Number of unpaired electrons: n_u =  3.31560, n_u,nl =  3.02680
    NO participation ratio (PR_NO):  3.818275
  
  
  Mulliken Population Analysis
  Atom  Charge (e)    Spin (e)  h+ (alpha)   h+ (beta)  e- (alpha)   e- (beta)
  ----------------------------------------------------------------------------
   1 C   -0.817424    0.539518    0.398322    0.089946   -0.386504   -0.617646
   2 C   -0.817424    0.539518    0.398322    0.089946   -0.386504   -0.617646
   3 H    0.158699   -0.019759    0.004785    0.001080   -0.010694    0.012769
   4 H    0.158744   -0.019759    0.004785    0.001080   -0.010694    0.012769
   5 H    0.158725   -0.019759    0.004785    0.001080   -0.010694    0.012769
   6 H    0.158680   -0.019759    0.004785    0.001081   -0.010694    0.012769
  ----------------------------------------------------------------------------
  Sum:   -1.000000    1.000000    0.815784    0.184214   -0.815784   -1.184214
  
  Multipole moment analysis of the density matrix
    Molecular charge:                      -1.000000
    Number of electrons:                   17.000000
      Center of electronic charge [Ang]: [  0.000000,   0.000000,   0.000000]
    Total nuclear charge:                  16.000000
      Center of nuclear charge [Ang]:    [  0.000000,   0.000000,   0.000000]
    Dipole moment [D]:                     0.000000
      Cartesian components [D]:          [ -0.000000,  -0.000000,  -0.000000]
    RMS size of the density [Ang]:         2.009021
      Cartesian components [Ang]:        [  1.563578,   0.941528,   0.839590]
  
  Exciton analysis of the difference density matrix
  Total:
    <r_h> [Ang]:                  [ -0.000000,   0.000000,  -0.000000]
    <r_e> [Ang]:                  [ -0.000000,   0.000000,   0.000000]
    |<r_e - r_h>| [Ang]:            0.000000
    Hole size [Ang]:                1.247905
      Cartesian components [Ang]: [  0.742746,   0.514388,   0.860813]
    Electron size [Ang]:            4.867549
      Cartesian components [Ang]: [  3.792820,   2.141955,   2.172459]
  
  Alpha spin:
    <r_h> [Ang]:                  [ -0.000000,   0.000000,  -0.000000]
    <r_e> [Ang]:                  [  0.000000,   0.000000,   0.000000]
    |<r_e - r_h>| [Ang]:            0.000000
    Hole size [Ang]:                1.247905
      Cartesian components [Ang]: [  0.742746,   0.514388,   0.860813]
    Electron size [Ang]:            4.879635
      Cartesian components [Ang]: [  3.798060,   2.173492,   2.159054]
  
  Beta spin:
    <r_h> [Ang]:                  [ -0.000000,   0.000000,  -0.000000]
    <r_e> [Ang]:                  [ -0.000000,   0.000000,   0.000000]
    |<r_e - r_h>| [Ang]:            0.000000
    Hole size [Ang]:                1.247904
      Cartesian components [Ang]: [  0.742746,   0.514388,   0.860813]
    Electron size [Ang]:            4.859205
      Cartesian components [Ang]: [  3.789205,   2.119958,   2.181645]
  ----------------------------------------------------------------------------


  Electron-attached state 9 (B2g)                                  [converged]
  ----------------------------------------------------------------------------
  Term symbol:  9 (2) B2g                                   R^2 =  5.90579e-09

  Total energy:                                            -77.9224929089 a.u.
  Electron attachment energy:                                     13.725604 eV

  Pole strength:                                                      0.000083

  Dip. moment [a.u.]:                  [  -0.000000,   -0.000000,   -0.000000]
  Total dipole [Debye]:                                               0.000000
  <r^2> [a.u.]:                        [ 148.423555,   53.819017,   42.802286]
  Total <r^2> [a.u.]:                                               245.044859

  V1^2 = 0.0001, V2^2 = 0.9999

  Important amplitudes:
       occ i       vir a        vir b           v   
    -------------------------------------------------
     1 (B1u) A    4 (Ag ) A    3 (B3u) B      0.5084
     1 (B1u) B    4 (Ag ) B    3 (B3u) B      0.4911
    -------------------------------------------------

  Density matrix analysis:
  ------------------------
  NOs (alpha)
    Occupation of frontier NOs:
       0.4493   0.5170
    Number of electrons:  8.000000
  NOs (beta)
    Occupation of frontier NOs:
       0.4832   0.4843
    Number of electrons:  9.000000
  NOs (spin-traced)
    Occupation of frontier NOs:
       0.9336   1.0002
    Number of electrons: 17.000000
    Number of unpaired electrons: n_u =  3.31633, n_u,nl =  3.02682
    NO participation ratio (PR_NO):  3.818788
  
  
  Mulliken Population Analysis
  Atom  Charge (e)    Spin (e)  h+ (alpha)   h+ (beta)  e- (alpha)   e- (beta)
  ----------------------------------------------------------------------------
   1 C   -0.817327    0.455388    0.252686    0.235547   -0.282884   -0.721133
   2 C   -0.817327    0.455388    0.252686    0.235547   -0.282884   -0.721133
   3 H    0.158651    0.022306    0.003035    0.002829    0.012064   -0.010036
   4 H    0.158696    0.022306    0.003035    0.002829    0.012064   -0.010036
   5 H    0.158676    0.022306    0.003035    0.002829    0.012064   -0.010036
   6 H    0.158631    0.022306    0.003035    0.002829    0.012064   -0.010036
  ----------------------------------------------------------------------------
  Sum:   -1.000000    1.000000    0.517513    0.482411   -0.517513   -1.482411
  
  Multipole moment analysis of the density matrix
    Molecular charge:                      -1.000000
    Number of electrons:                   17.000000
      Center of electronic charge [Ang]: [  0.000000,   0.000000,   0.000000]
    Total nuclear charge:                  16.000000
      Center of nuclear charge [Ang]:    [  0.000000,   0.000000,   0.000000]
    Dipole moment [D]:                     0.000000
      Cartesian components [D]:          [ -0.000000,  -0.000000,  -0.000000]
    RMS size of the density [Ang]:         2.009090
      Cartesian components [Ang]:        [  1.563609,   0.941553,   0.839673]
  
  Exciton analysis of the difference density matrix
  Total:
    <r_h> [Ang]:                  [ -0.000000,   0.000000,  -0.000000]
    <r_e> [Ang]:                  [ -0.000000,   0.000000,   0.000000]
    |<r_e - r_h>| [Ang]:            0.000000
    Hole size [Ang]:                1.247928
      Cartesian components [Ang]: [  0.742757,   0.514402,   0.860829]
    Electron size [Ang]:            4.867881
      Cartesian components [Ang]: [  3.792996,   2.142086,   2.172767]
  
  Alpha spin:
    <r_h> [Ang]:                  [ -0.000000,   0.000000,  -0.000000]
    <r_e> [Ang]:                  [ -0.000000,   0.000000,   0.000000]
    |<r_e - r_h>| [Ang]:            0.000000
    Hole size [Ang]:                1.247894
      Cartesian components [Ang]: [  0.742744,   0.514385,   0.860801]
    Electron size [Ang]:            4.848742
      Cartesian components [Ang]: [  3.784783,   2.091329,   2.193641]
  
  Beta spin:
    <r_h> [Ang]:                  [ -0.000000,   0.000000,  -0.000000]
    <r_e> [Ang]:                  [ -0.000000,   0.000000,   0.000000]
    |<r_e - r_h>| [Ang]:            0.000000
    Hole size [Ang]:                1.247964
      Cartesian components [Ang]: [  0.742771,   0.514419,   0.860859]
    Electron size [Ang]:            4.874544
      Cartesian components [Ang]: [  3.795858,   2.159524,   2.165432]
  ----------------------------------------------------------------------------


  Electron-attached state 10 (B2g)                                  [converged]
  ----------------------------------------------------------------------------
  Term symbol:  10 (2) B2g                                  R^2 =  4.53007e-07

  Total energy:                                            -77.8557595116 a.u.
  Electron attachment energy:                                     15.541513 eV

  Pole strength:                                                      0.007099

  Dip. moment [a.u.]:                  [  -0.000000,    0.000001,    0.000000]
  Total dipole [Debye]:                                               0.000001
  <r^2> [a.u.]:                        [  77.262215,   41.455880,   69.507513]
  Total <r^2> [a.u.]:                                               188.225607

  V1^2 = 0.0071, V2^2 = 0.9929

  Important amplitudes:
       occ i       vir a        vir b           v   
    -------------------------------------------------
     1 (B1u) A    2 (B2g) A    2 (B1u) B     -0.5625
     1 (B1u) A    2 (B1u) A    2 (B2g) B     -0.3772
    -------------------------------------------------

  Density matrix analysis:
  ------------------------
  NOs (alpha)
    Occupation of frontier NOs:
       0.2855   0.6446
    Number of electrons:  8.000000
  NOs (beta)
    Occupation of frontier NOs:
       0.3653   0.7019
    Number of electrons:  9.000000
  NOs (spin-traced)
    Occupation of frontier NOs:
       0.9365   0.9909
    Number of electrons: 17.000000
    Number of unpaired electrons: n_u =  3.29765, n_u,nl =  3.02224
    NO participation ratio (PR_NO):  3.819296
  
  
  Mulliken Population Analysis
  Atom  Charge (e)    Spin (e)  h+ (alpha)   h+ (beta)  e- (alpha)   e- (beta)
  ----------------------------------------------------------------------------
   1 C   -0.788767    0.497041    0.451136    0.033954   -0.446227   -0.526087
   2 C   -0.788767    0.497041    0.451136    0.033954   -0.446227   -0.526087
   3 H    0.144371    0.001479    0.005406    0.000451   -0.007860   -0.004385
   4 H    0.144416    0.001479    0.005405    0.000451   -0.007860   -0.004385
   5 H    0.144396    0.001479    0.005406    0.000451   -0.007860   -0.004385
   6 H    0.144351    0.001479    0.005406    0.000451   -0.007860   -0.004385
  ----------------------------------------------------------------------------
  Sum:   -1.000000    1.000000    0.923893    0.069712   -0.923893   -1.069712
  
  Multipole moment analysis of the density matrix
    Molecular charge:                      -1.000000
    Number of electrons:                   17.000000
      Center of electronic charge [Ang]: [  0.000000,   0.000000,  -0.000000]
    Total nuclear charge:                  16.000000
      Center of nuclear charge [Ang]:    [  0.000000,   0.000000,   0.000000]
    Dipole moment [D]:                     0.000001
      Cartesian components [D]:          [ -0.000000,   0.000001,   0.000000]
    RMS size of the density [Ang]:         1.760824
      Cartesian components [Ang]:        [  1.128133,   0.826361,   1.070022]
  
  Exciton analysis of the difference density matrix
  Total:
    <r_h> [Ang]:                  [ -0.000000,   0.000000,  -0.000000]
    <r_e> [Ang]:                  [  0.000000,   0.000000,   0.000000]
    |<r_e - r_h>| [Ang]:            0.000000
    Hole size [Ang]:                1.251185
      Cartesian components [Ang]: [  0.744217,   0.516144,   0.863250]
    Electron size [Ang]:            3.973595
      Cartesian components [Ang]: [  2.106225,   1.693092,   2.913197]
  
  Alpha spin:
    <r_h> [Ang]:                  [ -0.000000,   0.000000,  -0.000000]
    <r_e> [Ang]:                  [  0.000000,   0.000000,   0.000000]
    |<r_e - r_h>| [Ang]:            0.000000
    Hole size [Ang]:                1.251717
      Cartesian components [Ang]: [  0.744281,   0.516307,   0.863868]
    Electron size [Ang]:            3.666541
      Cartesian components [Ang]: [  2.090762,   1.516860,   2.602187]
  
  Beta spin:
    <r_h> [Ang]:                  [  0.000000,   0.000000,  -0.000000]
    <r_e> [Ang]:                  [  0.000000,   0.000000,   0.000000]
    |<r_e - r_h>| [Ang]:            0.000000
    Hole size [Ang]:                1.244122
      Cartesian components [Ang]: [  0.743370,   0.513980,   0.855023]
    Electron size [Ang]:            4.220853
      Cartesian components [Ang]: [  2.119489,   1.831705,   3.157249]
  ----------------------------------------------------------------------------


--------------------------------------------------------------------------------
  Time of ADC calculation:  CPU 97.87 s  wall 22.13 s
================================================================================
 
 --------------------------------------------------------------
             Orbital Energies (a.u.) and Symmetries
 --------------------------------------------------------------
 
 Alpha MOs, Restricted
 -- Occupied --                  
-11.228 -11.226  -1.040  -0.781  -0.661  -0.568  -0.516  -0.377
  1 Ag    1 B3u   2 Ag    2 B3u   1 B2u   3 Ag    1 B1g   1 B1u                
 -- Virtual --                   
  0.046   0.048   0.054   0.067   0.067   0.081   0.139   0.148
  3 B3u   2 B2u   2 B1u   2 B1g   1 B2g   4 Ag    2 B2g   5 Ag                 
  0.180   0.185   0.206   0.211   0.213   0.283   0.296   0.307
  4 B3u   3 B2u   3 B1g   3 B1u   6 Ag    3 B2g   5 B3u   4 B2u                
  0.438   0.443   0.448   0.594   0.596   0.638   0.642   0.644
  6 B3u   4 B1g   7 Ag    8 Ag    5 B2u   7 B3u   9 Ag    6 B2u                
  0.666   0.675   0.686   0.751   0.762   0.828   0.838   0.901
  1 B3g   8 B3u   4 B1u   4 B2g   5 B1g   1 Au    9 B3u   5 B1u                
  0.956   1.005   1.028   1.054   1.188   1.201   1.254   1.340
  6 B1g  10 Ag    7 B1g   7 B2u   6 B1u   5 B2g   2 B3g  11 Ag                 
  1.354   1.396   1.457   1.478   1.495   1.531   1.611   1.635
 10 B3u   6 B2g   8 B2u   9 B2u  11 B3u  12 Ag   12 B3u   2 Au                 
  1.710   1.835   1.857   1.975   2.298   2.536   2.608   2.646
  8 B1g  13 B3u  13 Ag    9 B1g  14 Ag    7 B1u  15 Ag    7 B2g                
  2.709   2.756   2.765   2.820   2.853   2.915   3.067   3.101
 10 B2u  11 B2u   8 B1u  14 B3u  10 B1g   3 B3g  11 B1g   9 B1u                
  3.105   3.132   3.148   3.152   3.183   3.256   3.309   3.340
  4 B3g  12 B2u  16 Ag    3 Au   17 Ag    8 B2g  15 B3u  13 B2u                
  3.412   3.426   3.435   3.469   3.501   3.550   3.596   3.641
  9 B2g   4 Au   16 B3u  17 B3u  12 B1g  10 B1u  18 Ag    5 B3g                
  3.744   3.814   3.897   3.952   3.976   3.979   4.014   4.031
 14 B2u  13 B1g  18 B3u  14 B1g   5 Au   10 B2g  15 B2u  19 Ag                 
  4.060   4.187   4.192   4.202   4.208   4.331   4.351   4.485
 11 B1u  19 B3u  15 B1g   6 B3g  20 Ag   12 B1u  11 B2g  16 B2u                
  4.533   4.606   4.677   4.761   4.813   4.936   4.974   5.058
 20 B3u   6 Au   21 Ag   21 B3u  12 B2g  13 B1u  22 Ag   16 B1g                
  5.152   5.216   5.305   5.306   5.426   5.470   5.541   5.562
 17 B2u   7 B3g  23 Ag   22 B3u   7 Au   17 B1g  13 B2g  24 Ag                 
  5.663   5.994   6.098   6.296   6.583   6.874  12.018  14.806
 18 B2u  23 B3u  18 B1g  19 B2u  24 B3u  19 B1g  25 Ag   25 B3u                
 
 Beta MOs, Restricted
 -- Occupied --                  
-11.228 -11.226  -1.040  -0.781  -0.661  -0.568  -0.516  -0.377
  1 Ag    1 B3u   2 Ag    2 B3u   1 B2u   3 Ag    1 B1g   1 B1u                
 -- Virtual --                   
  0.046   0.048   0.054   0.067   0.067   0.081   0.139   0.148
  3 B3u   2 B2u   2 B1u   2 B1g   1 B2g   4 Ag    2 B2g   5 Ag                 
  0.180   0.185   0.206   0.211   0.213   0.283   0.296   0.307
  4 B3u   3 B2u   3 B1g   3 B1u   6 Ag    3 B2g   5 B3u   4 B2u                
  0.438   0.443   0.448   0.594   0.596   0.638   0.642   0.644
  6 B3u   4 B1g   7 Ag    8 Ag    5 B2u   7 B3u   9 Ag    6 B2u                
  0.666   0.675   0.686   0.751   0.762   0.828   0.838   0.901
  1 B3g   8 B3u   4 B1u   4 B2g   5 B1g   1 Au    9 B3u   5 B1u                
  0.956   1.005   1.028   1.054   1.188   1.201   1.254   1.340
  6 B1g  10 Ag    7 B1g   7 B2u   6 B1u   5 B2g   2 B3g  11 Ag                 
  1.354   1.396   1.457   1.478   1.495   1.531   1.611   1.635
 10 B3u   6 B2g   8 B2u   9 B2u  11 B3u  12 Ag   12 B3u   2 Au                 
  1.710   1.835   1.857   1.975   2.298   2.536   2.608   2.646
  8 B1g  13 B3u  13 Ag    9 B1g  14 Ag    7 B1u  15 Ag    7 B2g                
  2.709   2.756   2.765   2.820   2.853   2.915   3.067   3.101
 10 B2u  11 B2u   8 B1u  14 B3u  10 B1g   3 B3g  11 B1g   9 B1u                
  3.105   3.132   3.148   3.152   3.183   3.256   3.309   3.340
  4 B3g  12 B2u  16 Ag    3 Au   17 Ag    8 B2g  15 B3u  13 B2u                
  3.412   3.426   3.435   3.469   3.501   3.550   3.596   3.641
  9 B2g   4 Au   16 B3u  17 B3u  12 B1g  10 B1u  18 Ag    5 B3g                
  3.744   3.814   3.897   3.952   3.976   3.979   4.014   4.031
 14 B2u  13 B1g  18 B3u  14 B1g   5 Au   10 B2g  15 B2u  19 Ag                 
  4.060   4.187   4.192   4.202   4.208   4.331   4.351   4.485
 11 B1u  19 B3u  15 B1g   6 B3g  20 Ag   12 B1u  11 B2g  16 B2u                
  4.533   4.606   4.677   4.761   4.813   4.936   4.974   5.058
 20 B3u   6 Au   21 Ag   21 B3u  12 B2g  13 B1u  22 Ag   16 B1g                
  5.152   5.216   5.305   5.306   5.426   5.470   5.541   5.562
 17 B2u   7 B3g  23 Ag   22 B3u   7 Au   17 B1g  13 B2g  24 Ag                 
  5.663   5.994   6.098   6.296   6.583   6.874  12.018  14.806
 18 B2u  23 B3u  18 B1g  19 B2u  24 B3u  19 B1g  25 Ag   25 B3u                
 --------------------------------------------------------------
 
          Ground-State Mulliken Net Atomic Charges

     Atom                 Charge (a.u.)
  ----------------------------------------
      1 C                    -0.267702
      2 C                    -0.267702
      3 H                     0.133839
      4 H                     0.133885
      5 H                     0.133863
      6 H                     0.133818
  ----------------------------------------
  Sum of atomic charges =     0.000000

 -----------------------------------------------------------------
                    Cartesian Multipole Moments
 -----------------------------------------------------------------
    Charge (ESU x 10^10)
                 0.0000
    Dipole Moment (Debye)
         X       0.0000      Y      -0.0000      Z      -0.0000
       Tot       0.0000
    Quadrupole Moments (Debye-Ang)
        XX     -12.8616     XY       0.0000     YY     -11.9338
        XZ       0.0000     YZ      -0.0000     ZZ     -16.1001
    Octopole Moments (Debye-Ang^2)
       XXX       0.0000    XXY      -0.0000    XYY       0.0000
       YYY      -0.0000    XXZ      -0.0000    XYZ      -0.0000
       YYZ       0.0000    XZZ       0.0000    YZZ      -0.0000
       ZZZ      -0.0000
    Hexadecapole Moments (Debye-Ang^3)
      XXXX     -67.9883   XXXY       0.0000   XXYY     -13.0941
      XYYY       0.0000   YYYY     -26.7466   XXXZ       0.0000
      XXYZ      -0.0000   XYYZ       0.0000   YYYZ      -0.0000
      XXZZ     -15.4193   XYZZ       0.0000   YYZZ      -8.9471
      XZZZ       0.0000   YZZZ      -0.0000   ZZZZ     -21.1642
 -----------------------------------------------------------------
 Total job time:  104.34s(wall), 147.56s(cpu) 
 Fri Feb 25 18:03:54 2022

        *************************************************************
        *                                                           *
        *  Thank you very much for using Q-Chem.  Have a nice day.  *
        *                                                           *
        *************************************************************


