/src/tsommerfeld/qchem/exe/qcprog.exe .input2.198718.4535.qcin.1 /src/jdavis/qchem.scratch/qchem4535/

                  Welcome to Q-Chem
     A Quantum Leap Into The Future Of Chemistry


 Q-Chem 5.4 (devel), Q-Chem, Inc., Pleasanton, CA (2021)

 E. Epifanovsky,  A. T. B. Gilbert,  Xintian Feng,  Joonho Lee,  Yuezhi Mao,  
 N. Mardirossian,  P. Pokhilko,  A. White,  M. Wormit,  M. P. Coons,  
 A. L. Dempwolff,  Zhengting Gan,  D. Hait,  P. R. Horn,  L. D. Jacobson,  
 I. Kaliman,  J. Kussmann,  A. W. Lange,  Ka Un Lao,  D. S. Levine,  Jie Liu,  
 S. C. McKenzie,  A. F. Morrison,  K. Nanda,  F. Plasser,  D. R. Rehn,  
 M. L. Vidal,  Zhi-Qiang You,  Ying Zhu,  B. Alam,  B. Albrecht,  
 A. Aldossary,  E. Alguire,  J. H. Andersen,  D. Barton,  K. Begam,  A. Behn,  
 Y. A. Bernard,  E. J. Berquist,  H. Burton,  A. Carreras,  K. Carter-Fenk,  
 R. Chakraborty,  A. D. Chien,  K. D. Closser,  V. Cofer-Shabica,  
 S. Dasgupta,  Jia Deng,  M. de Wergifosse,  M. Diedenhofen,  Hainam Do,  
 S. Ehlert,  Po-Tung Fang,  S. Fatehi,  Qingguo Feng,  T. Friedhoff,  
 J. Gayvert,  Qinghui Ge,  G. Gidofalvi,  M. Goldey,  J. Gomes,  
 C. Gonzalez-Espinoza,  S. Gulania,  A. Gunina,  M. W. D. Hanson-Heine,  
 P. H. P. Harbach,  A. W. Hauser,  M. F. Herbst,  M. Hernandez Vera,  
 M. Hodecker,  Z. C. Holden,  S. Houck,  Xunkun Huang,  Kerwin Hui,  
 B. C. Huynh,  M. Ivanov,  Hyunjun Ji,  Hanjie Jiang,  B. Kaduk,  S. Kaehler,  
 K. Khistyaev,  Jaehoon Kim,  P. Klunzinger,  Z. Koczor-Benda,  
 Joong Hoon Koh,  D. Kosenkov,  L. Koulias,  T. Kowalczyk,  C. M. Krauter,  
 K. Kue,  A. Kunitsa,  T. Kus,  A. Landau,  K. V. Lawler,  D. Lefrancois,  
 S. Lehtola,  Rain Li,  Yi-Pei Li,  Jiashu Liang,  M. Liebenthal,  
 Hung-Hsuan Lin,  You-Sheng Lin,  Fenglai Liu,  Kuan-Yu Liu,  
 M. Loipersberger,  A. Luenser,  A. Manjanath,  P. Manohar,  E. Mansoor,  
 S. F. Manzer,  Shan-Ping Mao,  A. V. Marenich,  T. Markovich,  S. Mason,  
 S. A. Maurer,  P. F. McLaughlin,  M. F. S. J. Menger,  J.-M. Mewes,  
 S. A. Mewes,  P. Morgante,  J. W. Mullinax,  K. J. Oosterbaan,  G. Paran,  
 Alexander C. Paul,  Suranjan K. Paul,  F. Pavosevic,  Zheng Pei,  S. Prager,  
 E. I. Proynov,  E. Ramos,  B. Rana,  A. E. Rask,  A. Rettig,  R. M. Richard,  
 F. Rob,  E. Rossomme,  T. Scheele,  M. Scheurer,  M. Schneider,  
 N. Sergueev,  S. M. Sharada,  W. Skomorowski,  D. W. Small,  C. J. Stein,  
 Yu-Chuan Su,  E. J. Sundstrom,  Zhen Tao,  J. Thirman,  T. Tsuchimochi,  
 N. M. Tubman,  S. P. Veccham,  O. Vydrov,  J. Wenzel,  J. Witte,  A. Yamada,  
 Kun Yao,  S. Yeganeh,  S. R. Yost,  A. Zech,  Igor Ying Zhang,  Xing Zhang,  
 Yu Zhang,  D. Zuev,  A. Aspuru-Guzik,  A. T. Bell,  N. A. Besley,  
 K. B. Bravaya,  B. R. Brooks,  D. Casanova,  Jeng-Da Chai,  S. Coriani,  
 C. J. Cramer,  A. E. DePrince, III,  R. A. DiStasio Jr.,  A. Dreuw,  
 B. D. Dunietz,  T. R. Furlani,  W. A. Goddard III,  S. Grimme,  
 S. Hammes-Schiffer,  T. Head-Gordon,  W. J. Hehre,  Chao-Ping Hsu,  
 T.-C. Jagau,  Yousung Jung,  A. Klamt,  Jing Kong,  D. S. Lambrecht,  
 WanZhen Liang,  N. J. Mayhall,  C. W. McCurdy,  J. B. Neaton,  
 C. Ochsenfeld,  J. A. Parkhill,  R. Peverati,  V. A. Rassolov,  Yihan Shao,  
 L. V. Slipchenko,  T. Stauch,  R. P. Steele,  J. E. Subotnik,  
 A. J. W. Thom,  A. Tkatchenko,  D. G. Truhlar,  T. Van Voorhis,  
 T. A. Wesolowski,  K. B. Whaley,  H. L. Woodcock III,  P. M. Zimmerman,  
 S. Faraji,  P. M. W. Gill,  M. Head-Gordon,  J. M. Herbert,  A. I. Krylov

 Additional authors for Version 5.4.1: 
 S. Kotaru,  Shaozhi Li,  Xiangyuan Li,  F. Matz,  A. Molle,  Haisheng Ren,  
 Yingli Su,  Hung-Yi Tsai,  C. Utku,  Fang Wang

 Contributors to earlier versions of Q-Chem not listed above: 
 R. D. Adamson,  B. Austin,  R. Baer,  J. Baker,  G. J. O. Beran,  
 K. Brandhorst,  S. T. Brown,  E. F. C. Byrd,  A. K. Chakraborty,  
 G. K. L. Chan,  Chun-Min Chang,  Yunqing Chen,  C.-L. Cheng,  
 Siu Hung Chien,  D. M. Chipman,  D. L. Crittenden,  H. Dachsel,  
 R. J. Doerksen,  A. D. Dutoi,  R. G. Edgar,  J. Fosso-Tande,  
 L. Fusti-Molnar,  D. Ghosh,  A. Ghysels,  A. Golubeva-Zadorozhnaya,  
 J. Gonthier,  M. S. Gordon,  S. R. Gwaltney,  G. Hawkins,  J. E. Herr,  
 A. Heyden,  S. Hirata,  E. G. Hohenstein,  G. Kedziora,  F. J. Keil,  
 C. Kelley,  Jihan Kim,  R. A. King,  R. Z. Khaliullin,  P. P. Korambath,  
 W. Kurlancheek,  A. Laurent,  A. M. Lee,  M. S. Lee,  S. V. Levchenko,  
 Ching Yeh Lin,  D. Liotard,  E. Livshits,  R. C. Lochan,  I. Lotan,  
 L. A. Martinez-Martinez,  P. E. Maslen,  N. Nair,  D. P. O'Neill,  
 D. Neuhauser,  E. Neuscamman,  C. M. Oana,  R. Olivares-Amaya,  R. Olson,  
 T. M. Perrine,  B. Peters,  P. A. Pieniazek,  A. Prociuk,  Y. M. Rhee,  
 J. Ritchie,  M. A. Rohrdanz,  E. Rosta,  N. J. Russ,  H. F. Schaefer III,  
 M. W. Schmidt,  N. E. Schultz,  S. Sharma,  N. Shenvi,  C. D. Sherrill,  
 A. C. Simmonett,  A. Sodt,  T. Stein,  D. Stuck,  K. S. Thanthiriwatte,  
 V. Vanovschi,  L. Vogt,  Tao Wang,  A. Warshel,  M. A. Watson,  
 C. F. Williams,  Q. Wu,  X. Xu,  Jun Yang,  W. Zhang,  Yan Zhao

 Please cite Q-Chem as follows:
 Y. Shao et al., Mol. Phys. 113, 184-215 (2015)
 DOI: 10.1080/00268976.2014.952696

 Q-Chem 5.4.1 for Intel X86 EM64T Linux

 Parts of Q-Chem use Armadillo 9.900.5 (Nocturnal Misbehaviour).
 http://arma.sourceforge.net/

 Q-Chem begins on Fri Feb 25 18:33:29 2022  

 Host: node01
0

     Scratch files written to /src/jdavis/qchem.scratch/qchem4535//
 Processing $rem in /src/tsommerfeld/qchem/config/preferences:
 Processing $rem in /home/jdavis/.qchemrc:

 Checking the input file for inconsistencies... 	...done.

--------------------------------------------------------------
User input:
--------------------------------------------------------------
$molecule
0 1
C        -0.6645000000    0.0000000000   -0.2082049804
C         0.6645000000    0.0000000000   -0.2082049804
H        -1.1590800000    0.0000000000    0.7541440196
H         1.1590800000    0.0000000000    0.7541440196
H        -1.1590800000    0.0000000000   -1.1705529804
H         1.1590800000    0.0000000000   -1.1705529804
$end

$rem
   METHOD adc(2)
   BASIS gen
   PURECART 11
   EA_STATES [0,0,10,0,0,0,0,0]
   scf_convergence 8
   ADC_DAVIDSON_MAXITER 120
   ADC_DAVIDSON_MAXSUBSPACE 200
   adc_nguess_singles 100
   THRESH 14
   S2THRESH 14
   adc_davidson_conv 5
   adc_davidson_thresh 14
   THREADS 10
   MEM_TOTAL 95000
   STATE_ANALYSIS TRUE
$end
$basis
C     1
S    10   1.00
      8.236000D+03           5.310000D-04
      1.235000D+03           4.108000D-03
      2.808000D+02           2.108700D-02
      7.927000D+01           8.185300D-02
      2.559000D+01           2.348170D-01
      8.997000D+00           4.344010D-01
      3.319000D+00           3.461290D-01
      9.059000D-01           3.937800D-02
      3.643000D-01          -8.983000D-03
      1.285000D-01           2.385000D-03
S    1   1.00
      9.059000D-01           1.000000D+00
S    10   1.00
      8.236000D+03          -1.130000D-04
      1.235000D+03          -8.780000D-04
      2.808000D+02          -4.540000D-03
      7.927000D+01          -1.813300D-02
      2.559000D+01          -5.576000D-02
      8.997000D+00          -1.268950D-01
      3.319000D+00          -1.703520D-01
      9.059000D-01           1.403820D-01
      3.643000D-01           5.986840D-01
      1.285000D-01           3.953890D-01
S    1   1.00
      1.285000D-01           1.000000D+00
P    1   1.00
      3.827000D-01           1.000000D+00
P    5   1.00
      1.871000D+01           1.403100D-02
      4.133000D+00           8.686600D-02
      1.200000D+00           2.902160D-01
      3.827000D-01           5.010080D-01
      1.209000D-01           3.434060D-01
P    1   1.00
      1.209000D-01           1.000000D+00
P   1   1.00
      0.07595      1.0000000
P   1   1.00
      0.037975      1.0000000
D    1   1.00
      1.097000D+00           1.000000D+00
D    1   1.00
      3.180000D-01           1.000000D+00
F    1   1.00
      7.610000D-01           1.0000000
****
C     2
S    10   1.00
      8.236000D+03           5.310000D-04
      1.235000D+03           4.108000D-03
      2.808000D+02           2.108700D-02
      7.927000D+01           8.185300D-02
      2.559000D+01           2.348170D-01
      8.997000D+00           4.344010D-01
      3.319000D+00           3.461290D-01
      9.059000D-01           3.937800D-02
      3.643000D-01          -8.983000D-03
      1.285000D-01           2.385000D-03
S    1   1.00
      9.059000D-01           1.000000D+00
S    10   1.00
      8.236000D+03          -1.130000D-04
      1.235000D+03          -8.780000D-04
      2.808000D+02          -4.540000D-03
      7.927000D+01          -1.813300D-02
      2.559000D+01          -5.576000D-02
      8.997000D+00          -1.268950D-01
      3.319000D+00          -1.703520D-01
      9.059000D-01           1.403820D-01
      3.643000D-01           5.986840D-01
      1.285000D-01           3.953890D-01
S    1   1.00
      1.285000D-01           1.000000D+00
P    1   1.00
      3.827000D-01           1.000000D+00
P    5   1.00
      1.871000D+01           1.403100D-02
      4.133000D+00           8.686600D-02
      1.200000D+00           2.902160D-01
      3.827000D-01           5.010080D-01
      1.209000D-01           3.434060D-01
P    1   1.00
      1.209000D-01           1.000000D+00
P   1   1.00
      0.07595      1.0000000
P   1   1.00
      0.037975      1.0000000
D    1   1.00
      1.097000D+00           1.000000D+00
D    1   1.00
      3.180000D-01           1.000000D+00
F    1   1.00
      7.610000D-01           1.0000000
****
H 3
cc-pVTZ
****
H 4
cc-pVTZ
****
H 5
cc-pVTZ
****
H 6
cc-pVTZ
****
$end
--------------------------------------------------------------
 Atom   2: ( -0.6645000000, -0.0000001250,  0.0000000000)
         ->( -0.6645000000,  0.0000001250, -0.0000000000)
 Atom   1: (  0.6645000000, -0.0000001250, -0.0000000000)
         ->(  0.6645000000,  0.0000000000,  0.0000000000)
 Atom   6: ( -1.1590800000, -0.9623481250, -0.0000000000)
         ->( -1.1590800000, -0.9623488750,  0.0000000000)
 Atom   5: (  1.1590800000, -0.9623481250, -0.0000000000)
         ->(  1.1590800000, -0.9623488750, -0.0000000000)
 ----------------------------------------------------------------
             Standard Nuclear Orientation (Angstroms)
    I     Atom           X                Y                Z
 ----------------------------------------------------------------
    1      C       0.6645000000     0.0000000000     0.0000000000
    2      C      -0.6645000000     0.0000001250    -0.0000000000
    3      H       1.1590800000     0.9623488750     0.0000000000
    4      H      -1.1590800000     0.9623488750     0.0000000000
    5      H       1.1590800000    -0.9623488750    -0.0000000000
    6      H      -1.1590800000    -0.9623488750     0.0000000000
 ----------------------------------------------------------------
 Molecular Point Group                 D2h   NOp =  8
 Largest Abelian Subgroup              D2h   NOp =  8
 Nuclear Repulsion Energy =          33.58921667 hartrees
 There are        8 alpha and        8 beta electrons
 Requested basis set is non-standard
 There are 48 shells and 128 basis functions
 Total memory of 95000 MB is distributed as follows: 
   MEM_STATIC is set to 192 MB
   QALLOC/CCMAN JOB total memory use is  94808 MB
 Warning: actual memory use might exceed 95000 MB

 Total QAlloc Memory Limit  95000 MB
 Mega-Array Size       188 MB
 MEM_STATIC part       192 MB

                       Distance Matrix (Angstroms)
             C (  1)   C (  2)   H (  3)   H (  4)   H (  5)
   C (  2)  1.329000
   H (  3)  1.082000  2.061931
   H (  4)  2.061931  1.082000  2.318160
   H (  5)  1.082000  2.061931  1.924698  3.013026
   H (  6)  2.061931  1.082000  3.013026  1.924698  2.318160
 
 A cutoff of  1.0D-14 yielded   1176 shell pairs
 There are      8432 function pairs (     10417 Cartesian)
 Smallest overlap matrix eigenvalue = 4.11E-04

 Scale SEOQF with 1.000000e-01/1.000000e-01/1.000000e-01

 Standard Electronic Orientation quadrupole field applied
 Nucleus-field energy     =     0.0000000006 hartrees
 ================ Generating on-the-fly SAD Guess ================
Attempting to make child job directory: /src/jdavis/qchem.scratch/qchem4535//Frg1/
Attempting to make child job directory: /src/jdavis/qchem.scratch/qchem4535//Frg2/
Creating input file /src/jdavis/qchem.scratch/qchem4535/Frg1.input
using default PutDataFrgm: nothing
calling putenv with: QCSCRATCH=/src/jdavis/qchem.scratch/qchem4535/ 
Spawning Job For Fragment 0
Done Job For Fragment 0
calling putenv with: QCSCRATCH=/src/jdavis/qchem.scratch 
calling putenv with: QCTHREADS=1 
Creating input file /src/jdavis/qchem.scratch/qchem4535/Frg2.input
using default PutDataFrgm: nothing
calling putenv with: QCSCRATCH=/src/jdavis/qchem.scratch/qchem4535/ 
Spawning Job For Fragment 1
Done Job For Fragment 1
calling putenv with: QCSCRATCH=/src/jdavis/qchem.scratch 
calling putenv with: QCTHREADS=1 
 Time for running child jobs:  CPU 1.75 s  wall 53.80 s
 ============= Method Specific SAD Guess Constructed =============
 Guess from on-the-fly superposition of atomic densities
 Warning: Energy on first SCF cycle will be non-variational
 A restricted Hartree-Fock SCF calculation will be
 performed using Pulay DIIS extrapolation
 SCF converges when DIIS error is below 1.0E-08
 using 10 threads for integral computing
 -------------------------------------------------------
 OpenMP Integral computing Module                
 Release: version 1.0, May 2013, Q-Chem Inc. Pittsburgh 
 -------------------------------------------------------
 ---------------------------------------
  Cycle       Energy         DIIS Error
 ---------------------------------------
    1     -78.4659225046      3.89E-02
    2     -78.0360090898      2.90E-03
    3     -78.0576802284      7.93E-04
    4     -78.0594667722      2.78E-04
    5     -78.0596764056      3.07E-05
    6     -78.0596811615      6.52E-06
    7     -78.0596814621      1.78E-06
    8     -78.0596814949      1.84E-07
    9     -78.0596814998      2.36E-08
   10     -78.0596815002      2.48E-09 Convergence criterion met
 ---------------------------------------
 SCF time:  CPU 15.69 s  wall 1.58 s
 SCF   energy in the final basis set = -78.05968150
 Total energy in the final basis set = -78.05968150
================================================================================
|                                                                              |
|                                 A D C  M A N                                 |
|                                                                              |
 ------------------------------------------------------------------------------ 
|                                                                              |
| Components:                                                                  |
|                                                                              |
| - libvmm - 1.3-trunk                                                         |
|   Authors:                                                                   |
|   Evgeny Epifanovsky, Ilya Kaliman                                           |
|                                                                              |
| - libtensor - 2.5-trunk                                                      |
|   Authors:                                                                   |
|   Evgeny Epifanovsky, Michael Wormit, Dmitry Zuev, Sam Manzer,               |
|   Ilya Kaliman                                                               |
|                                                                              |
| - libwfa - 1.1-trunk                                                         |
|   Authors:                                                                   |
|   Felix Plasser, Stefanie Mewes (Baeppler), Benjamin Thomitzni,              |
|   Michael Wormit, Feng Chen, Anna I. Krylov, Pavel Pokhilko                  |
|                                                                              |
| - libadc - 1.1-trunk                                                         |
|   Authors:                                                                   |
|   Michael Wormit, Adrian L. Dempwolff, Philipp H. P. Harbach,                |
|   Caroline Krauter, Dirk Rehn, Matthias Schneider, Jan Wenzel                |
|                                                                              |
| - adcman - 2.6-trunk                                                         |
|   Authors:                                                                   |
|   Michael Wormit, Adrian L. Dempwolff, Philipp H. P. Harbach,                |
|   Caroline Krauter, Daniel Lefrancois, Jan-Michael Mewes, Dirk Rehn,         |
|   Matthias Schneider, Jan Wenzel, Andreas Dreuw                              |
|                                                                              |
| Authors of earlier versions of ADCMAN:                                       |
| Andreas Dreuw, Jan Hendrik Starcke, Dirk Rehn, Michael Wormit                |
|                                                                              |
================================================================================

 
 Alpha MOs, Restricted
 -- Occupied --                  
-11.228 -11.226  -1.040  -0.781  -0.660  -0.568  -0.516  -0.377
  1 Ag    1 B3u   2 Ag    2 B3u   1 B2u   3 Ag    1 B1g   1 B1u                
 -- Virtual --                   
  0.070   0.074   0.085   0.092   0.104   0.109   0.157   0.172
  3 B3u   2 B2u   2 B1u   1 B2g   2 B1g   4 Ag    5 Ag    2 B2g                
  0.265   0.273   0.288   0.290   0.310   0.310   0.321   0.390
  4 B3u   3 B2u   6 Ag    5 B3u   4 B2u   3 B1u   3 B1g   3 B2g                
  0.458   0.464   0.479   0.625   0.632   0.661   0.666   0.725
  4 B1g   7 Ag    6 B3u   8 Ag    5 B2u   7 B3u   1 B3g   8 B3u                
  0.753   0.760   0.778   0.828   0.831   0.888   0.907   0.917
  6 B2u   9 Ag    5 B1g   1 Au    4 B1u   9 B3u   4 B2g   5 B1u                
  1.001   1.013   1.064   1.098   1.188   1.206   1.254   1.363
  6 B1g  10 Ag    7 B2u   7 B1g   6 B1u   5 B2g   2 B3g  10 B3u                
  1.385   1.411   1.467   1.509   1.544   1.550   1.635   1.683
 11 Ag    6 B2g   8 B2u  11 B3u  12 Ag    9 B2u   2 Au    8 B1g                
  1.736   1.834   1.901   1.996   2.297   2.672   2.693   2.708
 12 B3u  13 B3u  13 Ag    9 B1g  14 Ag    7 B1u  15 Ag   10 B2u                
  2.758   2.779   2.861   2.866   2.915   2.998   3.079   3.104
  7 B2g   8 B1u  14 B3u  11 B2u   3 B3g  10 B1g  11 B1g   9 B1u                
  3.105   3.146   3.152   3.163   3.191   3.270   3.340   3.341
  4 B3g  12 B2u   3 Au   16 Ag   17 Ag    8 B2g  13 B2u  15 B3u                
  3.418   3.426   3.447   3.491   3.524   3.550   3.600   3.641
  9 B2g   4 Au   16 B3u  12 B1g  17 B3u  10 B1u  18 Ag    5 B3g                
  3.748   3.817   3.899   3.966   3.977   3.985   4.014   4.046
 14 B2u  13 B1g  18 B3u  14 B1g   5 Au   10 B2g  15 B2u  19 Ag                 
  4.061   4.193   4.198   4.202   4.215   4.332   4.351   4.502
 11 B1u  15 B1g  19 B3u   6 B3g  20 Ag   12 B1u  11 B2g  16 B2u                
  4.535   4.606   4.698   4.775   4.815   4.944   4.979   5.051
 20 B3u   6 Au   21 Ag   21 B3u  12 B2g  13 B1u  22 Ag   16 B1g                
  5.150   5.216   5.306   5.323   5.426   5.462   5.545   5.570
 17 B2u   7 B3g  22 B3u  23 Ag    7 Au   17 B1g  13 B2g  24 Ag                 
  5.680   6.051   6.141   6.323   6.611   6.883  12.301  14.807
 18 B2u  23 B3u  18 B1g  19 B2u  24 B3u  19 B1g  25 Ag   25 B3u                
 
 Beta MOs, Restricted
 -- Occupied --                  
-11.228 -11.226  -1.040  -0.781  -0.660  -0.568  -0.516  -0.377
  1 Ag    1 B3u   2 Ag    2 B3u   1 B2u   3 Ag    1 B1g   1 B1u                
 -- Virtual --                   
  0.070   0.074   0.085   0.092   0.104   0.109   0.157   0.172
  3 B3u   2 B2u   2 B1u   1 B2g   2 B1g   4 Ag    5 Ag    2 B2g                
  0.265   0.273   0.288   0.290   0.310   0.310   0.321   0.390
  4 B3u   3 B2u   6 Ag    5 B3u   4 B2u   3 B1u   3 B1g   3 B2g                
  0.458   0.464   0.479   0.625   0.632   0.661   0.666   0.725
  4 B1g   7 Ag    6 B3u   8 Ag    5 B2u   7 B3u   1 B3g   8 B3u                
  0.753   0.760   0.778   0.828   0.831   0.888   0.907   0.917
  6 B2u   9 Ag    5 B1g   1 Au    4 B1u   9 B3u   4 B2g   5 B1u                
  1.001   1.013   1.064   1.098   1.188   1.206   1.254   1.363
  6 B1g  10 Ag    7 B2u   7 B1g   6 B1u   5 B2g   2 B3g  10 B3u                
  1.385   1.411   1.467   1.509   1.544   1.550   1.635   1.683
 11 Ag    6 B2g   8 B2u  11 B3u  12 Ag    9 B2u   2 Au    8 B1g                
  1.736   1.834   1.901   1.996   2.297   2.672   2.693   2.708
 12 B3u  13 B3u  13 Ag    9 B1g  14 Ag    7 B1u  15 Ag   10 B2u                
  2.758   2.779   2.861   2.866   2.915   2.998   3.079   3.104
  7 B2g   8 B1u  14 B3u  11 B2u   3 B3g  10 B1g  11 B1g   9 B1u                
  3.105   3.146   3.152   3.163   3.191   3.270   3.340   3.341
  4 B3g  12 B2u   3 Au   16 Ag   17 Ag    8 B2g  13 B2u  15 B3u                
  3.418   3.426   3.447   3.491   3.524   3.550   3.600   3.641
  9 B2g   4 Au   16 B3u  12 B1g  17 B3u  10 B1u  18 Ag    5 B3g                
  3.748   3.817   3.899   3.966   3.977   3.985   4.014   4.046
 14 B2u  13 B1g  18 B3u  14 B1g   5 Au   10 B2g  15 B2u  19 Ag                 
  4.061   4.193   4.198   4.202   4.215   4.332   4.351   4.502
 11 B1u  15 B1g  19 B3u   6 B3g  20 Ag   12 B1u  11 B2g  16 B2u                
  4.535   4.606   4.698   4.775   4.815   4.944   4.979   5.051
 20 B3u   6 Au   21 Ag   21 B3u  12 B2g  13 B1u  22 Ag   16 B1g                
  5.150   5.216   5.306   5.323   5.426   5.462   5.545   5.570
 17 B2u   7 B3g  22 B3u  23 Ag    7 Au   17 B1g  13 B2g  24 Ag                 
  5.680   6.051   6.141   6.323   6.611   6.883  12.301  14.807
 18 B2u  23 B3u  18 B1g  19 B2u  24 B3u  19 B1g  25 Ag   25 B3u                

--------------------------------------------------------------------------------
                                   HF Summary                                   
--------------------------------------------------------------------------------
  Energy:                                                  -78.0596815002 a.u.
  Dip. moment [a.u.]:                  [   0.000000,   -0.000000,   -0.000000]
  Total dipole [Debye]:                                               0.000001
  <r^2> [a.u.]:                        [  47.676890,   22.100056,   11.968452]
  Total <r^2> [a.u.]:                                                81.745397
--------------------------------------------------------------------------------

--------------------------------------------------------------------------------
                                 MP(2) Summary                                  
--------------------------------------------------------------------------------
  MP energy contribution:                                   -0.3677515804 a.u.
  Total energy:                                            -78.4274330806 a.u.
  Dip. moment [a.u.]:                  [   0.000000,   -0.000001,   -0.000000]
  Total dipole [Debye]:                                               0.000001
  <r^2> [a.u.]:                        [  47.645913,   21.991868,   11.729503]
  Total <r^2> [a.u.]:                                                81.367285

  Density matrix analysis:
  ------------------------
  NOs (alpha)
    Occupation of frontier NOs:
       0.0226   0.9661
    Number of electrons:  8.000000
  NOs (beta)
    Occupation of frontier NOs:
       0.0226   0.9661
    Number of electrons:  8.000000
  NOs (spin-traced)
    Occupation of frontier NOs:
       0.0452   1.9321
    Number of electrons: 16.000000
    Number of unpaired electrons: n_u =  0.45299, n_u,nl =  0.05294
    NO participation ratio (PR_NO): 14.827923
  
  
  Mulliken Population Analysis
  Atom  Charge (e)    Spin (e)  h+ (alpha)   h+ (beta)  e- (alpha)   e- (beta)
  ----------------------------------------------------------------------------
   1 C   -0.303107    0.000000    0.044856    0.044856   -0.060167   -0.060167
   2 C   -0.303107    0.000000    0.044856    0.044856   -0.060167   -0.060167
   3 H    0.151533    0.000000    0.012495    0.012495   -0.004840   -0.004840
   4 H    0.151597    0.000000    0.012495    0.012495   -0.004839   -0.004839
   5 H    0.151574   -0.000000    0.012495    0.012495   -0.004839   -0.004839
   6 H    0.151510    0.000000    0.012495    0.012495   -0.004840   -0.004840
  ----------------------------------------------------------------------------
  Sum:   -0.000000    0.000000    0.139692    0.139692   -0.139692   -0.139692
  
  Multipole moment analysis of the density matrix
    Molecular charge:                      -0.000000
    Number of electrons:                   16.000000
      Center of electronic charge [Ang]: [ -0.000000,   0.000000,   0.000000]
    Total nuclear charge:                  16.000000
      Center of nuclear charge [Ang]:    [  0.000000,   0.000000,   0.000000]
    Dipole moment [D]:                     0.000001
      Cartesian components [D]:          [  0.000000,  -0.000001,  -0.000000]
    RMS size of the density [Ang]:         1.193345
      Cartesian components [Ang]:        [  0.913175,   0.620401,   0.453086]
  
  Exciton analysis of the difference density matrix
  Total:
    <r_h> [Ang]:                  [  0.000000,   0.000000,  -0.000000]
    <r_e> [Ang]:                  [ -0.000000,   0.000000,   0.000000]
    |<r_e - r_h>| [Ang]:            0.000000
    Hole size [Ang]:                1.446149
      Cartesian components [Ang]: [  0.970697,   0.749219,   0.766659]
    Electron size [Ang]:            1.308572
      Cartesian components [Ang]: [  0.954570,   0.672972,   0.590140]
  
  Alpha spin:
    <r_h> [Ang]:                  [  0.000000,   0.000000,  -0.000000]
    <r_e> [Ang]:                  [ -0.000000,   0.000000,   0.000000]
    |<r_e - r_h>| [Ang]:            0.000000
    Hole size [Ang]:                1.446149
      Cartesian components [Ang]: [  0.970697,   0.749219,   0.766659]
    Electron size [Ang]:            1.308572
      Cartesian components [Ang]: [  0.954570,   0.672972,   0.590140]
  
  Beta spin:
    <r_h> [Ang]:                  [  0.000000,   0.000000,  -0.000000]
    <r_e> [Ang]:                  [ -0.000000,   0.000000,   0.000000]
    |<r_e - r_h>| [Ang]:            0.000000
    Hole size [Ang]:                1.446149
      Cartesian components [Ang]: [  0.970697,   0.749219,   0.766659]
    Electron size [Ang]:            1.308572
      Cartesian components [Ang]: [  0.954570,   0.672972,   0.590140]
--------------------------------------------------------------------------------
Less particle guess vectors found than requested: 13 (found), 100 (requested).
Adjusting number of hole-2particle guess vectors to 87.
  Starting Davidson for electron-attached states of irrep B2g ... 
--------------------------------------------------------------------------------
   It NVec Conv  Avg. Norm  Max. Norm  Conv. states           Remark
--------------------------------------------------------------------------------
       100    0  5.426e-02  3.849e-01  0.0939 n n n n n n n n Guess.
    1  110    4  7.763e-04  4.993e-03  0.0687 n n n n n y y y 
    2  120   10  6.127e-07  4.323e-06  0.0687 y y y y y y y y Converged.
--------------------------------------------------------------------------------
  Davidson Summary: 
 ------------------------------------------------------------
  State  0: electron attachment energy =   0.0687 a.u.   (converged)
  State  1: electron attachment energy =   0.1304 a.u.   (converged)
  State  2: electron attachment energy =   0.3490 a.u.   (converged)
  State  3: electron attachment energy =   0.5545 a.u.   (converged)
  State  4: electron attachment energy =   0.5547 a.u.   (converged)
  State  5: electron attachment energy =   0.5550 a.u.   (converged)
  State  6: electron attachment energy =   0.5550 a.u.   (converged)
  State  7: electron attachment energy =   0.5572 a.u.   (converged)
  State  8: electron attachment energy =   0.5573 a.u.   (converged)
  State  9: electron attachment energy =   0.6048 a.u.   (converged)
 ------------------------------------------------------------


--------------------------------------------------------------------------------
                        Electron-Attached State Summary
--------------------------------------------------------------------------------

  Electron-attached state 1 (B2g)                                  [converged]
  ----------------------------------------------------------------------------
  Term symbol:  1 (2) B2g                                   R^2 =  4.32298e-06

  Total energy:                                            -78.3587272334 a.u.
  Electron attachment energy:                                      1.869581 eV

  Pole strength:                                                      0.953671

  Dip. moment [a.u.]:                  [   0.000000,   -0.000001,   -0.000000]
  Total dipole [Debye]:                                               0.000002
  <r^2> [a.u.]:                        [  61.136463,   26.926505,   23.660183]
  Total <r^2> [a.u.]:                                               111.723150

  V1^2 = 0.9644, V2^2 = 0.0356

  Important amplitudes:
       occ i       vir a        vir b           v   
    -------------------------------------------------
                               1 (B2g) B     -0.8990
                               2 (B2g) B      0.3847
    -------------------------------------------------

  Density matrix analysis:
  ------------------------
  NOs (alpha)
    Occupation of frontier NOs:
       0.0190   0.9638
    Number of electrons:  8.000000
  NOs (beta)
    Occupation of frontier NOs:
       0.0225   0.9720
    Number of electrons:  9.000000
  NOs (spin-traced)
    Occupation of frontier NOs:
       0.0322   0.9871
    Number of electrons: 17.000000
    Number of unpaired electrons: n_u =  1.47046, n_u,nl =  1.05343
    NO participation ratio (PR_NO):  2.187497
  
  
  Mulliken Population Analysis
  Atom  Charge (e)    Spin (e)  h+ (alpha)   h+ (beta)  e- (alpha)   e- (beta)
  ----------------------------------------------------------------------------
   1 C   -0.712077    0.527413    0.076715    0.061226   -0.017494   -0.529417
   2 C   -0.712077    0.527413    0.076715    0.061226   -0.017494   -0.529417
   3 H    0.106017   -0.013705    0.000778    0.006744   -0.030389   -0.022649
   4 H    0.106082   -0.013708    0.000778    0.006744   -0.030390   -0.022647
   5 H    0.106061   -0.013708    0.000779    0.006744   -0.030389   -0.022647
   6 H    0.105995   -0.013704    0.000779    0.006744   -0.030389   -0.022649
  ----------------------------------------------------------------------------
  Sum:   -1.000000    1.000000    0.156544    0.149428   -0.156544   -1.149428
  
  Multipole moment analysis of the density matrix
    Molecular charge:                      -1.000000
    Number of electrons:                   17.000000
      Center of electronic charge [Ang]: [ -0.000000,   0.000000,   0.000000]
    Total nuclear charge:                  16.000000
      Center of nuclear charge [Ang]:    [  0.000000,   0.000000,   0.000000]
    Dipole moment [D]:                     0.000002
      Cartesian components [D]:          [  0.000000,  -0.000002,  -0.000000]
    RMS size of the density [Ang]:         1.356589
      Cartesian components [Ang]:        [  1.003522,   0.665988,   0.624289]
  
  Exciton analysis of the difference density matrix
  Total:
    <r_h> [Ang]:                  [  0.000000,   0.000000,   0.000000]
    <r_e> [Ang]:                  [  0.000000,   0.000000,   0.000000]
    |<r_e - r_h>| [Ang]:            0.000000
    Hole size [Ang]:                1.462449
      Cartesian components [Ang]: [  1.027039,   0.741507,   0.730831]
    Electron size [Ang]:            2.647647
      Cartesian components [Ang]: [  1.771946,   1.089455,   1.638088]
  
  Alpha spin:
    <r_h> [Ang]:                  [ -0.000000,   0.000000,   0.000000]
    <r_e> [Ang]:                  [ -0.000000,   0.000000,  -0.000000]
    |<r_e - r_h>| [Ang]:            0.000000
    Hole size [Ang]:                1.409055
      Cartesian components [Ang]: [  1.006755,   0.715880,   0.677786]
    Electron size [Ang]:            2.165685
      Cartesian components [Ang]: [  1.410710,   1.261833,   1.052552]
  
  Beta spin:
    <r_h> [Ang]:                  [  0.000000,   0.000000,   0.000000]
    <r_e> [Ang]:                  [  0.000000,   0.000000,   0.000000]
    |<r_e - r_h>| [Ang]:            0.000000
    Hole size [Ang]:                1.516370
      Cartesian components [Ang]: [  1.047867,   0.767437,   0.782555]
    Electron size [Ang]:            2.706655
      Cartesian components [Ang]: [  1.815592,   1.063819,   1.702322]
  ----------------------------------------------------------------------------


  Electron-attached state 2 (B2g)                                  [converged]
  ----------------------------------------------------------------------------
  Term symbol:  2 (2) B2g                                   R^2 =  3.88851e-06

  Total energy:                                            -78.2969898987 a.u.
  Electron attachment energy:                                      3.549539 eV

  Pole strength:                                                      0.965211

  Dip. moment [a.u.]:                  [   0.000000,   -0.000001,   -0.000000]
  Total dipole [Debye]:                                               0.000002
  <r^2> [a.u.]:                        [  70.377590,   29.864682,   33.309874]
  Total <r^2> [a.u.]:                                               133.552145

  V1^2 = 0.9720, V2^2 = 0.0280

  Important amplitudes:
       occ i       vir a        vir b           v   
    -------------------------------------------------
                               2 (B2g) B     -0.8828
                               1 (B2g) B     -0.4219
    -------------------------------------------------

  Density matrix analysis:
  ------------------------
  NOs (alpha)
    Occupation of frontier NOs:
       0.0220   0.9614
    Number of electrons:  8.000000
  NOs (beta)
    Occupation of frontier NOs:
       0.0280   0.9702
    Number of electrons:  9.000000
  NOs (spin-traced)
    Occupation of frontier NOs:
       0.0428   0.9852
    Number of electrons: 17.000000
    Number of unpaired electrons: n_u =  1.47873, n_u,nl =  1.05797
    NO participation ratio (PR_NO):  2.217914
  
  
  Mulliken Population Analysis
  Atom  Charge (e)    Spin (e)  h+ (alpha)   h+ (beta)  e- (alpha)   e- (beta)
  ----------------------------------------------------------------------------
   1 C   -0.719973    0.500085    0.057785    0.040470   -0.016175   -0.498946
   2 C   -0.719973    0.500085    0.057785    0.040470   -0.016175   -0.498946
   3 H    0.109965   -0.000042    0.000693    0.001941   -0.021498   -0.022704
   4 H    0.110030   -0.000043    0.000693    0.001941   -0.021499   -0.022703
   5 H    0.110008   -0.000043    0.000694    0.001941   -0.021498   -0.022703
   6 H    0.109943   -0.000041    0.000694    0.001941   -0.021498   -0.022704
  ----------------------------------------------------------------------------
  Sum:   -1.000000    1.000000    0.118343    0.088705   -0.118343   -1.088705
  
  Multipole moment analysis of the density matrix
    Molecular charge:                      -1.000000
    Number of electrons:                   17.000000
      Center of electronic charge [Ang]: [ -0.000000,   0.000000,   0.000000]
    Total nuclear charge:                  16.000000
      Center of nuclear charge [Ang]:    [  0.000000,   0.000000,   0.000000]
    Dipole moment [D]:                     0.000002
      Cartesian components [D]:          [  0.000000,  -0.000002,  -0.000000]
    RMS size of the density [Ang]:         1.483208
      Cartesian components [Ang]:        [  1.076698,   0.701384,   0.740736]
  
  Exciton analysis of the difference density matrix
  Total:
    <r_h> [Ang]:                  [  0.000000,   0.000000,   0.000000]
    <r_e> [Ang]:                  [  0.000000,   0.000000,   0.000000]
    |<r_e - r_h>| [Ang]:            0.000000
    Hole size [Ang]:                1.311816
      Cartesian components [Ang]: [  0.964246,   0.677332,   0.576464]
    Electron size [Ang]:            3.521617
      Cartesian components [Ang]: [  2.330903,   1.380270,   2.250229]
  
  Alpha spin:
    <r_h> [Ang]:                  [ -0.000000,   0.000000,   0.000000]
    <r_e> [Ang]:                  [ -0.000000,   0.000000,  -0.000000]
    |<r_e - r_h>| [Ang]:            0.000000
    Hole size [Ang]:                1.322744
      Cartesian components [Ang]: [  0.961841,   0.664933,   0.618368]
    Electron size [Ang]:            2.125680
      Cartesian components [Ang]: [  1.395487,   1.231056,   1.027439]
  
  Beta spin:
    <r_h> [Ang]:                  [  0.000000,   0.000000,   0.000000]
    <r_e> [Ang]:                  [  0.000000,   0.000000,   0.000000]
    |<r_e - r_h>| [Ang]:            0.000000
    Hole size [Ang]:                1.297092
      Cartesian components [Ang]: [  0.967447,   0.693528,   0.515281]
    Electron size [Ang]:            3.641250
      Cartesian components [Ang]: [  2.410811,   1.395528,   2.345035]
  ----------------------------------------------------------------------------


  Electron-attached state 3 (B2g)                                  [converged]
  ----------------------------------------------------------------------------
  Term symbol:  3 (2) B2g                                   R^2 =  1.93289e-06

  Total energy:                                            -78.0784576130 a.u.
  Electron attachment energy:                                      9.496105 eV

  Pole strength:                                                      0.959079

  Dip. moment [a.u.]:                  [   0.000000,   -0.000001,   -0.000000]
  Total dipole [Debye]:                                               0.000002
  <r^2> [a.u.]:                        [  64.249520,   27.948824,   27.756844]
  Total <r^2> [a.u.]:                                               119.955188

  V1^2 = 0.9615, V2^2 = 0.0385

  Important amplitudes:
       occ i       vir a        vir b           v   
    -------------------------------------------------
                               3 (B2g) B      0.9599
                               2 (B2g) B     -0.1788
    -------------------------------------------------

  Density matrix analysis:
  ------------------------
  NOs (alpha)
    Occupation of frontier NOs:
       0.0307   0.9502
    Number of electrons:  8.000000
  NOs (beta)
    Occupation of frontier NOs:
       0.0357   0.9652
    Number of electrons:  9.000000
  NOs (spin-traced)
    Occupation of frontier NOs:
       0.0638   0.9680
    Number of electrons: 17.000000
    Number of unpaired electrons: n_u =  1.51877, n_u,nl =  1.07640
    NO participation ratio (PR_NO):  2.408122
  
  
  Mulliken Population Analysis
  Atom  Charge (e)    Spin (e)  h+ (alpha)   h+ (beta)  e- (alpha)   e- (beta)
  ----------------------------------------------------------------------------
   1 C   -0.723885    0.506936    0.051582    0.038591   -0.008503   -0.502448
   2 C   -0.723885    0.506936    0.051582    0.038591   -0.008503   -0.502448
   3 H    0.111922   -0.003468   -0.001565   -0.001171   -0.019975   -0.016900
   4 H    0.111985   -0.003468   -0.001565   -0.001172   -0.019975   -0.016900
   5 H    0.111963   -0.003468   -0.001565   -0.001172   -0.019975   -0.016900
   6 H    0.111900   -0.003467   -0.001564   -0.001171   -0.019974   -0.016900
  ----------------------------------------------------------------------------
  Sum:   -1.000000    1.000000    0.096905    0.072496   -0.096905   -1.072496
  
  Multipole moment analysis of the density matrix
    Molecular charge:                      -1.000000
    Number of electrons:                   17.000000
      Center of electronic charge [Ang]: [ -0.000000,   0.000000,   0.000000]
    Total nuclear charge:                  16.000000
      Center of nuclear charge [Ang]:    [  0.000000,   0.000000,   0.000000]
    Dipole moment [D]:                     0.000002
      Cartesian components [D]:          [  0.000000,  -0.000002,  -0.000000]
    RMS size of the density [Ang]:         1.405679
      Cartesian components [Ang]:        [  1.028754,   0.678513,   0.676179]
  
  Exciton analysis of the difference density matrix
  Total:
    <r_h> [Ang]:                  [  0.000000,   0.000000,  -0.000000]
    <r_e> [Ang]:                  [  0.000000,   0.000000,   0.000000]
    |<r_e - r_h>| [Ang]:            0.000000
    Hole size [Ang]:                1.353107
      Cartesian components [Ang]: [  0.974824,   0.710800,   0.612684]
    Electron size [Ang]:            3.083117
      Cartesian components [Ang]: [  2.028204,   1.224606,   1.972900]
  
  Alpha spin:
    <r_h> [Ang]:                  [ -0.000000,   0.000000,   0.000000]
    <r_e> [Ang]:                  [ -0.000000,   0.000000,  -0.000000]
    |<r_e - r_h>| [Ang]:            0.000000
    Hole size [Ang]:                1.258998
      Cartesian components [Ang]: [  0.926465,   0.643218,   0.559471]
    Electron size [Ang]:            2.085925
      Cartesian components [Ang]: [  1.376673,   1.218368,   0.985615]
  
  Beta spin:
    <r_h> [Ang]:                  [  0.000000,   0.000000,  -0.000000]
    <r_e> [Ang]:                  [  0.000000,   0.000000,   0.000000]
    |<r_e - r_h>| [Ang]:            0.000000
    Hole size [Ang]:                1.469521
      Cartesian components [Ang]: [  1.035945,   0.792184,   0.677315]
    Electron size [Ang]:            3.157744
      Cartesian components [Ang]: [  2.077030,   1.225169,   2.038689]
  ----------------------------------------------------------------------------


  Electron-attached state 4 (B2g)                                  [converged]
  ----------------------------------------------------------------------------
  Term symbol:  4 (2) B2g                                   R^2 =  2.52364e-08

  Total energy:                                            -77.8729217600 a.u.
  Electron attachment energy:                                     15.089020 eV

  Pole strength:                                                      0.000819

  Dip. moment [a.u.]:                  [   0.000000,   -0.000001,    0.000000]
  Total dipole [Debye]:                                               0.000002
  <r^2> [a.u.]:                        [  79.614214,   39.263213,   63.363942]
  Total <r^2> [a.u.]:                                               182.241369

  V1^2 = 0.0008, V2^2 = 0.9992

  Important amplitudes:
       occ i       vir a        vir b           v   
    -------------------------------------------------
     1 (B1u) B    1 (B2g) B    2 (B1u) B      0.5499
     1 (B1u) A    2 (B1u) A    1 (B2g) B     -0.4248
    -------------------------------------------------

  Density matrix analysis:
  ------------------------
  NOs (alpha)
    Occupation of frontier NOs:
       0.3595   0.5748
    Number of electrons:  8.000000
  NOs (beta)
    Occupation of frontier NOs:
       0.3592   0.6395
    Number of electrons:  9.000000
  NOs (spin-traced)
    Occupation of frontier NOs:
       0.9091   1.0049
    Number of electrons: 17.000000
    Number of unpaired electrons: n_u =  3.25987, n_u,nl =  3.01587
    NO participation ratio (PR_NO):  3.825150
  
  
  Mulliken Population Analysis
  Atom  Charge (e)    Spin (e)  h+ (alpha)   h+ (beta)  e- (alpha)   e- (beta)
  ----------------------------------------------------------------------------
   1 C   -0.809182    0.498378    0.193115    0.296423   -0.196964   -0.798650
   2 C   -0.809182    0.498378    0.193115    0.296423   -0.196964   -0.798650
   3 H    0.154570    0.000811    0.002273    0.003501   -0.000349   -0.002388
   4 H    0.154634    0.000811    0.002273    0.003501   -0.000349   -0.002388
   5 H    0.154612    0.000811    0.002273    0.003501   -0.000349   -0.002388
   6 H    0.154548    0.000811    0.002273    0.003501   -0.000349   -0.002388
  ----------------------------------------------------------------------------
  Sum:   -1.000000    1.000000    0.395324    0.606851   -0.395324   -1.606851
  
  Multipole moment analysis of the density matrix
    Molecular charge:                      -1.000000
    Number of electrons:                   17.000000
      Center of electronic charge [Ang]: [ -0.000000,   0.000000,  -0.000000]
    Total nuclear charge:                  16.000000
      Center of nuclear charge [Ang]:    [  0.000000,   0.000000,   0.000000]
    Dipole moment [D]:                     0.000002
      Cartesian components [D]:          [  0.000000,  -0.000002,   0.000000]
    RMS size of the density [Ang]:         1.732607
      Cartesian components [Ang]:        [  1.145175,   0.804210,   1.021640]
  
  Exciton analysis of the difference density matrix
  Total:
    <r_h> [Ang]:                  [ -0.000000,   0.000000,   0.000000]
    <r_e> [Ang]:                  [ -0.000000,   0.000000,   0.000000]
    |<r_e - r_h>| [Ang]:            0.000000
    Hole size [Ang]:                1.261847
      Cartesian components [Ang]: [  0.748273,   0.521291,   0.872125]
    Electron size [Ang]:            3.860760
      Cartesian components [Ang]: [  2.179774,   1.597382,   2.757249]
  
  Alpha spin:
    <r_h> [Ang]:                  [ -0.000000,   0.000000,   0.000000]
    <r_e> [Ang]:                  [ -0.000000,   0.000000,  -0.000000]
    |<r_e - r_h>| [Ang]:            0.000000
    Hole size [Ang]:                1.263950
      Cartesian components [Ang]: [  0.749142,   0.522409,   0.873753]
    Electron size [Ang]:            3.917277
      Cartesian components [Ang]: [  1.860666,   1.730370,   2.981409]
  
  Beta spin:
    <r_h> [Ang]:                  [ -0.000000,   0.000000,   0.000000]
    <r_e> [Ang]:                  [  0.000000,   0.000000,   0.000000]
    |<r_e - r_h>| [Ang]:            0.000000
    Hole size [Ang]:                1.260476
      Cartesian components [Ang]: [  0.747706,   0.520562,   0.871063]
    Electron size [Ang]:            3.846728
      Cartesian components [Ang]: [  2.251361,   1.562930,   2.699248]
  ----------------------------------------------------------------------------


  Electron-attached state 5 (B2g)                                  [converged]
  ----------------------------------------------------------------------------
  Term symbol:  5 (2) B2g                                   R^2 =  1.68348e-08

  Total energy:                                            -77.8727472469 a.u.
  Electron attachment energy:                                     15.093769 eV

  Pole strength:                                                      0.002475

  Dip. moment [a.u.]:                  [   0.000000,   -0.000001,    0.000000]
  Total dipole [Debye]:                                               0.000002
  <r^2> [a.u.]:                        [  79.807480,   39.422261,   63.426899]
  Total <r^2> [a.u.]:                                               182.656639

  V1^2 = 0.0025, V2^2 = 0.9975

  Important amplitudes:
       occ i       vir a        vir b           v   
    -------------------------------------------------
     1 (B1u) A    1 (B2g) A    2 (B1u) B      0.5607
     1 (B1u) A    2 (B1u) A    1 (B2g) B      0.3900
    -------------------------------------------------

  Density matrix analysis:
  ------------------------
  NOs (alpha)
    Occupation of frontier NOs:
       0.3052   0.6324
    Number of electrons:  8.000000
  NOs (beta)
    Occupation of frontier NOs:
       0.3663   0.6875
    Number of electrons:  9.000000
  NOs (spin-traced)
    Occupation of frontier NOs:
       0.9335   0.9955
    Number of electrons: 17.000000
    Number of unpaired electrons: n_u =  3.31748, n_u,nl =  3.02515
    NO participation ratio (PR_NO):  3.836422
  
  
  Mulliken Population Analysis
  Atom  Charge (e)    Spin (e)  h+ (alpha)   h+ (beta)  e- (alpha)   e- (beta)
  ----------------------------------------------------------------------------
   1 C   -0.809456    0.490628    0.457974    0.029409   -0.465834   -0.527898
   2 C   -0.809456    0.490628    0.457974    0.029409   -0.465834   -0.527898
   3 H    0.154707    0.004686    0.005432    0.000336   -0.001502   -0.001092
   4 H    0.154771    0.004686    0.005432    0.000336   -0.001502   -0.001092
   5 H    0.154749    0.004686    0.005432    0.000336   -0.001502   -0.001092
   6 H    0.154685    0.004686    0.005432    0.000336   -0.001502   -0.001092
  ----------------------------------------------------------------------------
  Sum:   -1.000000    1.000000    0.937675    0.060162   -0.937675   -1.060162
  
  Multipole moment analysis of the density matrix
    Molecular charge:                      -1.000000
    Number of electrons:                   17.000000
      Center of electronic charge [Ang]: [ -0.000000,   0.000000,  -0.000000]
    Total nuclear charge:                  16.000000
      Center of nuclear charge [Ang]:    [  0.000000,   0.000000,   0.000000]
    Dipole moment [D]:                     0.000002
      Cartesian components [D]:          [  0.000000,  -0.000002,   0.000000]
    RMS size of the density [Ang]:         1.734580
      Cartesian components [Ang]:        [  1.146564,   0.805837,   1.022147]
  
  Exciton analysis of the difference density matrix
  Total:
    <r_h> [Ang]:                  [ -0.000000,   0.000000,   0.000000]
    <r_e> [Ang]:                  [ -0.000000,   0.000000,   0.000000]
    |<r_e - r_h>| [Ang]:            0.000000
    Hole size [Ang]:                1.244055
      Cartesian components [Ang]: [  0.741581,   0.512536,   0.857344]
    Electron size [Ang]:            3.869148
      Cartesian components [Ang]: [  2.186922,   1.604478,   2.759226]
  
  Alpha spin:
    <r_h> [Ang]:                  [ -0.000000,   0.000000,   0.000000]
    <r_e> [Ang]:                  [  0.000000,   0.000000,   0.000000]
    |<r_e - r_h>| [Ang]:            0.000000
    Hole size [Ang]:                1.243468
      Cartesian components [Ang]: [  0.741317,   0.512170,   0.856939]
    Electron size [Ang]:            3.844570
      Cartesian components [Ang]: [  2.303330,   1.547287,   2.661071]
  
  Beta spin:
    <r_h> [Ang]:                  [ -0.000000,   0.000000,   0.000000]
    <r_e> [Ang]:                  [ -0.000000,   0.000000,   0.000000]
    |<r_e - r_h>| [Ang]:            0.000000
    Hole size [Ang]:                1.253166
      Cartesian components [Ang]: [  0.745688,   0.518201,   0.863622]
    Electron size [Ang]:            3.890757
      Cartesian components [Ang]: [  2.078537,   1.653414,   2.843219]
  ----------------------------------------------------------------------------


  Electron-attached state 6 (B2g)                                  [converged]
  ----------------------------------------------------------------------------
  Term symbol:  6 (2) B2g                                   R^2 =  3.80039e-10

  Total energy:                                            -77.8724381757 a.u.
  Electron attachment energy:                                     15.102179 eV

  Pole strength:                                                      0.000000

  Dip. moment [a.u.]:                  [  -0.000000,    0.000000,   -0.000000]
  Total dipole [Debye]:                                               0.000000
  <r^2> [a.u.]:                        [  87.207820,   82.779265,   28.985776]
  Total <r^2> [a.u.]:                                               198.972862

  V1^2 = 0.0000, V2^2 = 1.0000

  Important amplitudes:
       occ i       vir a        vir b           v   
    -------------------------------------------------
     1 (B1u) B    2 (B1g) B    2 (B2u) B      0.5027
     1 (B1u) A    2 (B1g) A    2 (B2u) B      0.4973
    -------------------------------------------------

  Density matrix analysis:
  ------------------------
  NOs (alpha)
    Occupation of frontier NOs:
       0.4721   0.4949
    Number of electrons:  8.000000
  NOs (beta)
    Occupation of frontier NOs:
       0.4613   0.5059
    Number of electrons:  9.000000
  NOs (spin-traced)
    Occupation of frontier NOs:
       0.9335   1.0008
    Number of electrons: 17.000000
    Number of unpaired electrons: n_u =  3.31326, n_u,nl =  3.02666
    NO participation ratio (PR_NO):  3.816291
  
  
  Mulliken Population Analysis
  Atom  Charge (e)    Spin (e)  h+ (alpha)   h+ (beta)  e- (alpha)   e- (beta)
  ----------------------------------------------------------------------------
   1 C   -0.622291    0.455471    0.241561    0.246847   -0.173417   -0.634175
   2 C   -0.622291    0.455471    0.241561    0.246847   -0.173417   -0.634175
   3 H    0.061125    0.022264    0.002867    0.002929   -0.036938   -0.059266
   4 H    0.061189    0.022265    0.002867    0.002929   -0.036938   -0.059266
   5 H    0.061166    0.022265    0.002867    0.002929   -0.036938   -0.059266
   6 H    0.061102    0.022265    0.002867    0.002929   -0.036938   -0.059266
  ----------------------------------------------------------------------------
  Sum:   -1.000000    1.000000    0.494588    0.505412   -0.494588   -1.505412
  
  Multipole moment analysis of the density matrix
    Molecular charge:                      -1.000000
    Number of electrons:                   17.000000
      Center of electronic charge [Ang]: [  0.000000,   0.000000,   0.000000]
    Total nuclear charge:                  16.000000
      Center of nuclear charge [Ang]:    [  0.000000,   0.000000,   0.000000]
    Dipole moment [D]:                     0.000000
      Cartesian components [D]:          [ -0.000000,   0.000000,  -0.000000]
    RMS size of the density [Ang]:         1.810396
      Cartesian components [Ang]:        [  1.198545,   1.167717,   0.690986]
  
  Exciton analysis of the difference density matrix
  Total:
    <r_h> [Ang]:                  [ -0.000000,   0.000000,   0.000000]
    <r_e> [Ang]:                  [  0.000000,  -0.000000,   0.000000]
    |<r_e - r_h>| [Ang]:            0.000000
    Hole size [Ang]:                1.247801
      Cartesian components [Ang]: [  0.742798,   0.514168,   0.860750]
    Electron size [Ang]:            4.152706
      Cartesian components [Ang]: [  2.411453,   2.939947,   1.669302]
  
  Alpha spin:
    <r_h> [Ang]:                  [ -0.000000,   0.000000,   0.000000]
    <r_e> [Ang]:                  [ -0.000000,   0.000000,  -0.000000]
    |<r_e - r_h>| [Ang]:            0.000000
    Hole size [Ang]:                1.247801
      Cartesian components [Ang]: [  0.742798,   0.514168,   0.860750]
    Electron size [Ang]:            4.368933
      Cartesian components [Ang]: [  2.888486,   2.857981,   1.605045]
  
  Beta spin:
    <r_h> [Ang]:                  [ -0.000000,   0.000000,   0.000000]
    <r_e> [Ang]:                  [  0.000000,  -0.000000,   0.000000]
    |<r_e - r_h>| [Ang]:            0.000000
    Hole size [Ang]:                1.247801
      Cartesian components [Ang]: [  0.742798,   0.514168,   0.860750]
    Electron size [Ang]:            4.079165
      Cartesian components [Ang]: [  2.232594,   2.966382,   1.689880]
  ----------------------------------------------------------------------------


  Electron-attached state 7 (B2g)                                  [converged]
  ----------------------------------------------------------------------------
  Term symbol:  7 (2) B2g                                   R^2 =  4.47556e-10

  Total energy:                                            -77.8724351634 a.u.
  Electron attachment energy:                                     15.102261 eV

  Pole strength:                                                      0.000022

  Dip. moment [a.u.]:                  [  -0.000000,    0.000000,   -0.000000]
  Total dipole [Debye]:                                               0.000000
  <r^2> [a.u.]:                        [  87.172531,   82.558749,   29.160170]
  Total <r^2> [a.u.]:                                               198.891450

  V1^2 = 0.0000, V2^2 = 1.0000

  Important amplitudes:
       occ i       vir a        vir b           v   
    -------------------------------------------------
     1 (B1u) A    2 (B2u) A    2 (B1g) B     -0.5758
     1 (B1u) A    2 (B1g) A    2 (B2u) B     -0.2925
    -------------------------------------------------

  Density matrix analysis:
  ------------------------
  NOs (alpha)
    Occupation of frontier NOs:
       0.1716   0.6638
    Number of electrons:  8.000000
  NOs (beta)
    Occupation of frontier NOs:
       0.3323   0.8037
    Number of electrons:  9.000000
  NOs (spin-traced)
    Occupation of frontier NOs:
       0.9335   0.9957
    Number of electrons: 17.000000
    Number of unpaired electrons: n_u =  3.31727, n_u,nl =  3.02711
    NO participation ratio (PR_NO):  3.841719
  
  
  Mulliken Population Analysis
  Atom  Charge (e)    Spin (e)  h+ (alpha)   h+ (beta)  e- (alpha)   e- (beta)
  ----------------------------------------------------------------------------
   1 C   -0.623178    0.408929    0.409026    0.079376   -0.364597   -0.443876
   2 C   -0.623178    0.408929    0.409026    0.079376   -0.364597   -0.443876
   3 H    0.061568    0.045535    0.004854    0.000942   -0.027068   -0.068692
   4 H    0.061632    0.045535    0.004854    0.000942   -0.027068   -0.068692
   5 H    0.061610    0.045535    0.004854    0.000942   -0.027069   -0.068692
   6 H    0.061546    0.045535    0.004854    0.000942   -0.027069   -0.068692
  ----------------------------------------------------------------------------
  Sum:   -1.000000    1.000000    0.837468    0.162519   -0.837468   -1.162519
  
  Multipole moment analysis of the density matrix
    Molecular charge:                      -1.000000
    Number of electrons:                   17.000000
      Center of electronic charge [Ang]: [  0.000000,   0.000000,   0.000000]
    Total nuclear charge:                  16.000000
      Center of nuclear charge [Ang]:    [  0.000000,   0.000000,   0.000000]
    Dipole moment [D]:                     0.000000
      Cartesian components [D]:          [ -0.000000,   0.000000,  -0.000000]
    RMS size of the density [Ang]:         1.810026
      Cartesian components [Ang]:        [  1.198303,   1.166160,   0.693061]
  
  Exciton analysis of the difference density matrix
  Total:
    <r_h> [Ang]:                  [ -0.000000,   0.000000,   0.000000]
    <r_e> [Ang]:                  [  0.000000,  -0.000000,  -0.000000]
    |<r_e - r_h>| [Ang]:            0.000000
    Hole size [Ang]:                1.247889
      Cartesian components [Ang]: [  0.742831,   0.514212,   0.860822]
    Electron size [Ang]:            4.151358
      Cartesian components [Ang]: [  2.410440,   2.934704,   1.676622]
  
  Alpha spin:
    <r_h> [Ang]:                  [ -0.000000,   0.000000,   0.000000]
    <r_e> [Ang]:                  [  0.000000,  -0.000000,   0.000000]
    |<r_e - r_h>| [Ang]:            0.000000
    Hole size [Ang]:                1.247762
      Cartesian components [Ang]: [  0.742785,   0.514150,   0.860715]
    Electron size [Ang]:            4.018975
      Cartesian components [Ang]: [  2.081100,   2.983020,   1.709613]
  
  Beta spin:
    <r_h> [Ang]:                  [ -0.000000,   0.000000,   0.000000]
    <r_e> [Ang]:                  [  0.000000,  -0.000000,  -0.000000]
    |<r_e - r_h>| [Ang]:            0.000000
    Hole size [Ang]:                1.248544
      Cartesian components [Ang]: [  0.743073,   0.514530,   0.861373]
    Electron size [Ang]:            4.244167
      Cartesian components [Ang]: [  2.622186,   2.899399,   1.652448]
  ----------------------------------------------------------------------------


  Electron-attached state 8 (B2g)                                  [converged]
  ----------------------------------------------------------------------------
  Term symbol:  8 (2) B2g                                   R^2 =  9.40111e-10

  Total energy:                                            -77.8702149752 a.u.
  Electron attachment energy:                                     15.162676 eV

  Pole strength:                                                      0.000004

  Dip. moment [a.u.]:                  [   0.000000,   -0.000001,   -0.000000]
  Total dipole [Debye]:                                               0.000001
  <r^2> [a.u.]:                        [ 125.403322,   43.024707,   31.818913]
  Total <r^2> [a.u.]:                                               200.246942

  V1^2 = 0.0000, V2^2 = 1.0000

  Important amplitudes:
       occ i       vir a        vir b           v   
    -------------------------------------------------
     1 (B1u) A    3 (B3u) A    4 (Ag ) B      0.5743
     1 (B1u) A    4 (Ag ) A    3 (B3u) B      0.3381
    -------------------------------------------------

  Density matrix analysis:
  ------------------------
  NOs (alpha)
    Occupation of frontier NOs:
       0.2290   0.6601
    Number of electrons:  8.000000
  NOs (beta)
    Occupation of frontier NOs:
       0.3407   0.7716
    Number of electrons:  9.000000
  NOs (spin-traced)
    Occupation of frontier NOs:
       0.9335   1.0006
    Number of electrons: 17.000000
    Number of unpaired electrons: n_u =  3.31453, n_u,nl =  3.02675
    NO participation ratio (PR_NO):  3.817492
  
  
  Mulliken Population Analysis
  Atom  Charge (e)    Spin (e)  h+ (alpha)   h+ (beta)  e- (alpha)   e- (beta)
  ----------------------------------------------------------------------------
   1 C   -0.752900    0.495314    0.433905    0.054502   -0.411144   -0.527055
   2 C   -0.752900    0.495314    0.433905    0.054502   -0.411144   -0.527055
   3 H    0.126429    0.002343    0.005149    0.000647   -0.016530   -0.014370
   4 H    0.126493    0.002343    0.005149    0.000647   -0.016529   -0.014370
   5 H    0.126471    0.002343    0.005149    0.000647   -0.016529   -0.014370
   6 H    0.126407    0.002343    0.005149    0.000647   -0.016529   -0.014370
  ----------------------------------------------------------------------------
  Sum:   -1.000000    1.000000    0.888406    0.111590   -0.888406   -1.111590
  
  Multipole moment analysis of the density matrix
    Molecular charge:                      -1.000000
    Number of electrons:                   17.000000
      Center of electronic charge [Ang]: [ -0.000000,   0.000000,   0.000000]
    Total nuclear charge:                  16.000000
      Center of nuclear charge [Ang]:    [  0.000000,   0.000000,   0.000000]
    Dipole moment [D]:                     0.000001
      Cartesian components [D]:          [  0.000000,  -0.000001,  -0.000000]
    RMS size of the density [Ang]:         1.816183
      Cartesian components [Ang]:        [  1.437246,   0.841852,   0.723968]
  
  Exciton analysis of the difference density matrix
  Total:
    <r_h> [Ang]:                  [ -0.000000,   0.000000,   0.000000]
    <r_e> [Ang]:                  [ -0.000000,   0.000000,   0.000000]
    |<r_e - r_h>| [Ang]:            0.000000
    Hole size [Ang]:                1.247802
      Cartesian components [Ang]: [  0.742798,   0.514168,   0.860751]
    Electron size [Ang]:            4.174132
      Cartesian components [Ang]: [  3.341113,   1.754163,   1.784168]
  
  Alpha spin:
    <r_h> [Ang]:                  [ -0.000000,   0.000000,   0.000000]
    <r_e> [Ang]:                  [ -0.000000,   0.000000,   0.000000]
    |<r_e - r_h>| [Ang]:            0.000000
    Hole size [Ang]:                1.247802
      Cartesian components [Ang]: [  0.742798,   0.514168,   0.860751]
    Electron size [Ang]:            4.162671
      Cartesian components [Ang]: [  3.287245,   1.807180,   1.804424]
  
  Beta spin:
    <r_h> [Ang]:                  [ -0.000000,   0.000000,   0.000000]
    <r_e> [Ang]:                  [ -0.000000,   0.000000,   0.000000]
    |<r_e - r_h>| [Ang]:            0.000000
    Hole size [Ang]:                1.247803
      Cartesian components [Ang]: [  0.742799,   0.514169,   0.860750]
    Electron size [Ang]:            4.183270
      Cartesian components [Ang]: [  3.383549,   1.710609,   1.767812]
  ----------------------------------------------------------------------------


  Electron-attached state 9 (B2g)                                  [converged]
  ----------------------------------------------------------------------------
  Term symbol:  9 (2) B2g                                   R^2 =  1.74347e-09

  Total energy:                                            -77.8701775574 a.u.
  Electron attachment energy:                                     15.163694 eV

  Pole strength:                                                      0.000139

  Dip. moment [a.u.]:                  [   0.000000,   -0.000001,   -0.000000]
  Total dipole [Debye]:                                               0.000001
  <r^2> [a.u.]:                        [ 125.293918,   43.016811,   31.902060]
  Total <r^2> [a.u.]:                                               200.212788

  V1^2 = 0.0001, V2^2 = 0.9999

  Important amplitudes:
       occ i       vir a        vir b           v   
    -------------------------------------------------
     1 (B1u) B    4 (Ag ) B    3 (B3u) B      0.5261
     1 (B1u) A    4 (Ag ) A    3 (B3u) B      0.4673
    -------------------------------------------------

  Density matrix analysis:
  ------------------------
  NOs (alpha)
    Occupation of frontier NOs:
       0.4370   0.5211
    Number of electrons:  8.000000
  NOs (beta)
    Occupation of frontier NOs:
       0.4125   0.5608
    Number of electrons:  9.000000
  NOs (spin-traced)
    Occupation of frontier NOs:
       0.9336   0.9979
    Number of electrons: 17.000000
    Number of unpaired electrons: n_u =  3.31727, n_u,nl =  3.02696
    NO participation ratio (PR_NO):  3.830593
  
  
  Mulliken Population Analysis
  Atom  Charge (e)    Spin (e)  h+ (alpha)   h+ (beta)  e- (alpha)   e- (beta)
  ----------------------------------------------------------------------------
   1 C   -0.752662    0.455766    0.217583    0.270770   -0.214477   -0.723431
   2 C   -0.752662    0.455766    0.217583    0.270770   -0.214477   -0.723431
   3 H    0.126310    0.022117    0.002582    0.003212   -0.004135   -0.026883
   4 H    0.126374    0.022117    0.002582    0.003212   -0.004135   -0.026882
   5 H    0.126352    0.022116    0.002582    0.003212   -0.004135   -0.026882
   6 H    0.126288    0.022117    0.002582    0.003212   -0.004135   -0.026882
  ----------------------------------------------------------------------------
  Sum:   -1.000000    1.000000    0.445491    0.554390   -0.445491   -1.554390
  
  Multipole moment analysis of the density matrix
    Molecular charge:                      -1.000000
    Number of electrons:                   17.000000
      Center of electronic charge [Ang]: [ -0.000000,   0.000000,   0.000000]
    Total nuclear charge:                  16.000000
      Center of nuclear charge [Ang]:    [  0.000000,   0.000000,   0.000000]
    Dipole moment [D]:                     0.000001
      Cartesian components [D]:          [  0.000000,  -0.000001,  -0.000000]
    RMS size of the density [Ang]:         1.816028
      Cartesian components [Ang]:        [  1.436619,   0.841775,   0.724913]
  
  Exciton analysis of the difference density matrix
  Total:
    <r_h> [Ang]:                  [ -0.000000,   0.000000,   0.000000]
    <r_e> [Ang]:                  [ -0.000000,   0.000000,   0.000000]
    |<r_e - r_h>| [Ang]:            0.000000
    Hole size [Ang]:                1.247888
      Cartesian components [Ang]: [  0.742836,   0.514214,   0.860815]
    Electron size [Ang]:            4.173682
      Cartesian components [Ang]: [  3.338916,   1.753900,   1.787482]
  
  Alpha spin:
    <r_h> [Ang]:                  [ -0.000000,   0.000000,   0.000000]
    <r_e> [Ang]:                  [  0.000000,   0.000000,   0.000000]
    |<r_e - r_h>| [Ang]:            0.000000
    Hole size [Ang]:                1.247597
      Cartesian components [Ang]: [  0.742731,   0.514075,   0.860568]
    Electron size [Ang]:            4.195885
      Cartesian components [Ang]: [  3.443183,   1.642540,   1.746997]
  
  Beta spin:
    <r_h> [Ang]:                  [ -0.000000,   0.000000,   0.000000]
    <r_e> [Ang]:                  [ -0.000000,   0.000000,   0.000000]
    |<r_e - r_h>| [Ang]:            0.000000
    Hole size [Ang]:                1.248121
      Cartesian components [Ang]: [  0.742920,   0.514326,   0.861014]
    Electron size [Ang]:            4.167296
      Cartesian components [Ang]: [  3.308427,   1.784536,   1.798917]
  ----------------------------------------------------------------------------


  Electron-attached state 10 (B2g)                                  [converged]
  ----------------------------------------------------------------------------
  Term symbol:  10 (2) B2g                                  R^2 =  5.72730e-09

  Total energy:                                            -77.8226254473 a.u.
  Electron attachment energy:                                     16.457653 eV

  Pole strength:                                                      0.000023

  Dip. moment [a.u.]:                  [   0.000000,   -0.000002,   -0.000000]
  Total dipole [Debye]:                                               0.000006
  <r^2> [a.u.]:                        [  90.556414,   46.543040,   24.356481]
  Total <r^2> [a.u.]:                                               161.455935

  V1^2 = 0.0000, V2^2 = 1.0000

  Important amplitudes:
       occ i       vir a        vir b           v   
    -------------------------------------------------
     1 (B1u) A    3 (B3u) A    5 (Ag ) B      0.5731
     1 (B1u) B    5 (Ag ) B    3 (B3u) B     -0.3472
    -------------------------------------------------

  Density matrix analysis:
  ------------------------
  NOs (alpha)
    Occupation of frontier NOs:
       0.2094   0.6572
    Number of electrons:  8.000000
  NOs (beta)
    Occupation of frontier NOs:
       0.3435   0.7252
    Number of electrons:  9.000000
  NOs (spin-traced)
    Occupation of frontier NOs:
       0.9335   1.0008
    Number of electrons: 17.000000
    Number of unpaired electrons: n_u =  3.30381, n_u,nl =  3.02619
    NO participation ratio (PR_NO):  3.807097
  
  
  Mulliken Population Analysis
  Atom  Charge (e)    Spin (e)  h+ (alpha)   h+ (beta)  e- (alpha)   e- (beta)
  ----------------------------------------------------------------------------
   1 C   -0.063423   -0.055194    0.370660    0.117738   -0.278415    0.029701
   2 C   -0.063423   -0.055194    0.370660    0.117738   -0.278415    0.029701
   3 H   -0.218306    0.277594    0.004399    0.001398   -0.050521   -0.325114
   4 H   -0.218250    0.277601    0.004399    0.001398   -0.050522   -0.325121
   5 H   -0.218271    0.277600    0.004399    0.001398   -0.050521   -0.325120
   6 H   -0.218327    0.277594    0.004399    0.001398   -0.050520   -0.325113
  ----------------------------------------------------------------------------
  Sum:   -1.000000    1.000000    0.758914    0.241067   -0.758914   -1.241067
  
  Multipole moment analysis of the density matrix
    Molecular charge:                      -1.000000
    Number of electrons:                   17.000000
      Center of electronic charge [Ang]: [ -0.000000,   0.000000,   0.000000]
    Total nuclear charge:                  16.000000
      Center of nuclear charge [Ang]:    [  0.000000,   0.000000,   0.000000]
    Dipole moment [D]:                     0.000006
      Cartesian components [D]:          [  0.000000,  -0.000006,  -0.000000]
    RMS size of the density [Ang]:         1.630811
      Cartesian components [Ang]:        [  1.221339,   0.875597,   0.633409]
  
  Exciton analysis of the difference density matrix
  Total:
    <r_h> [Ang]:                  [ -0.000000,   0.000000,   0.000000]
    <r_e> [Ang]:                  [ -0.000000,   0.000000,   0.000000]
    |<r_e - r_h>| [Ang]:            0.000000
    Hole size [Ang]:                1.247797
      Cartesian components [Ang]: [  0.742799,   0.514168,   0.860743]
    Electron size [Ang]:            3.462969
      Cartesian components [Ang]: [  2.506793,   1.889373,   1.462330]
  
  Alpha spin:
    <r_h> [Ang]:                  [ -0.000000,   0.000000,   0.000000]
    <r_e> [Ang]:                  [ -0.000000,   0.000000,  -0.000000]
    |<r_e - r_h>| [Ang]:            0.000000
    Hole size [Ang]:                1.247800
      Cartesian components [Ang]: [  0.742799,   0.514169,   0.860746]
    Electron size [Ang]:            3.977257
      Cartesian components [Ang]: [  3.051692,   1.869249,   1.735413]
  
  Beta spin:
    <r_h> [Ang]:                  [ -0.000000,   0.000000,   0.000000]
    <r_e> [Ang]:                  [ -0.000000,   0.000001,   0.000000]
    |<r_e - r_h>| [Ang]:            0.000001
    Hole size [Ang]:                1.247788
      Cartesian components [Ang]: [  0.742798,   0.514167,   0.860732]
    Electron size [Ang]:            3.106813
      Cartesian components [Ang]: [  2.105205,   1.901574,   1.266656]
  ----------------------------------------------------------------------------


--------------------------------------------------------------------------------
  Time of ADC calculation:  CPU 98.80 s  wall 22.26 s
================================================================================
 
 --------------------------------------------------------------
             Orbital Energies (a.u.) and Symmetries
 --------------------------------------------------------------
 
 Alpha MOs, Restricted
 -- Occupied --                  
-11.228 -11.226  -1.040  -0.781  -0.660  -0.568  -0.516  -0.377
  1 Ag    1 B3u   2 Ag    2 B3u   1 B2u   3 Ag    1 B1g   1 B1u                
 -- Virtual --                   
  0.070   0.074   0.085   0.092   0.104   0.109   0.157   0.172
  3 B3u   2 B2u   2 B1u   1 B2g   2 B1g   4 Ag    5 Ag    2 B2g                
  0.265   0.273   0.288   0.290   0.310   0.310   0.321   0.390
  4 B3u   3 B2u   6 Ag    5 B3u   4 B2u   3 B1u   3 B1g   3 B2g                
  0.458   0.464   0.479   0.625   0.632   0.661   0.666   0.725
  4 B1g   7 Ag    6 B3u   8 Ag    5 B2u   7 B3u   1 B3g   8 B3u                
  0.753   0.760   0.778   0.828   0.831   0.888   0.907   0.917
  6 B2u   9 Ag    5 B1g   1 Au    4 B1u   9 B3u   4 B2g   5 B1u                
  1.001   1.013   1.064   1.098   1.188   1.206   1.254   1.363
  6 B1g  10 Ag    7 B2u   7 B1g   6 B1u   5 B2g   2 B3g  10 B3u                
  1.385   1.411   1.467   1.509   1.544   1.550   1.635   1.683
 11 Ag    6 B2g   8 B2u  11 B3u  12 Ag    9 B2u   2 Au    8 B1g                
  1.736   1.834   1.901   1.996   2.297   2.672   2.693   2.708
 12 B3u  13 B3u  13 Ag    9 B1g  14 Ag    7 B1u  15 Ag   10 B2u                
  2.758   2.779   2.861   2.866   2.915   2.998   3.079   3.104
  7 B2g   8 B1u  14 B3u  11 B2u   3 B3g  10 B1g  11 B1g   9 B1u                
  3.105   3.146   3.152   3.163   3.191   3.270   3.340   3.341
  4 B3g  12 B2u   3 Au   16 Ag   17 Ag    8 B2g  13 B2u  15 B3u                
  3.418   3.426   3.447   3.491   3.524   3.550   3.600   3.641
  9 B2g   4 Au   16 B3u  12 B1g  17 B3u  10 B1u  18 Ag    5 B3g                
  3.748   3.817   3.899   3.966   3.977   3.985   4.014   4.046
 14 B2u  13 B1g  18 B3u  14 B1g   5 Au   10 B2g  15 B2u  19 Ag                 
  4.061   4.193   4.198   4.202   4.215   4.332   4.351   4.502
 11 B1u  15 B1g  19 B3u   6 B3g  20 Ag   12 B1u  11 B2g  16 B2u                
  4.535   4.606   4.698   4.775   4.815   4.944   4.979   5.051
 20 B3u   6 Au   21 Ag   21 B3u  12 B2g  13 B1u  22 Ag   16 B1g                
  5.150   5.216   5.306   5.323   5.426   5.462   5.545   5.570
 17 B2u   7 B3g  22 B3u  23 Ag    7 Au   17 B1g  13 B2g  24 Ag                 
  5.680   6.051   6.141   6.323   6.611   6.883  12.301  14.807
 18 B2u  23 B3u  18 B1g  19 B2u  24 B3u  19 B1g  25 Ag   25 B3u                
 
 Beta MOs, Restricted
 -- Occupied --                  
-11.228 -11.226  -1.040  -0.781  -0.660  -0.568  -0.516  -0.377
  1 Ag    1 B3u   2 Ag    2 B3u   1 B2u   3 Ag    1 B1g   1 B1u                
 -- Virtual --                   
  0.070   0.074   0.085   0.092   0.104   0.109   0.157   0.172
  3 B3u   2 B2u   2 B1u   1 B2g   2 B1g   4 Ag    5 Ag    2 B2g                
  0.265   0.273   0.288   0.290   0.310   0.310   0.321   0.390
  4 B3u   3 B2u   6 Ag    5 B3u   4 B2u   3 B1u   3 B1g   3 B2g                
  0.458   0.464   0.479   0.625   0.632   0.661   0.666   0.725
  4 B1g   7 Ag    6 B3u   8 Ag    5 B2u   7 B3u   1 B3g   8 B3u                
  0.753   0.760   0.778   0.828   0.831   0.888   0.907   0.917
  6 B2u   9 Ag    5 B1g   1 Au    4 B1u   9 B3u   4 B2g   5 B1u                
  1.001   1.013   1.064   1.098   1.188   1.206   1.254   1.363
  6 B1g  10 Ag    7 B2u   7 B1g   6 B1u   5 B2g   2 B3g  10 B3u                
  1.385   1.411   1.467   1.509   1.544   1.550   1.635   1.683
 11 Ag    6 B2g   8 B2u  11 B3u  12 Ag    9 B2u   2 Au    8 B1g                
  1.736   1.834   1.901   1.996   2.297   2.672   2.693   2.708
 12 B3u  13 B3u  13 Ag    9 B1g  14 Ag    7 B1u  15 Ag   10 B2u                
  2.758   2.779   2.861   2.866   2.915   2.998   3.079   3.104
  7 B2g   8 B1u  14 B3u  11 B2u   3 B3g  10 B1g  11 B1g   9 B1u                
  3.105   3.146   3.152   3.163   3.191   3.270   3.340   3.341
  4 B3g  12 B2u   3 Au   16 Ag   17 Ag    8 B2g  13 B2u  15 B3u                
  3.418   3.426   3.447   3.491   3.524   3.550   3.600   3.641
  9 B2g   4 Au   16 B3u  12 B1g  17 B3u  10 B1u  18 Ag    5 B3g                
  3.748   3.817   3.899   3.966   3.977   3.985   4.014   4.046
 14 B2u  13 B1g  18 B3u  14 B1g   5 Au   10 B2g  15 B2u  19 Ag                 
  4.061   4.193   4.198   4.202   4.215   4.332   4.351   4.502
 11 B1u  15 B1g  19 B3u   6 B3g  20 Ag   12 B1u  11 B2g  16 B2u                
  4.535   4.606   4.698   4.775   4.815   4.944   4.979   5.051
 20 B3u   6 Au   21 Ag   21 B3u  12 B2g  13 B1u  22 Ag   16 B1g                
  5.150   5.216   5.306   5.323   5.426   5.462   5.545   5.570
 17 B2u   7 B3g  22 B3u  23 Ag    7 Au   17 B1g  13 B2g  24 Ag                 
  5.680   6.051   6.141   6.323   6.611   6.883  12.301  14.807
 18 B2u  23 B3u  18 B1g  19 B2u  24 B3u  19 B1g  25 Ag   25 B3u                
 --------------------------------------------------------------
 
          Ground-State Mulliken Net Atomic Charges

     Atom                 Charge (a.u.)
  ----------------------------------------
      1 C                    -0.272486
      2 C                    -0.272486
      3 H                     0.136223
      4 H                     0.136285
      5 H                     0.136263
      6 H                     0.136200
  ----------------------------------------
  Sum of atomic charges =     0.000000

 -----------------------------------------------------------------
                    Cartesian Multipole Moments
 -----------------------------------------------------------------
    Charge (ESU x 10^10)
                -0.0000
    Dipole Moment (Debye)
         X       0.0000      Y      -0.0000      Z      -0.0000
       Tot       0.0000
    Quadrupole Moments (Debye-Ang)
        XX     -12.8644     XY       0.0000     YY     -11.9320
        XZ       0.0000     YZ      -0.0000     ZZ     -16.0980
    Octopole Moments (Debye-Ang^2)
       XXX       0.0000    XXY      -0.0000    XYY       0.0000
       YYY      -0.0000    XXZ       0.0000    XYZ      -0.0000
       YYZ       0.0000    XZZ       0.0000    YZZ      -0.0000
       ZZZ      -0.0000
    Hexadecapole Moments (Debye-Ang^3)
      XXXX     -68.0206   XXXY       0.0000   XXYY     -13.1176
      XYYY       0.0000   YYYY     -26.7641   XXXZ       0.0000
      XXYZ      -0.0000   XYYZ       0.0000   YYYZ      -0.0000
      XXZZ     -15.4312   XYZZ       0.0000   YYZZ      -8.9501
      XZZZ       0.0000   YZZZ      -0.0000   ZZZZ     -21.2138
 -----------------------------------------------------------------
 Total job time:  104.32s(wall), 148.31s(cpu) 
 Fri Feb 25 18:35:13 2022

        *************************************************************
        *                                                           *
        *  Thank you very much for using Q-Chem.  Have a nice day.  *
        *                                                           *
        *************************************************************


