/src/tsommerfeld/qchem/exe/qcprog.exe .input1.166667.2817.qcin.1 /src/jdavis/qchem.scratch/qchem2817/

                  Welcome to Q-Chem
     A Quantum Leap Into The Future Of Chemistry


 Q-Chem 5.4 (devel), Q-Chem, Inc., Pleasanton, CA (2021)

 E. Epifanovsky,  A. T. B. Gilbert,  Xintian Feng,  Joonho Lee,  Yuezhi Mao,  
 N. Mardirossian,  P. Pokhilko,  A. White,  M. Wormit,  M. P. Coons,  
 A. L. Dempwolff,  Zhengting Gan,  D. Hait,  P. R. Horn,  L. D. Jacobson,  
 I. Kaliman,  J. Kussmann,  A. W. Lange,  Ka Un Lao,  D. S. Levine,  Jie Liu,  
 S. C. McKenzie,  A. F. Morrison,  K. Nanda,  F. Plasser,  D. R. Rehn,  
 M. L. Vidal,  Zhi-Qiang You,  Ying Zhu,  B. Alam,  B. Albrecht,  
 A. Aldossary,  E. Alguire,  J. H. Andersen,  D. Barton,  K. Begam,  A. Behn,  
 Y. A. Bernard,  E. J. Berquist,  H. Burton,  A. Carreras,  K. Carter-Fenk,  
 R. Chakraborty,  A. D. Chien,  K. D. Closser,  V. Cofer-Shabica,  
 S. Dasgupta,  Jia Deng,  M. de Wergifosse,  M. Diedenhofen,  Hainam Do,  
 S. Ehlert,  Po-Tung Fang,  S. Fatehi,  Qingguo Feng,  T. Friedhoff,  
 J. Gayvert,  Qinghui Ge,  G. Gidofalvi,  M. Goldey,  J. Gomes,  
 C. Gonzalez-Espinoza,  S. Gulania,  A. Gunina,  M. W. D. Hanson-Heine,  
 P. H. P. Harbach,  A. W. Hauser,  M. F. Herbst,  M. Hernandez Vera,  
 M. Hodecker,  Z. C. Holden,  S. Houck,  Xunkun Huang,  Kerwin Hui,  
 B. C. Huynh,  M. Ivanov,  Hyunjun Ji,  Hanjie Jiang,  B. Kaduk,  S. Kaehler,  
 K. Khistyaev,  Jaehoon Kim,  P. Klunzinger,  Z. Koczor-Benda,  
 Joong Hoon Koh,  D. Kosenkov,  L. Koulias,  T. Kowalczyk,  C. M. Krauter,  
 K. Kue,  A. Kunitsa,  T. Kus,  A. Landau,  K. V. Lawler,  D. Lefrancois,  
 S. Lehtola,  Rain Li,  Yi-Pei Li,  Jiashu Liang,  M. Liebenthal,  
 Hung-Hsuan Lin,  You-Sheng Lin,  Fenglai Liu,  Kuan-Yu Liu,  
 M. Loipersberger,  A. Luenser,  A. Manjanath,  P. Manohar,  E. Mansoor,  
 S. F. Manzer,  Shan-Ping Mao,  A. V. Marenich,  T. Markovich,  S. Mason,  
 S. A. Maurer,  P. F. McLaughlin,  M. F. S. J. Menger,  J.-M. Mewes,  
 S. A. Mewes,  P. Morgante,  J. W. Mullinax,  K. J. Oosterbaan,  G. Paran,  
 Alexander C. Paul,  Suranjan K. Paul,  F. Pavosevic,  Zheng Pei,  S. Prager,  
 E. I. Proynov,  E. Ramos,  B. Rana,  A. E. Rask,  A. Rettig,  R. M. Richard,  
 F. Rob,  E. Rossomme,  T. Scheele,  M. Scheurer,  M. Schneider,  
 N. Sergueev,  S. M. Sharada,  W. Skomorowski,  D. W. Small,  C. J. Stein,  
 Yu-Chuan Su,  E. J. Sundstrom,  Zhen Tao,  J. Thirman,  T. Tsuchimochi,  
 N. M. Tubman,  S. P. Veccham,  O. Vydrov,  J. Wenzel,  J. Witte,  A. Yamada,  
 Kun Yao,  S. Yeganeh,  S. R. Yost,  A. Zech,  Igor Ying Zhang,  Xing Zhang,  
 Yu Zhang,  D. Zuev,  A. Aspuru-Guzik,  A. T. Bell,  N. A. Besley,  
 K. B. Bravaya,  B. R. Brooks,  D. Casanova,  Jeng-Da Chai,  S. Coriani,  
 C. J. Cramer,  A. E. DePrince, III,  R. A. DiStasio Jr.,  A. Dreuw,  
 B. D. Dunietz,  T. R. Furlani,  W. A. Goddard III,  S. Grimme,  
 S. Hammes-Schiffer,  T. Head-Gordon,  W. J. Hehre,  Chao-Ping Hsu,  
 T.-C. Jagau,  Yousung Jung,  A. Klamt,  Jing Kong,  D. S. Lambrecht,  
 WanZhen Liang,  N. J. Mayhall,  C. W. McCurdy,  J. B. Neaton,  
 C. Ochsenfeld,  J. A. Parkhill,  R. Peverati,  V. A. Rassolov,  Yihan Shao,  
 L. V. Slipchenko,  T. Stauch,  R. P. Steele,  J. E. Subotnik,  
 A. J. W. Thom,  A. Tkatchenko,  D. G. Truhlar,  T. Van Voorhis,  
 T. A. Wesolowski,  K. B. Whaley,  H. L. Woodcock III,  P. M. Zimmerman,  
 S. Faraji,  P. M. W. Gill,  M. Head-Gordon,  J. M. Herbert,  A. I. Krylov

 Additional authors for Version 5.4.1: 
 S. Kotaru,  Shaozhi Li,  Xiangyuan Li,  F. Matz,  A. Molle,  Haisheng Ren,  
 Yingli Su,  Hung-Yi Tsai,  C. Utku,  Fang Wang

 Contributors to earlier versions of Q-Chem not listed above: 
 R. D. Adamson,  B. Austin,  R. Baer,  J. Baker,  G. J. O. Beran,  
 K. Brandhorst,  S. T. Brown,  E. F. C. Byrd,  A. K. Chakraborty,  
 G. K. L. Chan,  Chun-Min Chang,  Yunqing Chen,  C.-L. Cheng,  
 Siu Hung Chien,  D. M. Chipman,  D. L. Crittenden,  H. Dachsel,  
 R. J. Doerksen,  A. D. Dutoi,  R. G. Edgar,  J. Fosso-Tande,  
 L. Fusti-Molnar,  D. Ghosh,  A. Ghysels,  A. Golubeva-Zadorozhnaya,  
 J. Gonthier,  M. S. Gordon,  S. R. Gwaltney,  G. Hawkins,  J. E. Herr,  
 A. Heyden,  S. Hirata,  E. G. Hohenstein,  G. Kedziora,  F. J. Keil,  
 C. Kelley,  Jihan Kim,  R. A. King,  R. Z. Khaliullin,  P. P. Korambath,  
 W. Kurlancheek,  A. Laurent,  A. M. Lee,  M. S. Lee,  S. V. Levchenko,  
 Ching Yeh Lin,  D. Liotard,  E. Livshits,  R. C. Lochan,  I. Lotan,  
 L. A. Martinez-Martinez,  P. E. Maslen,  N. Nair,  D. P. O'Neill,  
 D. Neuhauser,  E. Neuscamman,  C. M. Oana,  R. Olivares-Amaya,  R. Olson,  
 T. M. Perrine,  B. Peters,  P. A. Pieniazek,  A. Prociuk,  Y. M. Rhee,  
 J. Ritchie,  M. A. Rohrdanz,  E. Rosta,  N. J. Russ,  H. F. Schaefer III,  
 M. W. Schmidt,  N. E. Schultz,  S. Sharma,  N. Shenvi,  C. D. Sherrill,  
 A. C. Simmonett,  A. Sodt,  T. Stein,  D. Stuck,  K. S. Thanthiriwatte,  
 V. Vanovschi,  L. Vogt,  Tao Wang,  A. Warshel,  M. A. Watson,  
 C. F. Williams,  Q. Wu,  X. Xu,  Jun Yang,  W. Zhang,  Yan Zhao

 Please cite Q-Chem as follows:
 Y. Shao et al., Mol. Phys. 113, 184-215 (2015)
 DOI: 10.1080/00268976.2014.952696

 Q-Chem 5.4.1 for Intel X86 EM64T Linux

 Parts of Q-Chem use Armadillo 9.900.5 (Nocturnal Misbehaviour).
 http://arma.sourceforge.net/

 Q-Chem begins on Fri Feb 25 17:53:28 2022  

 Host: node01
0

     Scratch files written to /src/jdavis/qchem.scratch/qchem2817//
 Processing $rem in /src/tsommerfeld/qchem/config/preferences:
 Processing $rem in /home/jdavis/.qchemrc:

 Checking the input file for inconsistencies... 	...done.

--------------------------------------------------------------
User input:
--------------------------------------------------------------
$molecule
0 1
C        -0.6645000000    0.0000000000   -0.2082049804
C         0.6645000000    0.0000000000   -0.2082049804
H        -1.1590800000    0.0000000000    0.7541440196
H         1.1590800000    0.0000000000    0.7541440196
H        -1.1590800000    0.0000000000   -1.1705529804
H         1.1590800000    0.0000000000   -1.1705529804
$end

$rem
   METHOD adc(2)
   BASIS gen
   PURECART 11
   EA_STATES [0,0,10,0,0,0,0,0]
   scf_convergence 8
   ADC_DAVIDSON_MAXITER 120
   ADC_DAVIDSON_MAXSUBSPACE 200
   adc_nguess_singles 100
   THRESH 14
   S2THRESH 14
   adc_davidson_conv 5
   adc_davidson_thresh 14
   THREADS 10
   MEM_TOTAL 95000
   STATE_ANALYSIS TRUE
$end
$basis
C     1
S    10   1.00
      8.236000D+03           5.310000D-04
      1.235000D+03           4.108000D-03
      2.808000D+02           2.108700D-02
      7.927000D+01           8.185300D-02
      2.559000D+01           2.348170D-01
      8.997000D+00           4.344010D-01
      3.319000D+00           3.461290D-01
      9.059000D-01           3.937800D-02
      3.643000D-01          -8.983000D-03
      1.285000D-01           2.385000D-03
S    1   1.00
      9.059000D-01           1.000000D+00
S    10   1.00
      8.236000D+03          -1.130000D-04
      1.235000D+03          -8.780000D-04
      2.808000D+02          -4.540000D-03
      7.927000D+01          -1.813300D-02
      2.559000D+01          -5.576000D-02
      8.997000D+00          -1.268950D-01
      3.319000D+00          -1.703520D-01
      9.059000D-01           1.403820D-01
      3.643000D-01           5.986840D-01
      1.285000D-01           3.953890D-01
S    1   1.00
      1.285000D-01           1.000000D+00
P    1   1.00
      3.827000D-01           1.000000D+00
P    5   1.00
      1.871000D+01           1.403100D-02
      4.133000D+00           8.686600D-02
      1.200000D+00           2.902160D-01
      3.827000D-01           5.010080D-01
      1.209000D-01           3.434060D-01
P    1   1.00
      1.209000D-01           1.000000D+00
P   1   1.00
      0.0403      1.0000000
P   1   1.00
      0.02015      1.0000000
D    1   1.00
      1.097000D+00           1.000000D+00
D    1   1.00
      3.180000D-01           1.000000D+00
F    1   1.00
      7.610000D-01           1.0000000
****
C     2
S    10   1.00
      8.236000D+03           5.310000D-04
      1.235000D+03           4.108000D-03
      2.808000D+02           2.108700D-02
      7.927000D+01           8.185300D-02
      2.559000D+01           2.348170D-01
      8.997000D+00           4.344010D-01
      3.319000D+00           3.461290D-01
      9.059000D-01           3.937800D-02
      3.643000D-01          -8.983000D-03
      1.285000D-01           2.385000D-03
S    1   1.00
      9.059000D-01           1.000000D+00
S    10   1.00
      8.236000D+03          -1.130000D-04
      1.235000D+03          -8.780000D-04
      2.808000D+02          -4.540000D-03
      7.927000D+01          -1.813300D-02
      2.559000D+01          -5.576000D-02
      8.997000D+00          -1.268950D-01
      3.319000D+00          -1.703520D-01
      9.059000D-01           1.403820D-01
      3.643000D-01           5.986840D-01
      1.285000D-01           3.953890D-01
S    1   1.00
      1.285000D-01           1.000000D+00
P    1   1.00
      3.827000D-01           1.000000D+00
P    5   1.00
      1.871000D+01           1.403100D-02
      4.133000D+00           8.686600D-02
      1.200000D+00           2.902160D-01
      3.827000D-01           5.010080D-01
      1.209000D-01           3.434060D-01
P    1   1.00
      1.209000D-01           1.000000D+00
P   1   1.00
      0.0403      1.0000000
P   1   1.00
      0.02015      1.0000000
D    1   1.00
      1.097000D+00           1.000000D+00
D    1   1.00
      3.180000D-01           1.000000D+00
F    1   1.00
      7.610000D-01           1.0000000
****
H 3
cc-pVTZ
****
H 4
cc-pVTZ
****
H 5
cc-pVTZ
****
H 6
cc-pVTZ
****
$end
--------------------------------------------------------------
 Atom   2: ( -0.6645000000, -0.0000001250,  0.0000000000)
         ->( -0.6645000000,  0.0000001250, -0.0000000000)
 Atom   1: (  0.6645000000, -0.0000001250, -0.0000000000)
         ->(  0.6645000000,  0.0000000000,  0.0000000000)
 Atom   6: ( -1.1590800000, -0.9623481250, -0.0000000000)
         ->( -1.1590800000, -0.9623488750,  0.0000000000)
 Atom   5: (  1.1590800000, -0.9623481250, -0.0000000000)
         ->(  1.1590800000, -0.9623488750, -0.0000000000)
 ----------------------------------------------------------------
             Standard Nuclear Orientation (Angstroms)
    I     Atom           X                Y                Z
 ----------------------------------------------------------------
    1      C       0.6645000000     0.0000000000     0.0000000000
    2      C      -0.6645000000     0.0000001250    -0.0000000000
    3      H       1.1590800000     0.9623488750     0.0000000000
    4      H      -1.1590800000     0.9623488750     0.0000000000
    5      H       1.1590800000    -0.9623488750    -0.0000000000
    6      H      -1.1590800000    -0.9623488750     0.0000000000
 ----------------------------------------------------------------
 Molecular Point Group                 D2h   NOp =  8
 Largest Abelian Subgroup              D2h   NOp =  8
 Nuclear Repulsion Energy =          33.58921667 hartrees
 There are        8 alpha and        8 beta electrons
 Requested basis set is non-standard
 There are 48 shells and 128 basis functions
 Total memory of 95000 MB is distributed as follows: 
   MEM_STATIC is set to 192 MB
   QALLOC/CCMAN JOB total memory use is  94808 MB
 Warning: actual memory use might exceed 95000 MB

 Total QAlloc Memory Limit  95000 MB
 Mega-Array Size       188 MB
 MEM_STATIC part       192 MB

                       Distance Matrix (Angstroms)
             C (  1)   C (  2)   H (  3)   H (  4)   H (  5)
   C (  2)  1.329000
   H (  3)  1.082000  2.061931
   H (  4)  2.061931  1.082000  2.318160
   H (  5)  1.082000  2.061931  1.924698  3.013026
   H (  6)  2.061931  1.082000  3.013026  1.924698  2.318160
 
 A cutoff of  1.0D-14 yielded   1176 shell pairs
 There are      8432 function pairs (     10417 Cartesian)
 Smallest overlap matrix eigenvalue = 7.14E-04

 Scale SEOQF with 1.000000e-01/1.000000e-01/1.000000e-01

 Standard Electronic Orientation quadrupole field applied
 Nucleus-field energy     =     0.0000000006 hartrees
 ================ Generating on-the-fly SAD Guess ================
Attempting to make child job directory: /src/jdavis/qchem.scratch/qchem2817//Frg1/
Attempting to make child job directory: /src/jdavis/qchem.scratch/qchem2817//Frg2/
Creating input file /src/jdavis/qchem.scratch/qchem2817/Frg1.input
using default PutDataFrgm: nothing
calling putenv with: QCSCRATCH=/src/jdavis/qchem.scratch/qchem2817/ 
Spawning Job For Fragment 0
Done Job For Fragment 0
calling putenv with: QCSCRATCH=/src/jdavis/qchem.scratch 
calling putenv with: QCTHREADS=1 
Creating input file /src/jdavis/qchem.scratch/qchem2817/Frg2.input
using default PutDataFrgm: nothing
calling putenv with: QCSCRATCH=/src/jdavis/qchem.scratch/qchem2817/ 
Spawning Job For Fragment 1
Done Job For Fragment 1
calling putenv with: QCSCRATCH=/src/jdavis/qchem.scratch 
calling putenv with: QCTHREADS=1 
 Time for running child jobs:  CPU 1.75 s  wall 53.83 s
 ============= Method Specific SAD Guess Constructed =============
 Guess from on-the-fly superposition of atomic densities
 Warning: Energy on first SCF cycle will be non-variational
 A restricted Hartree-Fock SCF calculation will be
 performed using Pulay DIIS extrapolation
 SCF converges when DIIS error is below 1.0E-08
 using 10 threads for integral computing
 -------------------------------------------------------
 OpenMP Integral computing Module                
 Release: version 1.0, May 2013, Q-Chem Inc. Pittsburgh 
 -------------------------------------------------------
 ---------------------------------------
  Cycle       Energy         DIIS Error
 ---------------------------------------
    1     -78.4646921202      3.89E-02
    2     -78.0360361604      2.90E-03
    3     -78.0577082074      7.93E-04
    4     -78.0594961793      2.78E-04
    5     -78.0597063048      3.07E-05
    6     -78.0597111208      6.53E-06
    7     -78.0597114218      1.77E-06
    8     -78.0597114531      1.84E-07
    9     -78.0597114578      2.33E-08
   10     -78.0597114581      2.47E-09 Convergence criterion met
 ---------------------------------------
 SCF time:  CPU 15.56 s  wall 1.56 s
 SCF   energy in the final basis set = -78.05971146
 Total energy in the final basis set = -78.05971146
================================================================================
|                                                                              |
|                                 A D C  M A N                                 |
|                                                                              |
 ------------------------------------------------------------------------------ 
|                                                                              |
| Components:                                                                  |
|                                                                              |
| - libvmm - 1.3-trunk                                                         |
|   Authors:                                                                   |
|   Evgeny Epifanovsky, Ilya Kaliman                                           |
|                                                                              |
| - libtensor - 2.5-trunk                                                      |
|   Authors:                                                                   |
|   Evgeny Epifanovsky, Michael Wormit, Dmitry Zuev, Sam Manzer,               |
|   Ilya Kaliman                                                               |
|                                                                              |
| - libwfa - 1.1-trunk                                                         |
|   Authors:                                                                   |
|   Felix Plasser, Stefanie Mewes (Baeppler), Benjamin Thomitzni,              |
|   Michael Wormit, Feng Chen, Anna I. Krylov, Pavel Pokhilko                  |
|                                                                              |
| - libadc - 1.1-trunk                                                         |
|   Authors:                                                                   |
|   Michael Wormit, Adrian L. Dempwolff, Philipp H. P. Harbach,                |
|   Caroline Krauter, Dirk Rehn, Matthias Schneider, Jan Wenzel                |
|                                                                              |
| - adcman - 2.6-trunk                                                         |
|   Authors:                                                                   |
|   Michael Wormit, Adrian L. Dempwolff, Philipp H. P. Harbach,                |
|   Caroline Krauter, Daniel Lefrancois, Jan-Michael Mewes, Dirk Rehn,         |
|   Matthias Schneider, Jan Wenzel, Andreas Dreuw                              |
|                                                                              |
| Authors of earlier versions of ADCMAN:                                       |
| Andreas Dreuw, Jan Hendrik Starcke, Dirk Rehn, Michael Wormit                |
|                                                                              |
================================================================================

 
 Alpha MOs, Restricted
 -- Occupied --                  
-11.228 -11.226  -1.040  -0.781  -0.661  -0.568  -0.516  -0.377
  1 Ag    1 B3u   2 Ag    2 B3u   1 B2u   3 Ag    1 B1g   1 B1u                
 -- Virtual --                   
  0.039   0.040   0.045   0.057   0.058   0.070   0.129   0.139
  3 B3u   2 B2u   2 B1u   2 B1g   1 B2g   4 Ag    2 B2g   5 Ag                 
  0.154   0.157   0.176   0.180   0.197   0.252   0.297   0.305
  4 B3u   3 B2u   3 B1g   3 B1u   6 Ag    3 B2g   5 B3u   4 B2u                
  0.413   0.419   0.437   0.554   0.562   0.619   0.638   0.641
  4 B1g   6 B3u   7 Ag    5 B2u   8 Ag    7 B3u   9 Ag    4 B1u                
  0.648   0.666   0.678   0.708   0.771   0.827   0.828   0.900
  6 B2u   1 B3g   8 B3u   4 B2g   5 B1g   9 B3u   1 Au    5 B1u                
  0.933   1.002   1.024   1.049   1.187   1.198   1.253   1.319
  6 B1g  10 Ag    7 B1g   7 B2u   6 B1u   5 B2g   2 B3g  11 Ag                 
  1.349   1.390   1.431   1.480   1.490   1.525   1.583   1.635
 10 B3u   6 B2g   8 B2u   9 B2u  11 B3u  12 Ag   12 B3u   2 Au                 
  1.698   1.837   1.854   1.971   2.298   2.499   2.589   2.621
  8 B1g  13 B3u  13 Ag    9 B1g  14 Ag    7 B1u  15 Ag    7 B2g                
  2.709   2.721   2.764   2.803   2.846   2.915   3.065   3.100
 10 B2u  11 B2u   8 B1u  14 B3u  10 B1g   3 B3g  11 B1g   9 B1u                
  3.105   3.129   3.141   3.152   3.181   3.250   3.297   3.339
  4 B3g  12 B2u  16 Ag    3 Au   17 Ag    8 B2g  15 B3u  13 B2u                
  3.410   3.425   3.431   3.463   3.496   3.550   3.592   3.641
  9 B2g   4 Au   16 B3u  17 B3u  12 B1g  10 B1u  18 Ag    5 B3g                
  3.745   3.814   3.894   3.941   3.976   3.977   4.014   4.026
 14 B2u  13 B1g  18 B3u  14 B1g   5 Au   10 B2g  15 B2u  19 Ag                 
  4.060   4.186   4.191   4.202   4.206   4.330   4.351   4.480
 11 B1u  19 B3u  15 B1g   6 B3g  20 Ag   12 B1u  11 B2g  16 B2u                
  4.531   4.606   4.667   4.758   4.812   4.934   4.974   5.057
 20 B3u   6 Au   21 Ag   21 B3u  12 B2g  13 B1u  22 Ag   16 B1g                
  5.151   5.216   5.303   5.306   5.426   5.467   5.540   5.562
 17 B2u   7 B3g  23 Ag   22 B3u   7 Au   17 B1g  13 B2g  24 Ag                 
  5.652   5.980   6.094   6.287   6.571   6.873  11.965  14.808
 18 B2u  23 B3u  18 B1g  19 B2u  24 B3u  19 B1g  25 Ag   25 B3u                
 
 Beta MOs, Restricted
 -- Occupied --                  
-11.228 -11.226  -1.040  -0.781  -0.661  -0.568  -0.516  -0.377
  1 Ag    1 B3u   2 Ag    2 B3u   1 B2u   3 Ag    1 B1g   1 B1u                
 -- Virtual --                   
  0.039   0.040   0.045   0.057   0.058   0.070   0.129   0.139
  3 B3u   2 B2u   2 B1u   2 B1g   1 B2g   4 Ag    2 B2g   5 Ag                 
  0.154   0.157   0.176   0.180   0.197   0.252   0.297   0.305
  4 B3u   3 B2u   3 B1g   3 B1u   6 Ag    3 B2g   5 B3u   4 B2u                
  0.413   0.419   0.437   0.554   0.562   0.619   0.638   0.641
  4 B1g   6 B3u   7 Ag    5 B2u   8 Ag    7 B3u   9 Ag    4 B1u                
  0.648   0.666   0.678   0.708   0.771   0.827   0.828   0.900
  6 B2u   1 B3g   8 B3u   4 B2g   5 B1g   9 B3u   1 Au    5 B1u                
  0.933   1.002   1.024   1.049   1.187   1.198   1.253   1.319
  6 B1g  10 Ag    7 B1g   7 B2u   6 B1u   5 B2g   2 B3g  11 Ag                 
  1.349   1.390   1.431   1.480   1.490   1.525   1.583   1.635
 10 B3u   6 B2g   8 B2u   9 B2u  11 B3u  12 Ag   12 B3u   2 Au                 
  1.698   1.837   1.854   1.971   2.298   2.499   2.589   2.621
  8 B1g  13 B3u  13 Ag    9 B1g  14 Ag    7 B1u  15 Ag    7 B2g                
  2.709   2.721   2.764   2.803   2.846   2.915   3.065   3.100
 10 B2u  11 B2u   8 B1u  14 B3u  10 B1g   3 B3g  11 B1g   9 B1u                
  3.105   3.129   3.141   3.152   3.181   3.250   3.297   3.339
  4 B3g  12 B2u  16 Ag    3 Au   17 Ag    8 B2g  15 B3u  13 B2u                
  3.410   3.425   3.431   3.463   3.496   3.550   3.592   3.641
  9 B2g   4 Au   16 B3u  17 B3u  12 B1g  10 B1u  18 Ag    5 B3g                
  3.745   3.814   3.894   3.941   3.976   3.977   4.014   4.026
 14 B2u  13 B1g  18 B3u  14 B1g   5 Au   10 B2g  15 B2u  19 Ag                 
  4.060   4.186   4.191   4.202   4.206   4.330   4.351   4.480
 11 B1u  19 B3u  15 B1g   6 B3g  20 Ag   12 B1u  11 B2g  16 B2u                
  4.531   4.606   4.667   4.758   4.812   4.934   4.974   5.057
 20 B3u   6 Au   21 Ag   21 B3u  12 B2g  13 B1u  22 Ag   16 B1g                
  5.151   5.216   5.303   5.306   5.426   5.467   5.540   5.562
 17 B2u   7 B3g  23 Ag   22 B3u   7 Au   17 B1g  13 B2g  24 Ag                 
  5.652   5.980   6.094   6.287   6.571   6.873  11.965  14.808
 18 B2u  23 B3u  18 B1g  19 B2u  24 B3u  19 B1g  25 Ag   25 B3u                

--------------------------------------------------------------------------------
                                   HF Summary                                   
--------------------------------------------------------------------------------
  Energy:                                                  -78.0597114581 a.u.
  Dip. moment [a.u.]:                  [   0.000000,   -0.000000,    0.000000]
  Total dipole [Debye]:                                               0.000001
  <r^2> [a.u.]:                        [  47.675376,   22.101755,   11.972069]
  Total <r^2> [a.u.]:                                                81.749200
--------------------------------------------------------------------------------

--------------------------------------------------------------------------------
                                 MP(2) Summary                                  
--------------------------------------------------------------------------------
  MP energy contribution:                                   -0.3670911651 a.u.
  Total energy:                                            -78.4268026232 a.u.
  Dip. moment [a.u.]:                  [   0.000000,   -0.000000,    0.000000]
  Total dipole [Debye]:                                               0.000000
  <r^2> [a.u.]:                        [  47.645800,   21.993595,   11.734421]
  Total <r^2> [a.u.]:                                                81.373817

  Density matrix analysis:
  ------------------------
  NOs (alpha)
    Occupation of frontier NOs:
       0.0226   0.9661
    Number of electrons:  8.000000
  NOs (beta)
    Occupation of frontier NOs:
       0.0226   0.9661
    Number of electrons:  8.000000
  NOs (spin-traced)
    Occupation of frontier NOs:
       0.0452   1.9322
    Number of electrons: 16.000000
    Number of unpaired electrons: n_u =  0.45276, n_u,nl =  0.05290
    NO participation ratio (PR_NO): 14.823196
  
  
  Mulliken Population Analysis
  Atom  Charge (e)    Spin (e)  h+ (alpha)   h+ (beta)  e- (alpha)   e- (beta)
  ----------------------------------------------------------------------------
   1 C   -0.305735   -0.000000    0.043307    0.043307   -0.060391   -0.060391
   2 C   -0.305735   -0.000000    0.043307    0.043307   -0.060391   -0.060391
   3 H    0.152858    0.000000    0.013252    0.013252   -0.004710   -0.004710
   4 H    0.152897    0.000000    0.013252    0.013252   -0.004710   -0.004710
   5 H    0.152877    0.000000    0.013252    0.013252   -0.004710   -0.004710
   6 H    0.152838   -0.000000    0.013252    0.013252   -0.004710   -0.004710
  ----------------------------------------------------------------------------
  Sum:    0.000000   -0.000000    0.139622    0.139622   -0.139622   -0.139622
  
  Multipole moment analysis of the density matrix
    Molecular charge:                      0.000000
    Number of electrons:                   16.000000
      Center of electronic charge [Ang]: [ -0.000000,   0.000000,  -0.000000]
    Total nuclear charge:                  16.000000
      Center of nuclear charge [Ang]:    [  0.000000,   0.000000,   0.000000]
    Dipole moment [D]:                     0.000000
      Cartesian components [D]:          [  0.000000,  -0.000000,   0.000000]
    RMS size of the density [Ang]:         1.193393
      Cartesian components [Ang]:        [  0.913174,   0.620425,   0.453181]
  
  Exciton analysis of the difference density matrix
  Total:
    <r_h> [Ang]:                  [  0.000000,   0.000000,   0.000000]
    <r_e> [Ang]:                  [  0.000000,  -0.000000,  -0.000000]
    |<r_e - r_h>| [Ang]:            0.000000
    Hole size [Ang]:                1.446689
      Cartesian components [Ang]: [  0.971358,   0.749851,   0.766222]
    Electron size [Ang]:            1.310142
      Cartesian components [Ang]: [  0.955969,   0.673657,   0.590576]
  
  Alpha spin:
    <r_h> [Ang]:                  [  0.000000,   0.000000,   0.000000]
    <r_e> [Ang]:                  [  0.000000,  -0.000000,  -0.000000]
    |<r_e - r_h>| [Ang]:            0.000000
    Hole size [Ang]:                1.446689
      Cartesian components [Ang]: [  0.971358,   0.749851,   0.766222]
    Electron size [Ang]:            1.310142
      Cartesian components [Ang]: [  0.955969,   0.673657,   0.590576]
  
  Beta spin:
    <r_h> [Ang]:                  [  0.000000,   0.000000,   0.000000]
    <r_e> [Ang]:                  [  0.000000,  -0.000000,  -0.000000]
    |<r_e - r_h>| [Ang]:            0.000000
    Hole size [Ang]:                1.446689
      Cartesian components [Ang]: [  0.971358,   0.749851,   0.766222]
    Electron size [Ang]:            1.310142
      Cartesian components [Ang]: [  0.955969,   0.673657,   0.590576]
--------------------------------------------------------------------------------
Less particle guess vectors found than requested: 13 (found), 100 (requested).
Adjusting number of hole-2particle guess vectors to 87.
  Starting Davidson for electron-attached states of irrep B2g ... 
--------------------------------------------------------------------------------
   It NVec Conv  Avg. Norm  Max. Norm  Conv. states           Remark
--------------------------------------------------------------------------------
       100    0  4.935e-02  3.883e-01  0.0583 n n n n n n n n Guess.
    1  110    5  3.814e-04  3.164e-03  0.0539 n n n y y n y y 
    2  120   10  3.719e-07  3.193e-06  0.0539 y y y y y y y y Converged.
--------------------------------------------------------------------------------
  Davidson Summary: 
 ------------------------------------------------------------
  State  0: electron attachment energy =   0.0539 a.u.   (converged)
  State  1: electron attachment energy =   0.0864 a.u.   (converged)
  State  2: electron attachment energy =   0.2151 a.u.   (converged)
  State  3: electron attachment energy =   0.4742 a.u.   (converged)
  State  4: electron attachment energy =   0.4742 a.u.   (converged)
  State  5: electron attachment energy =   0.4813 a.u.   (converged)
  State  6: electron attachment energy =   0.4813 a.u.   (converged)
  State  7: electron attachment energy =   0.4873 a.u.   (converged)
  State  8: electron attachment energy =   0.4873 a.u.   (converged)
  State  9: electron attachment energy =   0.5518 a.u.   (converged)
 ------------------------------------------------------------


--------------------------------------------------------------------------------
                        Electron-Attached State Summary
--------------------------------------------------------------------------------

  Electron-attached state 1 (B2g)                                  [converged]
  ----------------------------------------------------------------------------
  Term symbol:  1 (2) B2g                                   R^2 =  1.52193e-06

  Total energy:                                            -78.3729074468 a.u.
  Electron attachment energy:                                      1.466562 eV

  Pole strength:                                                      0.987121

  Dip. moment [a.u.]:                  [   0.000000,   -0.000000,    0.000000]
  Total dipole [Debye]:                                               0.000001
  <r^2> [a.u.]:                        [  85.531876,   34.586703,   48.681711]
  Total <r^2> [a.u.]:                                               168.800290

  V1^2 = 0.9900, V2^2 = 0.0100

  Important amplitudes:
       occ i       vir a        vir b           v   
    -------------------------------------------------
                               1 (B2g) B      0.9617
                               2 (B2g) B     -0.2402
    -------------------------------------------------

  Density matrix analysis:
  ------------------------
  NOs (alpha)
    Occupation of frontier NOs:
       0.0216   0.9651
    Number of electrons:  8.000000
  NOs (beta)
    Occupation of frontier NOs:
       0.0249   0.9670
    Number of electrons:  9.000000
  NOs (spin-traced)
    Occupation of frontier NOs:
       0.0436   0.9940
    Number of electrons: 17.000000
    Number of unpaired electrons: n_u =  1.46152, n_u,nl =  1.05432
    NO participation ratio (PR_NO):  2.131169
  
  
  Mulliken Population Analysis
  Atom  Charge (e)    Spin (e)  h+ (alpha)   h+ (beta)  e- (alpha)   e- (beta)
  ----------------------------------------------------------------------------
   1 C   -0.780861    0.511388    0.020713    0.017517   -0.002581   -0.510775
   2 C   -0.780861    0.511388    0.020713    0.017517   -0.002581   -0.510775
   3 H    0.140421   -0.005694    0.000023    0.002460   -0.009088   -0.005832
   4 H    0.140460   -0.005694    0.000023    0.002460   -0.009088   -0.005832
   5 H    0.140440   -0.005694    0.000023    0.002460   -0.009088   -0.005832
   6 H    0.140401   -0.005694    0.000023    0.002460   -0.009088   -0.005832
  ----------------------------------------------------------------------------
  Sum:   -1.000000    1.000000    0.041516    0.044876   -0.041516   -1.044876
  
  Multipole moment analysis of the density matrix
    Molecular charge:                      -1.000000
    Number of electrons:                   17.000000
      Center of electronic charge [Ang]: [ -0.000000,   0.000000,  -0.000000]
    Total nuclear charge:                  16.000000
      Center of nuclear charge [Ang]:    [  0.000000,   0.000000,   0.000000]
    Dipole moment [D]:                     0.000001
      Cartesian components [D]:          [  0.000000,  -0.000001,   0.000000]
    RMS size of the density [Ang]:         1.667490
      Cartesian components [Ang]:        [  1.186973,   0.754799,   0.895488]
  
  Exciton analysis of the difference density matrix
  Total:
    <r_h> [Ang]:                  [ -0.000000,  -0.000000,  -0.000000]
    <r_e> [Ang]:                  [ -0.000000,   0.000000,  -0.000000]
    |<r_e - r_h>| [Ang]:            0.000000
    Hole size [Ang]:                1.643150
      Cartesian components [Ang]: [  1.096426,   0.832415,   0.897149]
    Electron size [Ang]:            4.769670
      Cartesian components [Ang]: [  3.140241,   1.816894,   3.096375]
  
  Alpha spin:
    <r_h> [Ang]:                  [ -0.000000,  -0.000000,  -0.000000]
    <r_e> [Ang]:                  [ -0.000000,  -0.000000,  -0.000000]
    |<r_e - r_h>| [Ang]:            0.000000
    Hole size [Ang]:                1.442447
      Cartesian components [Ang]: [  1.023036,   0.755047,   0.681141]
    Electron size [Ang]:            2.172238
      Cartesian components [Ang]: [  1.396933,   1.304628,   1.032058]
  
  Beta spin:
    <r_h> [Ang]:                  [  0.000000,  -0.000000,  -0.000000]
    <r_e> [Ang]:                  [ -0.000000,   0.000000,  -0.000000]
    |<r_e - r_h>| [Ang]:            0.000000
    Hole size [Ang]:                1.809107
      Cartesian components [Ang]: [  1.160195,   0.898075,   1.058432]
    Electron size [Ang]:            4.844192
      Cartesian components [Ang]: [  3.189889,   1.834295,   3.150582]
  ----------------------------------------------------------------------------


  Electron-attached state 2 (B2g)                                  [converged]
  ----------------------------------------------------------------------------
  Term symbol:  2 (2) B2g                                   R^2 =  3.19350e-06

  Total energy:                                            -78.3403578724 a.u.
  Electron attachment energy:                                      2.352281 eV

  Pole strength:                                                      0.946102

  Dip. moment [a.u.]:                  [   0.000000,   -0.000000,   -0.000000]
  Total dipole [Debye]:                                               0.000001
  <r^2> [a.u.]:                        [  68.508450,   29.506908,   30.967053]
  Total <r^2> [a.u.]:                                               128.982411

  V1^2 = 0.9583, V2^2 = 0.0417

  Important amplitudes:
       occ i       vir a        vir b           v   
    -------------------------------------------------
                               2 (B2g) B      0.9088
                               1 (B2g) B      0.2691
    -------------------------------------------------

  Density matrix analysis:
  ------------------------
  NOs (alpha)
    Occupation of frontier NOs:
       0.0189   0.9632
    Number of electrons:  8.000000
  NOs (beta)
    Occupation of frontier NOs:
       0.0215   0.9736
    Number of electrons:  9.000000
  NOs (spin-traced)
    Occupation of frontier NOs:
       0.0297   0.9864
    Number of electrons: 17.000000
    Number of unpaired electrons: n_u =  1.47270, n_u,nl =  1.05356
    NO participation ratio (PR_NO):  2.197396
  
  
  Mulliken Population Analysis
  Atom  Charge (e)    Spin (e)  h+ (alpha)   h+ (beta)  e- (alpha)   e- (beta)
  ----------------------------------------------------------------------------
   1 C   -0.701043    0.521388    0.089745    0.064877   -0.026705   -0.523225
   2 C   -0.701043    0.521388    0.089745    0.064877   -0.026705   -0.523225
   3 H    0.100512   -0.010695    0.001717    0.007791   -0.033238   -0.028617
   4 H    0.100550   -0.010694    0.001717    0.007791   -0.033238   -0.028617
   5 H    0.100532   -0.010694    0.001717    0.007791   -0.033237   -0.028617
   6 H    0.100493   -0.010694    0.001718    0.007791   -0.033237   -0.028617
  ----------------------------------------------------------------------------
  Sum:   -1.000000    1.000000    0.186360    0.160918   -0.186360   -1.160918
  
  Multipole moment analysis of the density matrix
    Molecular charge:                      -1.000000
    Number of electrons:                   17.000000
      Center of electronic charge [Ang]: [ -0.000000,   0.000000,   0.000000]
    Total nuclear charge:                  16.000000
      Center of nuclear charge [Ang]:    [  0.000000,   0.000000,   0.000000]
    Dipole moment [D]:                     0.000001
      Cartesian components [D]:          [  0.000000,  -0.000001,  -0.000000]
    RMS size of the density [Ang]:         1.457612
      Cartesian components [Ang]:        [  1.062304,   0.697170,   0.714211]
  
  Exciton analysis of the difference density matrix
  Total:
    <r_h> [Ang]:                  [  0.000000,  -0.000000,  -0.000000]
    <r_e> [Ang]:                  [  0.000000,  -0.000000,   0.000000]
    |<r_e - r_h>| [Ang]:            0.000000
    Hole size [Ang]:                1.390475
      Cartesian components [Ang]: [  0.998720,   0.706702,   0.660719]
    Electron size [Ang]:            3.223926
      Cartesian components [Ang]: [  2.143212,   1.300138,   2.027310]
  
  Alpha spin:
    <r_h> [Ang]:                  [ -0.000000,  -0.000000,  -0.000000]
    <r_e> [Ang]:                  [ -0.000000,  -0.000000,  -0.000000]
    |<r_e - r_h>| [Ang]:            0.000000
    Hole size [Ang]:                1.381162
      Cartesian components [Ang]: [  0.992729,   0.693253,   0.664454]
    Electron size [Ang]:            2.152910
      Cartesian components [Ang]: [  1.409464,   1.241883,   1.051741]
  
  Beta spin:
    <r_h> [Ang]:                  [  0.000000,  -0.000000,  -0.000000]
    <r_e> [Ang]:                  [  0.000000,  -0.000000,   0.000000]
    |<r_e - r_h>| [Ang]:            0.000000
    Hole size [Ang]:                1.401182
      Cartesian components [Ang]: [  1.005614,   0.721966,   0.656367]
    Electron size [Ang]:            3.364243
      Cartesian components [Ang]: [  2.238709,   1.309248,   2.142938]
  ----------------------------------------------------------------------------


  Electron-attached state 3 (B2g)                                  [converged]
  ----------------------------------------------------------------------------
  Term symbol:  3 (2) B2g                                   R^2 =  9.98988e-07

  Total energy:                                            -78.2117194340 a.u.
  Electron attachment energy:                                      5.852711 eV

  Pole strength:                                                      0.968920

  Dip. moment [a.u.]:                  [   0.000000,   -0.000000,   -0.000000]
  Total dipole [Debye]:                                               0.000001
  <r^2> [a.u.]:                        [  71.181909,   30.146624,   34.564223]
  Total <r^2> [a.u.]:                                               135.892756

  V1^2 = 0.9729, V2^2 = 0.0271

  Important amplitudes:
       occ i       vir a        vir b           v   
    -------------------------------------------------
                               3 (B2g) B      0.9396
                               2 (B2g) B      0.2891
    -------------------------------------------------

  Density matrix analysis:
  ------------------------
  NOs (alpha)
    Occupation of frontier NOs:
       0.0251   0.9581
    Number of electrons:  8.000000
  NOs (beta)
    Occupation of frontier NOs:
       0.0307   0.9682
    Number of electrons:  9.000000
  NOs (spin-traced)
    Occupation of frontier NOs:
       0.0514   0.9809
    Number of electrons: 17.000000
    Number of unpaired electrons: n_u =  1.48992, n_u,nl =  1.06364
    NO participation ratio (PR_NO):  2.267222
  
  
  Mulliken Population Analysis
  Atom  Charge (e)    Spin (e)  h+ (alpha)   h+ (beta)  e- (alpha)   e- (beta)
  ----------------------------------------------------------------------------
   1 C   -0.731587    0.499825    0.048254    0.035566   -0.011267   -0.498405
   2 C   -0.731587    0.499825    0.048254    0.035566   -0.011267   -0.498405
   3 H    0.115784    0.000087   -0.000433   -0.001215   -0.018060   -0.017366
   4 H    0.115823    0.000087   -0.000433   -0.001215   -0.018060   -0.017366
   5 H    0.115803    0.000087   -0.000433   -0.001215   -0.018060   -0.017366
   6 H    0.115765    0.000087   -0.000433   -0.001215   -0.018060   -0.017366
  ----------------------------------------------------------------------------
  Sum:   -1.000000    1.000000    0.094774    0.066272   -0.094774   -1.066272
  
  Multipole moment analysis of the density matrix
    Molecular charge:                      -1.000000
    Number of electrons:                   17.000000
      Center of electronic charge [Ang]: [ -0.000000,   0.000000,   0.000000]
    Total nuclear charge:                  16.000000
      Center of nuclear charge [Ang]:    [  0.000000,   0.000000,   0.000000]
    Dipole moment [D]:                     0.000001
      Cartesian components [D]:          [  0.000000,  -0.000001,  -0.000000]
    RMS size of the density [Ang]:         1.496149
      Cartesian components [Ang]:        [  1.082833,   0.704687,   0.754554]
  
  Exciton analysis of the difference density matrix
  Total:
    <r_h> [Ang]:                  [  0.000000,  -0.000001,  -0.000000]
    <r_e> [Ang]:                  [  0.000000,   0.000000,  -0.000000]
    |<r_e - r_h>| [Ang]:            0.000001
    Hole size [Ang]:                1.316019
      Cartesian components [Ang]: [  0.962782,   0.691372,   0.571805]
    Electron size [Ang]:            3.659160
      Cartesian components [Ang]: [  2.409391,   1.425728,   2.356181]
  
  Alpha spin:
    <r_h> [Ang]:                  [ -0.000000,  -0.000000,  -0.000000]
    <r_e> [Ang]:                  [  0.000000,  -0.000000,  -0.000000]
    |<r_e - r_h>| [Ang]:            0.000000
    Hole size [Ang]:                1.284594
      Cartesian components [Ang]: [  0.939124,   0.651262,   0.586589]
    Electron size [Ang]:            2.104272
      Cartesian components [Ang]: [  1.387878,   1.226407,   0.998840]
  
  Beta spin:
    <r_h> [Ang]:                  [  0.000000,  -0.000001,  -0.000000]
    <r_e> [Ang]:                  [  0.000000,   0.000000,  -0.000000]
    |<r_e - r_h>| [Ang]:            0.000001
    Hole size [Ang]:                1.359697
      Cartesian components [Ang]: [  0.995638,   0.744990,   0.549973]
    Electron size [Ang]:            3.766428
      Cartesian components [Ang]: [  2.479907,   1.442112,   2.440565]
  ----------------------------------------------------------------------------


  Electron-attached state 4 (B2g)                                  [converged]
  ----------------------------------------------------------------------------
  Term symbol:  4 (2) B2g                                   R^2 =  1.40347e-09

  Total energy:                                            -77.9525604896 a.u.
  Electron attachment energy:                                     12.904785 eV

  Pole strength:                                                      0.000000

  Dip. moment [a.u.]:                  [   0.000000,    0.000000,    0.000000]
  Total dipole [Debye]:                                               0.000001
  <r^2> [a.u.]:                        [ 116.057091,  126.034400,   43.660598]
  Total <r^2> [a.u.]:                                               285.752089

  V1^2 = 0.0000, V2^2 = 1.0000

  Important amplitudes:
       occ i       vir a        vir b           v   
    -------------------------------------------------
     1 (B1u) A    2 (B1g) A    2 (B2u) B      0.5352
     1 (B1u) B    2 (B1g) B    2 (B2u) B      0.4551
    -------------------------------------------------

  Density matrix analysis:
  ------------------------
  NOs (alpha)
    Occupation of frontier NOs:
       0.3814   0.5730
    Number of electrons:  8.000000
  NOs (beta)
    Occupation of frontier NOs:
       0.4272   0.5523
    Number of electrons:  9.000000
  NOs (spin-traced)
    Occupation of frontier NOs:
       0.9335   1.0002
    Number of electrons: 17.000000
    Number of unpaired electrons: n_u =  3.31594, n_u,nl =  3.02680
    NO participation ratio (PR_NO):  3.818560
  
  
  Mulliken Population Analysis
  Atom  Charge (e)    Spin (e)  h+ (alpha)   h+ (beta)  e- (alpha)   e- (beta)
  ----------------------------------------------------------------------------
   1 C   -0.721948    0.467712    0.285978    0.202288   -0.260228   -0.644250
   2 C   -0.721948    0.467712    0.285978    0.202288   -0.260228   -0.644250
   3 H    0.110965    0.016144    0.003436    0.002431   -0.016311   -0.031449
   4 H    0.111003    0.016144    0.003436    0.002431   -0.016311   -0.031450
   5 H    0.110983    0.016144    0.003436    0.002431   -0.016311   -0.031450
   6 H    0.110945    0.016144    0.003436    0.002431   -0.016311   -0.031449
  ----------------------------------------------------------------------------
  Sum:   -1.000000    1.000000    0.585701    0.414299   -0.585701   -1.414299
  
  Multipole moment analysis of the density matrix
    Molecular charge:                      -1.000000
    Number of electrons:                   17.000000
      Center of electronic charge [Ang]: [ -0.000000,   0.000000,  -0.000000]
    Total nuclear charge:                  16.000000
      Center of nuclear charge [Ang]:    [  0.000000,   0.000000,   0.000000]
    Dipole moment [D]:                     0.000001
      Cartesian components [D]:          [  0.000000,   0.000001,   0.000000]
    RMS size of the density [Ang]:         2.169559
      Cartesian components [Ang]:        [  1.382651,   1.440858,   0.848050]
  
  Exciton analysis of the difference density matrix
  Total:
    <r_h> [Ang]:                  [ -0.000000,   0.000000,  -0.000000]
    <r_e> [Ang]:                  [ -0.000000,  -0.000000,   0.000000]
    |<r_e - r_h>| [Ang]:            0.000000
    Hole size [Ang]:                1.247993
      Cartesian components [Ang]: [  0.742784,   0.514431,   0.860883]
    Electron size [Ang]:            5.421680
      Cartesian components [Ang]: [  3.139175,   3.833995,   2.200154]
  
  Alpha spin:
    <r_h> [Ang]:                  [ -0.000000,   0.000000,  -0.000000]
    <r_e> [Ang]:                  [ -0.000000,  -0.000000,  -0.000000]
    |<r_e - r_h>| [Ang]:            0.000000
    Hole size [Ang]:                1.247993
      Cartesian components [Ang]: [  0.742784,   0.514431,   0.860883]
    Electron size [Ang]:            5.745486
      Cartesian components [Ang]: [  3.762283,   3.767219,   2.159605]
  
  Beta spin:
    <r_h> [Ang]:                  [ -0.000000,   0.000000,  -0.000000]
    <r_e> [Ang]:                  [ -0.000000,  -0.000000,   0.000000]
    |<r_e - r_h>| [Ang]:            0.000000
    Hole size [Ang]:                1.247993
      Cartesian components [Ang]: [  0.742784,   0.514431,   0.860883]
    Electron size [Ang]:            5.281774
      Cartesian components [Ang]: [  2.841394,   3.861311,   2.216730]
  ----------------------------------------------------------------------------


  Electron-attached state 5 (B2g)                                  [converged]
  ----------------------------------------------------------------------------
  Term symbol:  5 (2) B2g                                   R^2 =  2.41880e-09

  Total energy:                                            -77.9525603037 a.u.
  Electron attachment energy:                                     12.904790 eV

  Pole strength:                                                      0.000001

  Dip. moment [a.u.]:                  [   0.000000,    0.000000,    0.000000]
  Total dipole [Debye]:                                               0.000001
  <r^2> [a.u.]:                        [ 116.057176,  126.034507,   43.660664]
  Total <r^2> [a.u.]:                                               285.752348

  V1^2 = 0.0000, V2^2 = 1.0000

  Important amplitudes:
       occ i       vir a        vir b           v   
    -------------------------------------------------
     1 (B1u) A    2 (B2u) A    2 (B1g) B     -0.5718
     1 (B1u) B    2 (B1g) B    2 (B2u) B      0.3552
    -------------------------------------------------

  Density matrix analysis:
  ------------------------
  NOs (alpha)
    Occupation of frontier NOs:
       0.2206   0.6541
    Number of electrons:  8.000000
  NOs (beta)
    Occupation of frontier NOs:
       0.3464   0.7139
    Number of electrons:  9.000000
  NOs (spin-traced)
    Occupation of frontier NOs:
       0.9335   1.0002
    Number of electrons: 17.000000
    Number of unpaired electrons: n_u =  3.31594, n_u,nl =  3.02680
    NO participation ratio (PR_NO):  3.818562
  
  
  Mulliken Population Analysis
  Atom  Charge (e)    Spin (e)  h+ (alpha)   h+ (beta)  e- (alpha)   e- (beta)
  ----------------------------------------------------------------------------
   1 C   -0.721947    0.460784    0.365043    0.123222   -0.342757   -0.561721
   2 C   -0.721947    0.460784    0.365043    0.123222   -0.342757   -0.561721
   3 H    0.110964    0.019608    0.004386    0.001481   -0.015529   -0.032232
   4 H    0.111003    0.019608    0.004386    0.001481   -0.015530   -0.032232
   5 H    0.110983    0.019608    0.004386    0.001481   -0.015530   -0.032232
   6 H    0.110945    0.019608    0.004387    0.001481   -0.015529   -0.032232
  ----------------------------------------------------------------------------
  Sum:   -1.000000    1.000000    0.747632    0.252368   -0.747632   -1.252368
  
  Multipole moment analysis of the density matrix
    Molecular charge:                      -1.000000
    Number of electrons:                   17.000000
      Center of electronic charge [Ang]: [ -0.000000,   0.000000,  -0.000000]
    Total nuclear charge:                  16.000000
      Center of nuclear charge [Ang]:    [  0.000000,   0.000000,   0.000000]
    Dipole moment [D]:                     0.000001
      Cartesian components [D]:          [  0.000000,   0.000001,   0.000000]
    RMS size of the density [Ang]:         2.169560
      Cartesian components [Ang]:        [  1.382651,   1.440859,   0.848051]
  
  Exciton analysis of the difference density matrix
  Total:
    <r_h> [Ang]:                  [ -0.000000,   0.000000,  -0.000000]
    <r_e> [Ang]:                  [ -0.000000,  -0.000000,  -0.000000]
    |<r_e - r_h>| [Ang]:            0.000000
    Hole size [Ang]:                1.247993
      Cartesian components [Ang]: [  0.742784,   0.514431,   0.860883]
    Electron size [Ang]:            5.421684
      Cartesian components [Ang]: [  3.139177,   3.833997,   2.200157]
  
  Alpha spin:
    <r_h> [Ang]:                  [ -0.000000,   0.000000,  -0.000000]
    <r_e> [Ang]:                  [ -0.000000,  -0.000000,   0.000000]
    |<r_e - r_h>| [Ang]:            0.000000
    Hole size [Ang]:                1.247993
      Cartesian components [Ang]: [  0.742784,   0.514431,   0.860883]
    Electron size [Ang]:            5.153822
      Cartesian components [Ang]: [  2.546666,   3.885511,   2.231409]
  
  Beta spin:
    <r_h> [Ang]:                  [ -0.000000,   0.000000,  -0.000000]
    <r_e> [Ang]:                  [ -0.000000,  -0.000000,  -0.000000]
    |<r_e - r_h>| [Ang]:            0.000000
    Hole size [Ang]:                1.247992
      Cartesian components [Ang]: [  0.742783,   0.514431,   0.860882]
    Electron size [Ang]:            5.575460
      Cartesian components [Ang]: [  3.444648,   3.802913,   2.181287]
  ----------------------------------------------------------------------------


  Electron-attached state 6 (B2g)                                  [converged]
  ----------------------------------------------------------------------------
  Term symbol:  6 (2) B2g                                   R^2 =  4.93738e-08

  Total energy:                                            -77.9455159551 a.u.
  Electron attachment energy:                                     13.096476 eV

  Pole strength:                                                      0.000083

  Dip. moment [a.u.]:                  [   0.000000,   -0.000000,    0.000000]
  Total dipole [Debye]:                                               0.000001
  <r^2> [a.u.]:                        [ 110.448509,   54.305030,  108.856438]
  Total <r^2> [a.u.]:                                               273.609977

  V1^2 = 0.0001, V2^2 = 0.9999

  Important amplitudes:
       occ i       vir a        vir b           v   
    -------------------------------------------------
     1 (B1u) A    2 (B1u) A    1 (B2g) B     -0.5766
     1 (B1u) A    1 (B2g) A    2 (B1u) B     -0.3139
    -------------------------------------------------

  Density matrix analysis:
  ------------------------
  NOs (alpha)
    Occupation of frontier NOs:
       0.1976   0.6652
    Number of electrons:  8.000000
  NOs (beta)
    Occupation of frontier NOs:
       0.3353   0.8033
    Number of electrons:  9.000000
  NOs (spin-traced)
    Occupation of frontier NOs:
       0.9322   1.0009
    Number of electrons: 17.000000
    Number of unpaired electrons: n_u =  3.31191, n_u,nl =  3.02618
    NO participation ratio (PR_NO):  3.817925
  
  
  Mulliken Population Analysis
  Atom  Charge (e)    Spin (e)  h+ (alpha)   h+ (beta)  e- (alpha)   e- (beta)
  ----------------------------------------------------------------------------
   1 C   -0.817174    0.491342    0.420878    0.067361   -0.430927   -0.568752
   2 C   -0.817174    0.491342    0.420878    0.067361   -0.430927   -0.568752
   3 H    0.158577    0.004329    0.005057    0.000811   -0.000033   -0.000115
   4 H    0.158616    0.004329    0.005057    0.000811   -0.000033   -0.000115
   5 H    0.158596    0.004329    0.005057    0.000811   -0.000033   -0.000115
   6 H    0.158558    0.004329    0.005057    0.000811   -0.000033   -0.000115
  ----------------------------------------------------------------------------
  Sum:   -1.000000    1.000000    0.861987    0.137965   -0.861987   -1.137965
  
  Multipole moment analysis of the density matrix
    Molecular charge:                      -1.000000
    Number of electrons:                   17.000000
      Center of electronic charge [Ang]: [ -0.000000,   0.000000,  -0.000000]
    Total nuclear charge:                  16.000000
      Center of nuclear charge [Ang]:    [  0.000000,   0.000000,   0.000000]
    Dipole moment [D]:                     0.000001
      Cartesian components [D]:          [  0.000000,  -0.000001,   0.000000]
    RMS size of the density [Ang]:         2.122964
      Cartesian components [Ang]:        [  1.348828,   0.945794,   1.339071]
  
  Exciton analysis of the difference density matrix
  Total:
    <r_h> [Ang]:                  [ -0.000000,   0.000000,  -0.000000]
    <r_e> [Ang]:                  [ -0.000000,   0.000000,  -0.000000]
    |<r_e - r_h>| [Ang]:            0.000000
    Hole size [Ang]:                1.248061
      Cartesian components [Ang]: [  0.742822,   0.514475,   0.860923]
    Electron size [Ang]:            5.262629
      Cartesian components [Ang]: [  3.011540,   2.157895,   3.737564]
  
  Alpha spin:
    <r_h> [Ang]:                  [ -0.000000,   0.000000,  -0.000000]
    <r_e> [Ang]:                  [  0.000000,   0.000000,  -0.000000]
    |<r_e - r_h>| [Ang]:            0.000000
    Hole size [Ang]:                1.248061
      Cartesian components [Ang]: [  0.742818,   0.514470,   0.860929]
    Electron size [Ang]:            5.153625
      Cartesian components [Ang]: [  2.645835,   2.211261,   3.830108]
  
  Beta spin:
    <r_h> [Ang]:                  [ -0.000000,   0.000000,  -0.000000]
    <r_e> [Ang]:                  [ -0.000000,   0.000000,  -0.000000]
    |<r_e - r_h>| [Ang]:            0.000000
    Hole size [Ang]:                1.248065
      Cartesian components [Ang]: [  0.742849,   0.514507,   0.860886]
    Electron size [Ang]:            5.343718
      Cartesian components [Ang]: [  3.261372,   2.116576,   3.665908]
  ----------------------------------------------------------------------------


  Electron-attached state 7 (B2g)                                  [converged]
  ----------------------------------------------------------------------------
  Term symbol:  7 (2) B2g                                   R^2 =  8.29766e-09

  Total energy:                                            -77.9454997812 a.u.
  Electron attachment energy:                                     13.096916 eV

  Pole strength:                                                      0.000129

  Dip. moment [a.u.]:                  [   0.000000,   -0.000000,    0.000000]
  Total dipole [Debye]:                                               0.000001
  <r^2> [a.u.]:                        [ 110.457338,   54.303892,  108.849462]
  Total <r^2> [a.u.]:                                               273.610692

  V1^2 = 0.0001, V2^2 = 0.9999

  Important amplitudes:
       occ i       vir a        vir b           v   
    -------------------------------------------------
     1 (B1u) B    1 (B2g) B    2 (B1u) B      0.5141
     1 (B1u) A    1 (B2g) A    2 (B1u) B      0.4845
    -------------------------------------------------

  Density matrix analysis:
  ------------------------
  NOs (alpha)
    Occupation of frontier NOs:
       0.4699   0.4955
    Number of electrons:  8.000000
  NOs (beta)
    Occupation of frontier NOs:
       0.4380   0.5309
    Number of electrons:  9.000000
  NOs (spin-traced)
    Occupation of frontier NOs:
       0.9305   1.0009
    Number of electrons: 17.000000
    Number of unpaired electrons: n_u =  3.30863, n_u,nl =  3.02569
    NO participation ratio (PR_NO):  3.818883
  
  
  Mulliken Population Analysis
  Atom  Charge (e)    Spin (e)  h+ (alpha)   h+ (beta)  e- (alpha)   e- (beta)
  ----------------------------------------------------------------------------
   1 C   -0.817106    0.500647    0.230132    0.258195   -0.235494   -0.764204
   2 C   -0.817106    0.500647    0.230132    0.258195   -0.235494   -0.764204
   3 H    0.158544   -0.000324    0.002765    0.003100   -0.000084   -0.000096
   4 H    0.158582   -0.000324    0.002765    0.003100   -0.000084   -0.000096
   5 H    0.158563   -0.000324    0.002765    0.003100   -0.000084   -0.000096
   6 H    0.158524   -0.000324    0.002765    0.003100   -0.000084   -0.000096
  ----------------------------------------------------------------------------
  Sum:   -1.000000    1.000000    0.471324    0.528791   -0.471324   -1.528791
  
  Multipole moment analysis of the density matrix
    Molecular charge:                      -1.000000
    Number of electrons:                   17.000000
      Center of electronic charge [Ang]: [ -0.000000,   0.000000,  -0.000000]
    Total nuclear charge:                  16.000000
      Center of nuclear charge [Ang]:    [  0.000000,   0.000000,   0.000000]
    Dipole moment [D]:                     0.000001
      Cartesian components [D]:          [  0.000000,  -0.000001,   0.000000]
    RMS size of the density [Ang]:         2.122967
      Cartesian components [Ang]:        [  1.348882,   0.945784,   1.339028]
  
  Exciton analysis of the difference density matrix
  Total:
    <r_h> [Ang]:                  [ -0.000000,   0.000000,  -0.000000]
    <r_e> [Ang]:                  [ -0.000000,   0.000000,  -0.000000]
    |<r_e - r_h>| [Ang]:            0.000000
    Hole size [Ang]:                1.249133
      Cartesian components [Ang]: [  0.743236,   0.515003,   0.861803]
    Electron size [Ang]:            5.262562
      Cartesian components [Ang]: [  3.011680,   2.157837,   3.737389]
  
  Alpha spin:
    <r_h> [Ang]:                  [ -0.000000,   0.000000,  -0.000000]
    <r_e> [Ang]:                  [ -0.000000,   0.000000,  -0.000000]
    |<r_e - r_h>| [Ang]:            0.000000
    Hole size [Ang]:                1.248223
      Cartesian components [Ang]: [  0.742908,   0.514572,   0.861025]
    Electron size [Ang]:            5.456716
      Cartesian components [Ang]: [  3.585387,   2.056915,   3.562281]
  
  Beta spin:
    <r_h> [Ang]:                  [ -0.000000,   0.000000,  -0.000000]
    <r_e> [Ang]:                  [  0.000000,   0.000000,  -0.000000]
    |<r_e - r_h>| [Ang]:            0.000000
    Hole size [Ang]:                1.249943
      Cartesian components [Ang]: [  0.743529,   0.515386,   0.862496]
    Electron size [Ang]:            5.201243
      Cartesian components [Ang]: [  2.811294,   2.188013,   3.789744]
  ----------------------------------------------------------------------------


  Electron-attached state 8 (B2g)                                  [converged]
  ----------------------------------------------------------------------------
  Term symbol:  8 (2) B2g                                   R^2 =  5.20913e-09

  Total energy:                                            -77.9395144710 a.u.
  Electron attachment energy:                                     13.259785 eV

  Pole strength:                                                      0.000001

  Dip. moment [a.u.]:                  [   0.000000,   -0.000001,   -0.000000]
  Total dipole [Debye]:                                               0.000002
  <r^2> [a.u.]:                        [ 160.571745,   59.159289,   48.068871]
  Total <r^2> [a.u.]:                                               267.799905

  V1^2 = 0.0000, V2^2 = 1.0000

  Important amplitudes:
       occ i       vir a        vir b           v   
    -------------------------------------------------
     1 (B1u) A    3 (B3u) A    4 (Ag ) B     -0.5762
     1 (B1u) B    4 (Ag ) B    3 (B3u) B      0.3193
    -------------------------------------------------

  Density matrix analysis:
  ------------------------
  NOs (alpha)
    Occupation of frontier NOs:
       0.1729   0.6642
    Number of electrons:  8.000000
  NOs (beta)
    Occupation of frontier NOs:
       0.3361   0.7623
    Number of electrons:  9.000000
  NOs (spin-traced)
    Occupation of frontier NOs:
       0.9335   1.0003
    Number of electrons: 17.000000
    Number of unpaired electrons: n_u =  3.31568, n_u,nl =  3.02680
    NO participation ratio (PR_NO):  3.818304
  
  
  Mulliken Population Analysis
  Atom  Charge (e)    Spin (e)  h+ (alpha)   h+ (beta)  e- (alpha)   e- (beta)
  ----------------------------------------------------------------------------
   1 C   -0.831587    0.539045    0.388688    0.099577   -0.382092   -0.632025
   2 C   -0.831587    0.539045    0.388688    0.099577   -0.382092   -0.632025
   3 H    0.165784   -0.019523    0.004671    0.001197   -0.007969    0.015028
   4 H    0.165823   -0.019522    0.004671    0.001197   -0.007969    0.015028
   5 H    0.165803   -0.019522    0.004671    0.001197   -0.007969    0.015028
   6 H    0.165764   -0.019523    0.004671    0.001197   -0.007969    0.015028
  ----------------------------------------------------------------------------
  Sum:   -1.000000    1.000000    0.796059    0.203940   -0.796059   -1.203940
  
  Multipole moment analysis of the density matrix
    Molecular charge:                      -1.000000
    Number of electrons:                   17.000000
      Center of electronic charge [Ang]: [ -0.000000,   0.000000,   0.000000]
    Total nuclear charge:                  16.000000
      Center of nuclear charge [Ang]:    [  0.000000,   0.000000,   0.000000]
    Dipole moment [D]:                     0.000002
      Cartesian components [D]:          [  0.000000,  -0.000002,  -0.000000]
    RMS size of the density [Ang]:         2.100303
      Cartesian components [Ang]:        [  1.626340,   0.987161,   0.889833]
  
  Exciton analysis of the difference density matrix
  Total:
    <r_h> [Ang]:                  [ -0.000000,   0.000000,  -0.000000]
    <r_e> [Ang]:                  [ -0.000000,   0.000000,   0.000000]
    |<r_e - r_h>| [Ang]:            0.000000
    Hole size [Ang]:                1.247993
      Cartesian components [Ang]: [  0.742784,   0.514431,   0.860883]
    Electron size [Ang]:            5.184696
      Cartesian components [Ang]: [  4.010875,   2.309989,   2.336216]
  
  Alpha spin:
    <r_h> [Ang]:                  [ -0.000000,   0.000000,  -0.000000]
    <r_e> [Ang]:                  [  0.000000,   0.000000,   0.000000]
    |<r_e - r_h>| [Ang]:            0.000000
    Hole size [Ang]:                1.247993
      Cartesian components [Ang]: [  0.742784,   0.514431,   0.860883]
    Electron size [Ang]:            5.215822
      Cartesian components [Ang]: [  4.050291,   2.329810,   2.317741]
  
  Beta spin:
    <r_h> [Ang]:                  [ -0.000000,   0.000000,  -0.000000]
    <r_e> [Ang]:                  [ -0.000000,   0.000000,   0.000000]
    |<r_e - r_h>| [Ang]:            0.000000
    Hole size [Ang]:                1.247992
      Cartesian components [Ang]: [  0.742784,   0.514431,   0.860882]
    Electron size [Ang]:            5.164012
      Cartesian components [Ang]: [  3.984598,   2.296789,   2.348351]
  ----------------------------------------------------------------------------


  Electron-attached state 9 (B2g)                                  [converged]
  ----------------------------------------------------------------------------
  Term symbol:  9 (2) B2g                                   R^2 =  7.55640e-09

  Total energy:                                            -77.9394900778 a.u.
  Electron attachment energy:                                     13.260449 eV

  Pole strength:                                                      0.000068

  Dip. moment [a.u.]:                  [   0.000000,   -0.000001,   -0.000000]
  Total dipole [Debye]:                                               0.000002
  <r^2> [a.u.]:                        [ 160.581796,   59.163094,   48.074835]
  Total <r^2> [a.u.]:                                               267.819726

  V1^2 = 0.0001, V2^2 = 0.9999

  Important amplitudes:
       occ i       vir a        vir b           v   
    -------------------------------------------------
     1 (B1u) A    4 (Ag ) A    3 (B3u) B      0.5170
     1 (B1u) B    4 (Ag ) B    3 (B3u) B      0.4810
    -------------------------------------------------

  Density matrix analysis:
  ------------------------
  NOs (alpha)
    Occupation of frontier NOs:
       0.4296   0.5348
    Number of electrons:  8.000000
  NOs (beta)
    Occupation of frontier NOs:
       0.4655   0.5040
    Number of electrons:  9.000000
  NOs (spin-traced)
    Occupation of frontier NOs:
       0.9336   1.0002
    Number of electrons: 17.000000
    Number of unpaired electrons: n_u =  3.31607, n_u,nl =  3.02682
    NO participation ratio (PR_NO):  3.818522
  
  
  Mulliken Population Analysis
  Atom  Charge (e)    Spin (e)  h+ (alpha)   h+ (beta)  e- (alpha)   e- (beta)
  ----------------------------------------------------------------------------
   1 C   -0.831528    0.462517    0.262315    0.225919   -0.293954   -0.720075
   2 C   -0.831528    0.462517    0.262315    0.225919   -0.293954   -0.720075
   3 H    0.165755    0.018742    0.003152    0.002715    0.012667   -0.005637
   4 H    0.165793    0.018741    0.003152    0.002715    0.012667   -0.005637
   5 H    0.165774    0.018741    0.003152    0.002715    0.012667   -0.005637
   6 H    0.165735    0.018742    0.003152    0.002715    0.012667   -0.005637
  ----------------------------------------------------------------------------
  Sum:   -1.000000    1.000000    0.537239    0.462697   -0.537239   -1.462697
  
  Multipole moment analysis of the density matrix
    Molecular charge:                      -1.000000
    Number of electrons:                   17.000000
      Center of electronic charge [Ang]: [ -0.000000,   0.000000,   0.000000]
    Total nuclear charge:                  16.000000
      Center of nuclear charge [Ang]:    [  0.000000,   0.000000,   0.000000]
    Dipole moment [D]:                     0.000002
      Cartesian components [D]:          [  0.000000,  -0.000002,  -0.000000]
    RMS size of the density [Ang]:         2.100380
      Cartesian components [Ang]:        [  1.626390,   0.987193,   0.889888]
  
  Exciton analysis of the difference density matrix
  Total:
    <r_h> [Ang]:                  [ -0.000000,   0.000000,  -0.000000]
    <r_e> [Ang]:                  [ -0.000000,   0.000000,   0.000000]
    |<r_e - r_h>| [Ang]:            0.000000
    Hole size [Ang]:                1.248003
      Cartesian components [Ang]: [  0.742789,   0.514438,   0.860889]
    Electron size [Ang]:            5.185041
      Cartesian components [Ang]: [  4.011111,   2.310140,   2.336427]
  
  Alpha spin:
    <r_h> [Ang]:                  [ -0.000000,   0.000000,  -0.000000]
    <r_e> [Ang]:                  [ -0.000000,   0.000000,   0.000000]
    |<r_e - r_h>| [Ang]:            0.000000
    Hole size [Ang]:                1.247990
      Cartesian components [Ang]: [  0.742784,   0.514431,   0.860879]
    Electron size [Ang]:            5.138515
      Cartesian components [Ang]: [  3.951988,   2.280397,   2.363455]
  
  Beta spin:
    <r_h> [Ang]:                  [ -0.000000,   0.000000,  -0.000000]
    <r_e> [Ang]:                  [ -0.000000,   0.000000,   0.000000]
    |<r_e - r_h>| [Ang]:            0.000000
    Hole size [Ang]:                1.248018
      Cartesian components [Ang]: [  0.742796,   0.514445,   0.860901]
    Electron size [Ang]:            5.202025
      Cartesian components [Ang]: [  4.032609,   2.320968,   2.326421]
  ----------------------------------------------------------------------------


  Electron-attached state 10 (B2g)                                  [converged]
  ----------------------------------------------------------------------------
  Term symbol:  10 (2) B2g                                  R^2 =  5.63947e-07

  Total energy:                                            -77.8749557915 a.u.
  Electron attachment energy:                                     15.016516 eV

  Pole strength:                                                      0.008045

  Dip. moment [a.u.]:                  [   0.000000,   -0.000000,   -0.000000]
  Total dipole [Debye]:                                               0.000001
  <r^2> [a.u.]:                        [  81.285752,   44.444050,   78.899543]
  Total <r^2> [a.u.]:                                               204.629345

  V1^2 = 0.0080, V2^2 = 0.9920

  Important amplitudes:
       occ i       vir a        vir b           v   
    -------------------------------------------------
     1 (B1u) A    2 (B2g) A    2 (B1u) B      0.5381
     1 (B1u) A    2 (B1u) A    2 (B2g) B      0.4442
    -------------------------------------------------

  Density matrix analysis:
  ------------------------
  NOs (alpha)
    Occupation of frontier NOs:
       0.3953   0.5896
    Number of electrons:  8.000000
  NOs (beta)
    Occupation of frontier NOs:
       0.4230   0.5972
    Number of electrons:  9.000000
  NOs (spin-traced)
    Occupation of frontier NOs:
       0.9375   0.9962
    Number of electrons: 17.000000
    Number of unpaired electrons: n_u =  3.29232, n_u,nl =  3.02251
    NO participation ratio (PR_NO):  3.797549
  
  
  Mulliken Population Analysis
  Atom  Charge (e)    Spin (e)  h+ (alpha)   h+ (beta)  e- (alpha)   e- (beta)
  ----------------------------------------------------------------------------
   1 C   -0.799164    0.492282    0.475941    0.008848   -0.476514   -0.501704
   2 C   -0.799164    0.492282    0.475941    0.008848   -0.476514   -0.501704
   3 H    0.149573    0.003859    0.005690    0.000156   -0.005403   -0.003729
   4 H    0.149611    0.003859    0.005690    0.000156   -0.005403   -0.003729
   5 H    0.149592    0.003859    0.005690    0.000156   -0.005403   -0.003729
   6 H    0.149553    0.003859    0.005690    0.000156   -0.005403   -0.003729
  ----------------------------------------------------------------------------
  Sum:   -1.000000    1.000000    0.974642    0.018321   -0.974642   -1.018321
  
  Multipole moment analysis of the density matrix
    Molecular charge:                      -1.000000
    Number of electrons:                   17.000000
      Center of electronic charge [Ang]: [ -0.000000,   0.000000,   0.000000]
    Total nuclear charge:                  16.000000
      Center of nuclear charge [Ang]:    [  0.000000,   0.000000,   0.000000]
    Dipole moment [D]:                     0.000001
      Cartesian components [D]:          [  0.000000,  -0.000001,  -0.000000]
    RMS size of the density [Ang]:         1.835949
      Cartesian components [Ang]:        [  1.157135,   0.855625,   1.140024]
  
  Exciton analysis of the difference density matrix
  Total:
    <r_h> [Ang]:                  [ -0.000000,   0.000000,  -0.000000]
    <r_e> [Ang]:                  [  0.000000,   0.000000,   0.000000]
    |<r_e - r_h>| [Ang]:            0.000000
    Hole size [Ang]:                1.250857
      Cartesian components [Ang]: [  0.744135,   0.516050,   0.862901]
    Electron size [Ang]:            4.254177
      Cartesian components [Ang]: [  2.236648,   1.813054,   3.131814]
  
  Alpha spin:
    <r_h> [Ang]:                  [ -0.000000,   0.000000,  -0.000000]
    <r_e> [Ang]:                  [  0.000000,   0.000000,   0.000000]
    |<r_e - r_h>| [Ang]:            0.000000
    Hole size [Ang]:                1.251139
      Cartesian components [Ang]: [  0.744084,   0.516059,   0.863349]
    Electron size [Ang]:            4.094835
      Cartesian components [Ang]: [  2.229006,   1.722114,   2.972125]
  
  Beta spin:
    <r_h> [Ang]:                  [ -0.000000,   0.000000,  -0.000000]
    <r_e> [Ang]:                  [  0.000000,   0.000000,   0.000000]
    |<r_e - r_h>| [Ang]:            0.000000
    Hole size [Ang]:                1.235747
      Cartesian components [Ang]: [  0.746879,   0.515597,   0.838690]
    Electron size [Ang]:            4.401284
      Cartesian components [Ang]: [  2.243937,   1.896013,   3.277375]
  ----------------------------------------------------------------------------


--------------------------------------------------------------------------------
  Time of ADC calculation:  CPU 96.26 s  wall 21.91 s
================================================================================
 
 --------------------------------------------------------------
             Orbital Energies (a.u.) and Symmetries
 --------------------------------------------------------------
 
 Alpha MOs, Restricted
 -- Occupied --                  
-11.228 -11.226  -1.040  -0.781  -0.661  -0.568  -0.516  -0.377
  1 Ag    1 B3u   2 Ag    2 B3u   1 B2u   3 Ag    1 B1g   1 B1u                
 -- Virtual --                   
  0.039   0.040   0.045   0.057   0.058   0.070   0.129   0.139
  3 B3u   2 B2u   2 B1u   2 B1g   1 B2g   4 Ag    2 B2g   5 Ag                 
  0.154   0.157   0.176   0.180   0.197   0.252   0.297   0.305
  4 B3u   3 B2u   3 B1g   3 B1u   6 Ag    3 B2g   5 B3u   4 B2u                
  0.413   0.419   0.437   0.554   0.562   0.619   0.638   0.641
  4 B1g   6 B3u   7 Ag    5 B2u   8 Ag    7 B3u   9 Ag    4 B1u                
  0.648   0.666   0.678   0.708   0.771   0.827   0.828   0.900
  6 B2u   1 B3g   8 B3u   4 B2g   5 B1g   9 B3u   1 Au    5 B1u                
  0.933   1.002   1.024   1.049   1.187   1.198   1.253   1.319
  6 B1g  10 Ag    7 B1g   7 B2u   6 B1u   5 B2g   2 B3g  11 Ag                 
  1.349   1.390   1.431   1.480   1.490   1.525   1.583   1.635
 10 B3u   6 B2g   8 B2u   9 B2u  11 B3u  12 Ag   12 B3u   2 Au                 
  1.698   1.837   1.854   1.971   2.298   2.499   2.589   2.621
  8 B1g  13 B3u  13 Ag    9 B1g  14 Ag    7 B1u  15 Ag    7 B2g                
  2.709   2.721   2.764   2.803   2.846   2.915   3.065   3.100
 10 B2u  11 B2u   8 B1u  14 B3u  10 B1g   3 B3g  11 B1g   9 B1u                
  3.105   3.129   3.141   3.152   3.181   3.250   3.297   3.339
  4 B3g  12 B2u  16 Ag    3 Au   17 Ag    8 B2g  15 B3u  13 B2u                
  3.410   3.425   3.431   3.463   3.496   3.550   3.592   3.641
  9 B2g   4 Au   16 B3u  17 B3u  12 B1g  10 B1u  18 Ag    5 B3g                
  3.745   3.814   3.894   3.941   3.976   3.977   4.014   4.026
 14 B2u  13 B1g  18 B3u  14 B1g   5 Au   10 B2g  15 B2u  19 Ag                 
  4.060   4.186   4.191   4.202   4.206   4.330   4.351   4.480
 11 B1u  19 B3u  15 B1g   6 B3g  20 Ag   12 B1u  11 B2g  16 B2u                
  4.531   4.606   4.667   4.758   4.812   4.934   4.974   5.057
 20 B3u   6 Au   21 Ag   21 B3u  12 B2g  13 B1u  22 Ag   16 B1g                
  5.151   5.216   5.303   5.306   5.426   5.467   5.540   5.562
 17 B2u   7 B3g  23 Ag   22 B3u   7 Au   17 B1g  13 B2g  24 Ag                 
  5.652   5.980   6.094   6.287   6.571   6.873  11.965  14.808
 18 B2u  23 B3u  18 B1g  19 B2u  24 B3u  19 B1g  25 Ag   25 B3u                
 
 Beta MOs, Restricted
 -- Occupied --                  
-11.228 -11.226  -1.040  -0.781  -0.661  -0.568  -0.516  -0.377
  1 Ag    1 B3u   2 Ag    2 B3u   1 B2u   3 Ag    1 B1g   1 B1u                
 -- Virtual --                   
  0.039   0.040   0.045   0.057   0.058   0.070   0.129   0.139
  3 B3u   2 B2u   2 B1u   2 B1g   1 B2g   4 Ag    2 B2g   5 Ag                 
  0.154   0.157   0.176   0.180   0.197   0.252   0.297   0.305
  4 B3u   3 B2u   3 B1g   3 B1u   6 Ag    3 B2g   5 B3u   4 B2u                
  0.413   0.419   0.437   0.554   0.562   0.619   0.638   0.641
  4 B1g   6 B3u   7 Ag    5 B2u   8 Ag    7 B3u   9 Ag    4 B1u                
  0.648   0.666   0.678   0.708   0.771   0.827   0.828   0.900
  6 B2u   1 B3g   8 B3u   4 B2g   5 B1g   9 B3u   1 Au    5 B1u                
  0.933   1.002   1.024   1.049   1.187   1.198   1.253   1.319
  6 B1g  10 Ag    7 B1g   7 B2u   6 B1u   5 B2g   2 B3g  11 Ag                 
  1.349   1.390   1.431   1.480   1.490   1.525   1.583   1.635
 10 B3u   6 B2g   8 B2u   9 B2u  11 B3u  12 Ag   12 B3u   2 Au                 
  1.698   1.837   1.854   1.971   2.298   2.499   2.589   2.621
  8 B1g  13 B3u  13 Ag    9 B1g  14 Ag    7 B1u  15 Ag    7 B2g                
  2.709   2.721   2.764   2.803   2.846   2.915   3.065   3.100
 10 B2u  11 B2u   8 B1u  14 B3u  10 B1g   3 B3g  11 B1g   9 B1u                
  3.105   3.129   3.141   3.152   3.181   3.250   3.297   3.339
  4 B3g  12 B2u  16 Ag    3 Au   17 Ag    8 B2g  15 B3u  13 B2u                
  3.410   3.425   3.431   3.463   3.496   3.550   3.592   3.641
  9 B2g   4 Au   16 B3u  17 B3u  12 B1g  10 B1u  18 Ag    5 B3g                
  3.745   3.814   3.894   3.941   3.976   3.977   4.014   4.026
 14 B2u  13 B1g  18 B3u  14 B1g   5 Au   10 B2g  15 B2u  19 Ag                 
  4.060   4.186   4.191   4.202   4.206   4.330   4.351   4.480
 11 B1u  19 B3u  15 B1g   6 B3g  20 Ag   12 B1u  11 B2g  16 B2u                
  4.531   4.606   4.667   4.758   4.812   4.934   4.974   5.057
 20 B3u   6 Au   21 Ag   21 B3u  12 B2g  13 B1u  22 Ag   16 B1g                
  5.151   5.216   5.303   5.306   5.426   5.467   5.540   5.562
 17 B2u   7 B3g  23 Ag   22 B3u   7 Au   17 B1g  13 B2g  24 Ag                 
  5.652   5.980   6.094   6.287   6.571   6.873  11.965  14.808
 18 B2u  23 B3u  18 B1g  19 B2u  24 B3u  19 B1g  25 Ag   25 B3u                
 --------------------------------------------------------------
 
          Ground-State Mulliken Net Atomic Charges

     Atom                 Charge (a.u.)
  ----------------------------------------
      1 C                    -0.271566
      2 C                    -0.271566
      3 H                     0.135774
      4 H                     0.135813
      5 H                     0.135793
      6 H                     0.135754
  ----------------------------------------
  Sum of atomic charges =     0.000000

 -----------------------------------------------------------------
                    Cartesian Multipole Moments
 -----------------------------------------------------------------
    Charge (ESU x 10^10)
                -0.0000
    Dipole Moment (Debye)
         X       0.0000      Y      -0.0000      Z       0.0000
       Tot       0.0000
    Quadrupole Moments (Debye-Ang)
        XX     -12.8624     XY       0.0000     YY     -11.9343
        XZ       0.0000     YZ      -0.0000     ZZ     -16.1028
    Octopole Moments (Debye-Ang^2)
       XXX       0.0000    XXY      -0.0000    XYY       0.0000
       YYY      -0.0000    XXZ      -0.0000    XYZ      -0.0000
       YYZ       0.0000    XZZ       0.0000    YZZ      -0.0000
       ZZZ      -0.0000
    Hexadecapole Moments (Debye-Ang^3)
      XXXX     -67.9894   XXXY       0.0000   XXYY     -13.0859
      XYYY       0.0000   YYYY     -26.7421   XXXZ       0.0000
      XXYZ      -0.0000   XYYZ       0.0000   YYYZ      -0.0000
      XXZZ     -15.4174   XYZZ       0.0000   YYZZ      -8.9455
      XZZZ       0.0000   YZZZ      -0.0000   ZZZZ     -21.1413
 -----------------------------------------------------------------
 Total job time:  103.73s(wall), 145.38s(cpu) 
 Fri Feb 25 17:55:12 2022

        *************************************************************
        *                                                           *
        *  Thank you very much for using Q-Chem.  Have a nice day.  *
        *                                                           *
        *************************************************************


