/src/tsommerfeld/qchem/exe/qcprog.exe .input1.525641.3442.qcin.1 /src/jdavis/qchem.scratch/qchem3442/

                  Welcome to Q-Chem
     A Quantum Leap Into The Future Of Chemistry


 Q-Chem 5.4 (devel), Q-Chem, Inc., Pleasanton, CA (2021)

 E. Epifanovsky,  A. T. B. Gilbert,  Xintian Feng,  Joonho Lee,  Yuezhi Mao,  
 N. Mardirossian,  P. Pokhilko,  A. White,  M. Wormit,  M. P. Coons,  
 A. L. Dempwolff,  Zhengting Gan,  D. Hait,  P. R. Horn,  L. D. Jacobson,  
 I. Kaliman,  J. Kussmann,  A. W. Lange,  Ka Un Lao,  D. S. Levine,  Jie Liu,  
 S. C. McKenzie,  A. F. Morrison,  K. Nanda,  F. Plasser,  D. R. Rehn,  
 M. L. Vidal,  Zhi-Qiang You,  Ying Zhu,  B. Alam,  B. Albrecht,  
 A. Aldossary,  E. Alguire,  J. H. Andersen,  D. Barton,  K. Begam,  A. Behn,  
 Y. A. Bernard,  E. J. Berquist,  H. Burton,  A. Carreras,  K. Carter-Fenk,  
 R. Chakraborty,  A. D. Chien,  K. D. Closser,  V. Cofer-Shabica,  
 S. Dasgupta,  Jia Deng,  M. de Wergifosse,  M. Diedenhofen,  Hainam Do,  
 S. Ehlert,  Po-Tung Fang,  S. Fatehi,  Qingguo Feng,  T. Friedhoff,  
 J. Gayvert,  Qinghui Ge,  G. Gidofalvi,  M. Goldey,  J. Gomes,  
 C. Gonzalez-Espinoza,  S. Gulania,  A. Gunina,  M. W. D. Hanson-Heine,  
 P. H. P. Harbach,  A. W. Hauser,  M. F. Herbst,  M. Hernandez Vera,  
 M. Hodecker,  Z. C. Holden,  S. Houck,  Xunkun Huang,  Kerwin Hui,  
 B. C. Huynh,  M. Ivanov,  Hyunjun Ji,  Hanjie Jiang,  B. Kaduk,  S. Kaehler,  
 K. Khistyaev,  Jaehoon Kim,  P. Klunzinger,  Z. Koczor-Benda,  
 Joong Hoon Koh,  D. Kosenkov,  L. Koulias,  T. Kowalczyk,  C. M. Krauter,  
 K. Kue,  A. Kunitsa,  T. Kus,  A. Landau,  K. V. Lawler,  D. Lefrancois,  
 S. Lehtola,  Rain Li,  Yi-Pei Li,  Jiashu Liang,  M. Liebenthal,  
 Hung-Hsuan Lin,  You-Sheng Lin,  Fenglai Liu,  Kuan-Yu Liu,  
 M. Loipersberger,  A. Luenser,  A. Manjanath,  P. Manohar,  E. Mansoor,  
 S. F. Manzer,  Shan-Ping Mao,  A. V. Marenich,  T. Markovich,  S. Mason,  
 S. A. Maurer,  P. F. McLaughlin,  M. F. S. J. Menger,  J.-M. Mewes,  
 S. A. Mewes,  P. Morgante,  J. W. Mullinax,  K. J. Oosterbaan,  G. Paran,  
 Alexander C. Paul,  Suranjan K. Paul,  F. Pavosevic,  Zheng Pei,  S. Prager,  
 E. I. Proynov,  E. Ramos,  B. Rana,  A. E. Rask,  A. Rettig,  R. M. Richard,  
 F. Rob,  E. Rossomme,  T. Scheele,  M. Scheurer,  M. Schneider,  
 N. Sergueev,  S. M. Sharada,  W. Skomorowski,  D. W. Small,  C. J. Stein,  
 Yu-Chuan Su,  E. J. Sundstrom,  Zhen Tao,  J. Thirman,  T. Tsuchimochi,  
 N. M. Tubman,  S. P. Veccham,  O. Vydrov,  J. Wenzel,  J. Witte,  A. Yamada,  
 Kun Yao,  S. Yeganeh,  S. R. Yost,  A. Zech,  Igor Ying Zhang,  Xing Zhang,  
 Yu Zhang,  D. Zuev,  A. Aspuru-Guzik,  A. T. Bell,  N. A. Besley,  
 K. B. Bravaya,  B. R. Brooks,  D. Casanova,  Jeng-Da Chai,  S. Coriani,  
 C. J. Cramer,  A. E. DePrince, III,  R. A. DiStasio Jr.,  A. Dreuw,  
 B. D. Dunietz,  T. R. Furlani,  W. A. Goddard III,  S. Grimme,  
 S. Hammes-Schiffer,  T. Head-Gordon,  W. J. Hehre,  Chao-Ping Hsu,  
 T.-C. Jagau,  Yousung Jung,  A. Klamt,  Jing Kong,  D. S. Lambrecht,  
 WanZhen Liang,  N. J. Mayhall,  C. W. McCurdy,  J. B. Neaton,  
 C. Ochsenfeld,  J. A. Parkhill,  R. Peverati,  V. A. Rassolov,  Yihan Shao,  
 L. V. Slipchenko,  T. Stauch,  R. P. Steele,  J. E. Subotnik,  
 A. J. W. Thom,  A. Tkatchenko,  D. G. Truhlar,  T. Van Voorhis,  
 T. A. Wesolowski,  K. B. Whaley,  H. L. Woodcock III,  P. M. Zimmerman,  
 S. Faraji,  P. M. W. Gill,  M. Head-Gordon,  J. M. Herbert,  A. I. Krylov

 Additional authors for Version 5.4.1: 
 S. Kotaru,  Shaozhi Li,  Xiangyuan Li,  F. Matz,  A. Molle,  Haisheng Ren,  
 Yingli Su,  Hung-Yi Tsai,  C. Utku,  Fang Wang

 Contributors to earlier versions of Q-Chem not listed above: 
 R. D. Adamson,  B. Austin,  R. Baer,  J. Baker,  G. J. O. Beran,  
 K. Brandhorst,  S. T. Brown,  E. F. C. Byrd,  A. K. Chakraborty,  
 G. K. L. Chan,  Chun-Min Chang,  Yunqing Chen,  C.-L. Cheng,  
 Siu Hung Chien,  D. M. Chipman,  D. L. Crittenden,  H. Dachsel,  
 R. J. Doerksen,  A. D. Dutoi,  R. G. Edgar,  J. Fosso-Tande,  
 L. Fusti-Molnar,  D. Ghosh,  A. Ghysels,  A. Golubeva-Zadorozhnaya,  
 J. Gonthier,  M. S. Gordon,  S. R. Gwaltney,  G. Hawkins,  J. E. Herr,  
 A. Heyden,  S. Hirata,  E. G. Hohenstein,  G. Kedziora,  F. J. Keil,  
 C. Kelley,  Jihan Kim,  R. A. King,  R. Z. Khaliullin,  P. P. Korambath,  
 W. Kurlancheek,  A. Laurent,  A. M. Lee,  M. S. Lee,  S. V. Levchenko,  
 Ching Yeh Lin,  D. Liotard,  E. Livshits,  R. C. Lochan,  I. Lotan,  
 L. A. Martinez-Martinez,  P. E. Maslen,  N. Nair,  D. P. O'Neill,  
 D. Neuhauser,  E. Neuscamman,  C. M. Oana,  R. Olivares-Amaya,  R. Olson,  
 T. M. Perrine,  B. Peters,  P. A. Pieniazek,  A. Prociuk,  Y. M. Rhee,  
 J. Ritchie,  M. A. Rohrdanz,  E. Rosta,  N. J. Russ,  H. F. Schaefer III,  
 M. W. Schmidt,  N. E. Schultz,  S. Sharma,  N. Shenvi,  C. D. Sherrill,  
 A. C. Simmonett,  A. Sodt,  T. Stein,  D. Stuck,  K. S. Thanthiriwatte,  
 V. Vanovschi,  L. Vogt,  Tao Wang,  A. Warshel,  M. A. Watson,  
 C. F. Williams,  Q. Wu,  X. Xu,  Jun Yang,  W. Zhang,  Yan Zhao

 Please cite Q-Chem as follows:
 Y. Shao et al., Mol. Phys. 113, 184-215 (2015)
 DOI: 10.1080/00268976.2014.952696

 Q-Chem 5.4.1 for Intel X86 EM64T Linux

 Parts of Q-Chem use Armadillo 9.900.5 (Nocturnal Misbehaviour).
 http://arma.sourceforge.net/

 Q-Chem begins on Fri Feb 25 18:07:22 2022  

 Host: node01
0

     Scratch files written to /src/jdavis/qchem.scratch/qchem3442//
 Processing $rem in /src/tsommerfeld/qchem/config/preferences:
 Processing $rem in /home/jdavis/.qchemrc:

 Checking the input file for inconsistencies... 	...done.

--------------------------------------------------------------
User input:
--------------------------------------------------------------
$molecule
0 1
C        -0.6645000000    0.0000000000   -0.2082049804
C         0.6645000000    0.0000000000   -0.2082049804
H        -1.1590800000    0.0000000000    0.7541440196
H         1.1590800000    0.0000000000    0.7541440196
H        -1.1590800000    0.0000000000   -1.1705529804
H         1.1590800000    0.0000000000   -1.1705529804
$end

$rem
   METHOD adc(2)
   BASIS gen
   PURECART 11
   EA_STATES [0,0,10,0,0,0,0,0]
   scf_convergence 8
   ADC_DAVIDSON_MAXITER 120
   ADC_DAVIDSON_MAXSUBSPACE 200
   adc_nguess_singles 100
   THRESH 14
   S2THRESH 14
   adc_davidson_conv 5
   adc_davidson_thresh 14
   THREADS 10
   MEM_TOTAL 95000
   STATE_ANALYSIS TRUE
$end
$basis
C     1
S    10   1.00
      8.236000D+03           5.310000D-04
      1.235000D+03           4.108000D-03
      2.808000D+02           2.108700D-02
      7.927000D+01           8.185300D-02
      2.559000D+01           2.348170D-01
      8.997000D+00           4.344010D-01
      3.319000D+00           3.461290D-01
      9.059000D-01           3.937800D-02
      3.643000D-01          -8.983000D-03
      1.285000D-01           2.385000D-03
S    1   1.00
      9.059000D-01           1.000000D+00
S    10   1.00
      8.236000D+03          -1.130000D-04
      1.235000D+03          -8.780000D-04
      2.808000D+02          -4.540000D-03
      7.927000D+01          -1.813300D-02
      2.559000D+01          -5.576000D-02
      8.997000D+00          -1.268950D-01
      3.319000D+00          -1.703520D-01
      9.059000D-01           1.403820D-01
      3.643000D-01           5.986840D-01
      1.285000D-01           3.953890D-01
S    1   1.00
      1.285000D-01           1.000000D+00
P    1   1.00
      3.827000D-01           1.000000D+00
P    5   1.00
      1.871000D+01           1.403100D-02
      4.133000D+00           8.686600D-02
      1.200000D+00           2.902160D-01
      3.827000D-01           5.010080D-01
      1.209000D-01           3.434060D-01
P    1   1.00
      1.209000D-01           1.000000D+00
P   1   1.00
      0.0527      1.0000000
P   1   1.00
      0.02635      1.0000000
D    1   1.00
      1.097000D+00           1.000000D+00
D    1   1.00
      3.180000D-01           1.000000D+00
F    1   1.00
      7.610000D-01           1.0000000
****
C     2
S    10   1.00
      8.236000D+03           5.310000D-04
      1.235000D+03           4.108000D-03
      2.808000D+02           2.108700D-02
      7.927000D+01           8.185300D-02
      2.559000D+01           2.348170D-01
      8.997000D+00           4.344010D-01
      3.319000D+00           3.461290D-01
      9.059000D-01           3.937800D-02
      3.643000D-01          -8.983000D-03
      1.285000D-01           2.385000D-03
S    1   1.00
      9.059000D-01           1.000000D+00
S    10   1.00
      8.236000D+03          -1.130000D-04
      1.235000D+03          -8.780000D-04
      2.808000D+02          -4.540000D-03
      7.927000D+01          -1.813300D-02
      2.559000D+01          -5.576000D-02
      8.997000D+00          -1.268950D-01
      3.319000D+00          -1.703520D-01
      9.059000D-01           1.403820D-01
      3.643000D-01           5.986840D-01
      1.285000D-01           3.953890D-01
S    1   1.00
      1.285000D-01           1.000000D+00
P    1   1.00
      3.827000D-01           1.000000D+00
P    5   1.00
      1.871000D+01           1.403100D-02
      4.133000D+00           8.686600D-02
      1.200000D+00           2.902160D-01
      3.827000D-01           5.010080D-01
      1.209000D-01           3.434060D-01
P    1   1.00
      1.209000D-01           1.000000D+00
P   1   1.00
      0.0527      1.0000000
P   1   1.00
      0.02635      1.0000000
D    1   1.00
      1.097000D+00           1.000000D+00
D    1   1.00
      3.180000D-01           1.000000D+00
F    1   1.00
      7.610000D-01           1.0000000
****
H 3
cc-pVTZ
****
H 4
cc-pVTZ
****
H 5
cc-pVTZ
****
H 6
cc-pVTZ
****
$end
--------------------------------------------------------------
 Atom   2: ( -0.6645000000, -0.0000001250,  0.0000000000)
         ->( -0.6645000000,  0.0000001250, -0.0000000000)
 Atom   1: (  0.6645000000, -0.0000001250, -0.0000000000)
         ->(  0.6645000000,  0.0000000000,  0.0000000000)
 Atom   6: ( -1.1590800000, -0.9623481250, -0.0000000000)
         ->( -1.1590800000, -0.9623488750,  0.0000000000)
 Atom   5: (  1.1590800000, -0.9623481250, -0.0000000000)
         ->(  1.1590800000, -0.9623488750, -0.0000000000)
 ----------------------------------------------------------------
             Standard Nuclear Orientation (Angstroms)
    I     Atom           X                Y                Z
 ----------------------------------------------------------------
    1      C       0.6645000000     0.0000000000     0.0000000000
    2      C      -0.6645000000     0.0000001250    -0.0000000000
    3      H       1.1590800000     0.9623488750     0.0000000000
    4      H      -1.1590800000     0.9623488750     0.0000000000
    5      H       1.1590800000    -0.9623488750    -0.0000000000
    6      H      -1.1590800000    -0.9623488750     0.0000000000
 ----------------------------------------------------------------
 Molecular Point Group                 D2h   NOp =  8
 Largest Abelian Subgroup              D2h   NOp =  8
 Nuclear Repulsion Energy =          33.58921667 hartrees
 There are        8 alpha and        8 beta electrons
 Requested basis set is non-standard
 There are 48 shells and 128 basis functions
 Total memory of 95000 MB is distributed as follows: 
   MEM_STATIC is set to 192 MB
   QALLOC/CCMAN JOB total memory use is  94808 MB
 Warning: actual memory use might exceed 95000 MB

 Total QAlloc Memory Limit  95000 MB
 Mega-Array Size       188 MB
 MEM_STATIC part       192 MB

                       Distance Matrix (Angstroms)
             C (  1)   C (  2)   H (  3)   H (  4)   H (  5)
   C (  2)  1.329000
   H (  3)  1.082000  2.061931
   H (  4)  2.061931  1.082000  2.318160
   H (  5)  1.082000  2.061931  1.924698  3.013026
   H (  6)  2.061931  1.082000  3.013026  1.924698  2.318160
 
 A cutoff of  1.0D-14 yielded   1176 shell pairs
 There are      8432 function pairs (     10417 Cartesian)
 Smallest overlap matrix eigenvalue = 7.13E-04

 Scale SEOQF with 1.000000e-01/1.000000e-01/1.000000e-01

 Standard Electronic Orientation quadrupole field applied
 Nucleus-field energy     =     0.0000000006 hartrees
 ================ Generating on-the-fly SAD Guess ================
Attempting to make child job directory: /src/jdavis/qchem.scratch/qchem3442//Frg1/
Attempting to make child job directory: /src/jdavis/qchem.scratch/qchem3442//Frg2/
Creating input file /src/jdavis/qchem.scratch/qchem3442/Frg1.input
using default PutDataFrgm: nothing
calling putenv with: QCSCRATCH=/src/jdavis/qchem.scratch/qchem3442/ 
Spawning Job For Fragment 0
Done Job For Fragment 0
calling putenv with: QCSCRATCH=/src/jdavis/qchem.scratch 
calling putenv with: QCTHREADS=1 
Creating input file /src/jdavis/qchem.scratch/qchem3442/Frg2.input
using default PutDataFrgm: nothing
calling putenv with: QCSCRATCH=/src/jdavis/qchem.scratch/qchem3442/ 
Spawning Job For Fragment 1
Done Job For Fragment 1
calling putenv with: QCSCRATCH=/src/jdavis/qchem.scratch 
calling putenv with: QCTHREADS=1 
 Time for running child jobs:  CPU 1.75 s  wall 53.78 s
 ============= Method Specific SAD Guess Constructed =============
 Guess from on-the-fly superposition of atomic densities
 Warning: Energy on first SCF cycle will be non-variational
 A restricted Hartree-Fock SCF calculation will be
 performed using Pulay DIIS extrapolation
 SCF converges when DIIS error is below 1.0E-08
 using 10 threads for integral computing
 -------------------------------------------------------
 OpenMP Integral computing Module                
 Release: version 1.0, May 2013, Q-Chem Inc. Pittsburgh 
 -------------------------------------------------------
 ---------------------------------------
  Cycle       Energy         DIIS Error
 ---------------------------------------
    1     -78.4650248987      3.89E-02
    2     -78.0360092222      2.90E-03
    3     -78.0576786162      7.92E-04
    4     -78.0594654847      2.78E-04
    5     -78.0596752613      3.07E-05
    6     -78.0596800507      6.53E-06
    7     -78.0596803529      1.78E-06
    8     -78.0596803852      1.85E-07
    9     -78.0596803900      2.35E-08
   10     -78.0596803904      2.48E-09 Convergence criterion met
 ---------------------------------------
 SCF time:  CPU 15.57 s  wall 1.56 s
 SCF   energy in the final basis set = -78.05968039
 Total energy in the final basis set = -78.05968039
================================================================================
|                                                                              |
|                                 A D C  M A N                                 |
|                                                                              |
 ------------------------------------------------------------------------------ 
|                                                                              |
| Components:                                                                  |
|                                                                              |
| - libvmm - 1.3-trunk                                                         |
|   Authors:                                                                   |
|   Evgeny Epifanovsky, Ilya Kaliman                                           |
|                                                                              |
| - libtensor - 2.5-trunk                                                      |
|   Authors:                                                                   |
|   Evgeny Epifanovsky, Michael Wormit, Dmitry Zuev, Sam Manzer,               |
|   Ilya Kaliman                                                               |
|                                                                              |
| - libwfa - 1.1-trunk                                                         |
|   Authors:                                                                   |
|   Felix Plasser, Stefanie Mewes (Baeppler), Benjamin Thomitzni,              |
|   Michael Wormit, Feng Chen, Anna I. Krylov, Pavel Pokhilko                  |
|                                                                              |
| - libadc - 1.1-trunk                                                         |
|   Authors:                                                                   |
|   Michael Wormit, Adrian L. Dempwolff, Philipp H. P. Harbach,                |
|   Caroline Krauter, Dirk Rehn, Matthias Schneider, Jan Wenzel                |
|                                                                              |
| - adcman - 2.6-trunk                                                         |
|   Authors:                                                                   |
|   Michael Wormit, Adrian L. Dempwolff, Philipp H. P. Harbach,                |
|   Caroline Krauter, Daniel Lefrancois, Jan-Michael Mewes, Dirk Rehn,         |
|   Matthias Schneider, Jan Wenzel, Andreas Dreuw                              |
|                                                                              |
| Authors of earlier versions of ADCMAN:                                       |
| Andreas Dreuw, Jan Hendrik Starcke, Dirk Rehn, Michael Wormit                |
|                                                                              |
================================================================================

 
 Alpha MOs, Restricted
 -- Occupied --                  
-11.228 -11.226  -1.040  -0.781  -0.661  -0.568  -0.516  -0.377
  1 Ag    1 B3u   2 Ag    2 B3u   1 B2u   3 Ag    1 B1g   1 B1u                
 -- Virtual --                   
  0.051   0.052   0.059   0.072   0.073   0.086   0.145   0.151
  3 B3u   2 B2u   2 B1u   1 B2g   2 B1g   4 Ag    2 B2g   5 Ag                 
  0.196   0.201   0.224   0.225   0.229   0.295   0.302   0.306
  4 B3u   3 B2u   3 B1g   6 Ag    3 B1u   5 B3u   3 B2g   4 B2u                
  0.448   0.453   0.456   0.610   0.622   0.641   0.650   0.650
  6 B3u   7 Ag    4 B1g   8 Ag    5 B2u   6 B2u   7 B3u   9 Ag                 
  0.666   0.674   0.713   0.755   0.777   0.828   0.844   0.903
  1 B3g   8 B3u   4 B1u   5 B1g   4 B2g   1 Au    9 B3u   5 B1u                
  0.970   1.007   1.034   1.056   1.188   1.202   1.254   1.351
  6 B1g  10 Ag    7 B1g   7 B2u   6 B1u   5 B2g   2 B3g  11 Ag                 
  1.356   1.399   1.467   1.482   1.498   1.534   1.631   1.635
 10 B3u   6 B2g   8 B2u   9 B2u  11 B3u  12 Ag   12 B3u   2 Au                 
  1.711   1.834   1.861   1.979   2.298   2.559   2.620   2.662
  8 B1g  13 B3u  13 Ag    9 B1g  14 Ag    7 B1u  15 Ag    7 B2g                
  2.709   2.766   2.777   2.830   2.863   2.915   3.068   3.101
 10 B2u   8 B1u  11 B2u  14 B3u  10 B1g   3 B3g  11 B1g   9 B1u                
  3.105   3.134   3.152   3.152   3.184   3.258   3.316   3.340
  4 B3g  12 B2u  16 Ag    3 Au   17 Ag    8 B2g  15 B3u  13 B2u                
  3.413   3.426   3.438   3.474   3.501   3.550   3.597   3.641
  9 B2g   4 Au   16 B3u  17 B3u  12 B1g  10 B1u  18 Ag    5 B3g                
  3.743   3.814   3.898   3.957   3.976   3.980   4.014   4.034
 14 B2u  13 B1g  18 B3u  14 B1g   5 Au   10 B2g  15 B2u  19 Ag                 
  4.060   4.187   4.192   4.202   4.210   4.331   4.351   4.488
 11 B1u  19 B3u  15 B1g   6 B3g  20 Ag   12 B1u  11 B2g  16 B2u                
  4.534   4.606   4.682   4.763   4.813   4.937   4.975   5.057
 20 B3u   6 Au   21 Ag   21 B3u  12 B2g  13 B1u  22 Ag   16 B1g                
  5.152   5.216   5.306   5.306   5.426   5.470   5.542   5.563
 17 B2u   7 B3g  22 B3u  23 Ag    7 Au   17 B1g  13 B2g  24 Ag                 
  5.669   6.003   6.102   6.302   6.590   6.874  12.058  14.805
 18 B2u  23 B3u  18 B1g  19 B2u  24 B3u  19 B1g  25 Ag   25 B3u                
 
 Beta MOs, Restricted
 -- Occupied --                  
-11.228 -11.226  -1.040  -0.781  -0.661  -0.568  -0.516  -0.377
  1 Ag    1 B3u   2 Ag    2 B3u   1 B2u   3 Ag    1 B1g   1 B1u                
 -- Virtual --                   
  0.051   0.052   0.059   0.072   0.073   0.086   0.145   0.151
  3 B3u   2 B2u   2 B1u   1 B2g   2 B1g   4 Ag    2 B2g   5 Ag                 
  0.196   0.201   0.224   0.225   0.229   0.295   0.302   0.306
  4 B3u   3 B2u   3 B1g   6 Ag    3 B1u   5 B3u   3 B2g   4 B2u                
  0.448   0.453   0.456   0.610   0.622   0.641   0.650   0.650
  6 B3u   7 Ag    4 B1g   8 Ag    5 B2u   6 B2u   7 B3u   9 Ag                 
  0.666   0.674   0.713   0.755   0.777   0.828   0.844   0.903
  1 B3g   8 B3u   4 B1u   5 B1g   4 B2g   1 Au    9 B3u   5 B1u                
  0.970   1.007   1.034   1.056   1.188   1.202   1.254   1.351
  6 B1g  10 Ag    7 B1g   7 B2u   6 B1u   5 B2g   2 B3g  11 Ag                 
  1.356   1.399   1.467   1.482   1.498   1.534   1.631   1.635
 10 B3u   6 B2g   8 B2u   9 B2u  11 B3u  12 Ag   12 B3u   2 Au                 
  1.711   1.834   1.861   1.979   2.298   2.559   2.620   2.662
  8 B1g  13 B3u  13 Ag    9 B1g  14 Ag    7 B1u  15 Ag    7 B2g                
  2.709   2.766   2.777   2.830   2.863   2.915   3.068   3.101
 10 B2u   8 B1u  11 B2u  14 B3u  10 B1g   3 B3g  11 B1g   9 B1u                
  3.105   3.134   3.152   3.152   3.184   3.258   3.316   3.340
  4 B3g  12 B2u  16 Ag    3 Au   17 Ag    8 B2g  15 B3u  13 B2u                
  3.413   3.426   3.438   3.474   3.501   3.550   3.597   3.641
  9 B2g   4 Au   16 B3u  17 B3u  12 B1g  10 B1u  18 Ag    5 B3g                
  3.743   3.814   3.898   3.957   3.976   3.980   4.014   4.034
 14 B2u  13 B1g  18 B3u  14 B1g   5 Au   10 B2g  15 B2u  19 Ag                 
  4.060   4.187   4.192   4.202   4.210   4.331   4.351   4.488
 11 B1u  19 B3u  15 B1g   6 B3g  20 Ag   12 B1u  11 B2g  16 B2u                
  4.534   4.606   4.682   4.763   4.813   4.937   4.975   5.057
 20 B3u   6 Au   21 Ag   21 B3u  12 B2g  13 B1u  22 Ag   16 B1g                
  5.152   5.216   5.306   5.306   5.426   5.470   5.542   5.563
 17 B2u   7 B3g  22 B3u  23 Ag    7 Au   17 B1g  13 B2g  24 Ag                 
  5.669   6.003   6.102   6.302   6.590   6.874  12.058  14.805
 18 B2u  23 B3u  18 B1g  19 B2u  24 B3u  19 B1g  25 Ag   25 B3u                

--------------------------------------------------------------------------------
                                   HF Summary                                   
--------------------------------------------------------------------------------
  Energy:                                                  -78.0596803904 a.u.
  Dip. moment [a.u.]:                  [   0.000000,   -0.000000,   -0.000000]
  Total dipole [Debye]:                                               0.000001
  <r^2> [a.u.]:                        [  47.674975,   22.101231,   11.969021]
  Total <r^2> [a.u.]:                                                81.745227
--------------------------------------------------------------------------------

--------------------------------------------------------------------------------
                                 MP(2) Summary                                  
--------------------------------------------------------------------------------
  MP energy contribution:                                   -0.3672891953 a.u.
  Total energy:                                            -78.4269695856 a.u.
  Dip. moment [a.u.]:                  [   0.000000,   -0.000001,   -0.000000]
  Total dipole [Debye]:                                               0.000001
  <r^2> [a.u.]:                        [  47.644901,   21.993125,   11.731109]
  Total <r^2> [a.u.]:                                                81.369134

  Density matrix analysis:
  ------------------------
  NOs (alpha)
    Occupation of frontier NOs:
       0.0226   0.9661
    Number of electrons:  8.000000
  NOs (beta)
    Occupation of frontier NOs:
       0.0226   0.9661
    Number of electrons:  8.000000
  NOs (spin-traced)
    Occupation of frontier NOs:
       0.0452   1.9322
    Number of electrons: 16.000000
    Number of unpaired electrons: n_u =  0.45282, n_u,nl =  0.05291
    NO participation ratio (PR_NO): 14.824183
  
  
  Mulliken Population Analysis
  Atom  Charge (e)    Spin (e)  h+ (alpha)   h+ (beta)  e- (alpha)   e- (beta)
  ----------------------------------------------------------------------------
   1 C   -0.299636    0.000000    0.043657    0.043657   -0.060377   -0.060377
   2 C   -0.299636    0.000000    0.043657    0.043657   -0.060377   -0.060377
   3 H    0.149805   -0.000000    0.013083    0.013083   -0.004723   -0.004723
   4 H    0.149853    0.000000    0.013083    0.013083   -0.004723   -0.004723
   5 H    0.149831    0.000000    0.013083    0.013083   -0.004723   -0.004723
   6 H    0.149782    0.000000    0.013083    0.013083   -0.004723   -0.004723
  ----------------------------------------------------------------------------
  Sum:    0.000000    0.000000    0.139646    0.139646   -0.139646   -0.139646
  
  Multipole moment analysis of the density matrix
    Molecular charge:                      0.000000
    Number of electrons:                   16.000000
      Center of electronic charge [Ang]: [ -0.000000,   0.000000,   0.000000]
    Total nuclear charge:                  16.000000
      Center of nuclear charge [Ang]:    [  0.000000,   0.000000,   0.000000]
    Dipole moment [D]:                     0.000001
      Cartesian components [D]:          [  0.000000,  -0.000001,  -0.000000]
    RMS size of the density [Ang]:         1.193359
      Cartesian components [Ang]:        [  0.913165,   0.620418,   0.453117]
  
  Exciton analysis of the difference density matrix
  Total:
    <r_h> [Ang]:                  [ -0.000000,  -0.000000,   0.000000]
    <r_e> [Ang]:                  [ -0.000000,   0.000000,   0.000000]
    |<r_e - r_h>| [Ang]:            0.000000
    Hole size [Ang]:                1.446211
      Cartesian components [Ang]: [  0.970951,   0.749453,   0.766225]
    Electron size [Ang]:            1.309366
      Cartesian components [Ang]: [  0.955297,   0.673267,   0.590389]
  
  Alpha spin:
    <r_h> [Ang]:                  [ -0.000000,  -0.000000,   0.000000]
    <r_e> [Ang]:                  [ -0.000000,   0.000000,   0.000000]
    |<r_e - r_h>| [Ang]:            0.000000
    Hole size [Ang]:                1.446211
      Cartesian components [Ang]: [  0.970951,   0.749453,   0.766225]
    Electron size [Ang]:            1.309366
      Cartesian components [Ang]: [  0.955297,   0.673267,   0.590389]
  
  Beta spin:
    <r_h> [Ang]:                  [ -0.000000,  -0.000000,   0.000000]
    <r_e> [Ang]:                  [ -0.000000,   0.000000,   0.000000]
    |<r_e - r_h>| [Ang]:            0.000000
    Hole size [Ang]:                1.446211
      Cartesian components [Ang]: [  0.970951,   0.749453,   0.766225]
    Electron size [Ang]:            1.309366
      Cartesian components [Ang]: [  0.955297,   0.673267,   0.590389]
--------------------------------------------------------------------------------
Less particle guess vectors found than requested: 13 (found), 100 (requested).
Adjusting number of hole-2particle guess vectors to 87.
  Starting Davidson for electron-attached states of irrep B2g ... 
--------------------------------------------------------------------------------
   It NVec Conv  Avg. Norm  Max. Norm  Conv. states           Remark
--------------------------------------------------------------------------------
       100    0  5.130e-02  3.652e-01  0.0727 n n n n n n n n Guess.
    1  110    5  7.745e-04  5.485e-03  0.0617 n n n y y n y y 
    2  120   10  1.092e-06  7.733e-06  0.0617 y y y y y y y y Converged.
--------------------------------------------------------------------------------
  Davidson Summary: 
 ------------------------------------------------------------
  State  0: electron attachment energy =   0.0617 a.u.   (converged)
  State  1: electron attachment energy =   0.1005 a.u.   (converged)
  State  2: electron attachment energy =   0.2657 a.u.   (converged)
  State  3: electron attachment energy =   0.5023 a.u.   (converged)
  State  4: electron attachment energy =   0.5023 a.u.   (converged)
  State  5: electron attachment energy =   0.5093 a.u.   (converged)
  State  6: electron attachment energy =   0.5094 a.u.   (converged)
  State  7: electron attachment energy =   0.5140 a.u.   (converged)
  State  8: electron attachment energy =   0.5141 a.u.   (converged)
  State  9: electron attachment energy =   0.5792 a.u.   (converged)
 ------------------------------------------------------------


--------------------------------------------------------------------------------
                        Electron-Attached State Summary
--------------------------------------------------------------------------------

  Electron-attached state 1 (B2g)                                  [converged]
  ----------------------------------------------------------------------------
  Term symbol:  1 (2) B2g                                   R^2 =  5.54431e-06

  Total energy:                                            -78.3652765665 a.u.
  Electron attachment energy:                                      1.678752 eV

  Pole strength:                                                      0.971962

  Dip. moment [a.u.]:                  [   0.000000,   -0.000001,    0.000000]
  Total dipole [Debye]:                                               0.000001
  <r^2> [a.u.]:                        [  71.098111,   29.990151,   33.960458]
  Total <r^2> [a.u.]:                                               135.048720

  V1^2 = 0.9784, V2^2 = 0.0216

  Important amplitudes:
       occ i       vir a        vir b           v   
    -------------------------------------------------
                               1 (B2g) B     -0.9172
                               2 (B2g) B     -0.3565
    -------------------------------------------------

  Density matrix analysis:
  ------------------------
  NOs (alpha)
    Occupation of frontier NOs:
       0.0204   0.9644
    Number of electrons:  8.000000
  NOs (beta)
    Occupation of frontier NOs:
       0.0253   0.9690
    Number of electrons:  9.000000
  NOs (spin-traced)
    Occupation of frontier NOs:
       0.0396   0.9895
    Number of electrons: 17.000000
    Number of unpaired electrons: n_u =  1.46759, n_u,nl =  1.05450
    NO participation ratio (PR_NO):  2.168077
  
  
  Mulliken Population Analysis
  Atom  Charge (e)    Spin (e)  h+ (alpha)   h+ (beta)  e- (alpha)   e- (beta)
  ----------------------------------------------------------------------------
   1 C   -0.746973    0.521185    0.045742    0.037055   -0.008818   -0.521316
   2 C   -0.746973    0.521185    0.045742    0.037055   -0.008818   -0.521316
   3 H    0.123474   -0.010593    0.000380    0.004881   -0.018842   -0.012749
   4 H    0.123521   -0.010591    0.000380    0.004880   -0.018842   -0.012751
   5 H    0.123499   -0.010591    0.000380    0.004880   -0.018842   -0.012751
   6 H    0.123452   -0.010593    0.000381    0.004881   -0.018842   -0.012749
  ----------------------------------------------------------------------------
  Sum:   -1.000000    1.000000    0.093005    0.093632   -0.093005   -1.093632
  
  Multipole moment analysis of the density matrix
    Molecular charge:                      -1.000000
    Number of electrons:                   17.000000
      Center of electronic charge [Ang]: [ -0.000000,   0.000000,  -0.000000]
    Total nuclear charge:                  16.000000
      Center of nuclear charge [Ang]:    [  0.000000,   0.000000,   0.000000]
    Dipole moment [D]:                     0.000001
      Cartesian components [D]:          [  0.000000,  -0.000001,   0.000000]
    RMS size of the density [Ang]:         1.491495
      Cartesian components [Ang]:        [  1.082195,   0.702855,   0.747934]
  
  Exciton analysis of the difference density matrix
  Total:
    <r_h> [Ang]:                  [  0.000000,   0.000000,  -0.000000]
    <r_e> [Ang]:                  [ -0.000000,   0.000000,  -0.000000]
    |<r_e - r_h>| [Ang]:            0.000000
    Hole size [Ang]:                1.528233
      Cartesian components [Ang]: [  1.052433,   0.774155,   0.792821]
    Electron size [Ang]:            3.610389
      Cartesian components [Ang]: [  2.389312,   1.407636,   2.311851]
  
  Alpha spin:
    <r_h> [Ang]:                  [ -0.000000,   0.000000,  -0.000000]
    <r_e> [Ang]:                  [ -0.000000,   0.000000,  -0.000000]
    |<r_e - r_h>| [Ang]:            0.000000
    Hole size [Ang]:                1.423815
      Cartesian components [Ang]: [  1.014278,   0.730978,   0.681294]
    Electron size [Ang]:            2.169690
      Cartesian components [Ang]: [  1.407429,   1.277106,   1.046756]
  
  Beta spin:
    <r_h> [Ang]:                  [  0.000000,   0.000000,   0.000000]
    <r_e> [Ang]:                  [ -0.000000,   0.000000,  -0.000000]
    |<r_e - r_h>| [Ang]:            0.000000
    Hole size [Ang]:                1.625323
      Cartesian components [Ang]: [  1.089009,   0.814781,   0.889870]
    Electron size [Ang]:            3.707166
      Cartesian components [Ang]: [  2.454760,   1.418183,   2.388722]
  ----------------------------------------------------------------------------


  Electron-attached state 2 (B2g)                                  [converged]
  ----------------------------------------------------------------------------
  Term symbol:  2 (2) B2g                                   R^2 =  7.73252e-06

  Total energy:                                            -78.3264296834 a.u.
  Electron attachment energy:                                      2.735830 eV

  Pole strength:                                                      0.954951

  Dip. moment [a.u.]:                  [   0.000000,   -0.000000,   -0.000000]
  Total dipole [Debye]:                                               0.000001
  <r^2> [a.u.]:                        [  71.391954,   30.344611,   34.052383]
  Total <r^2> [a.u.]:                                               135.788948

  V1^2 = 0.9648, V2^2 = 0.0352

  Important amplitudes:
       occ i       vir a        vir b           v   
    -------------------------------------------------
                               2 (B2g) B      0.8837
                               1 (B2g) B     -0.3909
    -------------------------------------------------

  Density matrix analysis:
  ------------------------
  NOs (alpha)
    Occupation of frontier NOs:
       0.0201   0.9625
    Number of electrons:  8.000000
  NOs (beta)
    Occupation of frontier NOs:
       0.0251   0.9721
    Number of electrons:  9.000000
  NOs (spin-traced)
    Occupation of frontier NOs:
       0.0358   0.9857
    Number of electrons: 17.000000
    Number of unpaired electrons: n_u =  1.47558, n_u,nl =  1.05542
    NO participation ratio (PR_NO):  2.207968
  
  
  Mulliken Population Analysis
  Atom  Charge (e)    Spin (e)  h+ (alpha)   h+ (beta)  e- (alpha)   e- (beta)
  ----------------------------------------------------------------------------
   1 C   -0.704419    0.510008    0.075363    0.053853   -0.022750   -0.511249
   2 C   -0.704419    0.510008    0.075363    0.053853   -0.022750   -0.511249
   3 H    0.102198   -0.005006    0.001357    0.004879   -0.027664   -0.026180
   4 H    0.102243   -0.005003    0.001357    0.004878   -0.027663   -0.026182
   5 H    0.102221   -0.005003    0.001357    0.004878   -0.027663   -0.026182
   6 H    0.102176   -0.005005    0.001358    0.004880   -0.027663   -0.026180
  ----------------------------------------------------------------------------
  Sum:   -1.000000    1.000000    0.156154    0.127222   -0.156154   -1.127222
  
  Multipole moment analysis of the density matrix
    Molecular charge:                      -1.000000
    Number of electrons:                   17.000000
      Center of electronic charge [Ang]: [ -0.000000,   0.000000,   0.000000]
    Total nuclear charge:                  16.000000
      Center of nuclear charge [Ang]:    [  0.000000,   0.000000,   0.000000]
    Dipole moment [D]:                     0.000001
      Cartesian components [D]:          [  0.000000,  -0.000001,  -0.000000]
    RMS size of the density [Ang]:         1.495577
      Cartesian components [Ang]:        [  1.084429,   0.706997,   0.748946]
  
  Exciton analysis of the difference density matrix
  Total:
    <r_h> [Ang]:                  [ -0.000000,   0.000000,  -0.000000]
    <r_e> [Ang]:                  [ -0.000000,   0.000000,  -0.000000]
    |<r_e - r_h>| [Ang]:            0.000000
    Hole size [Ang]:                1.352100
      Cartesian components [Ang]: [  0.982214,   0.690374,   0.621945]
    Electron size [Ang]:            3.503983
      Cartesian components [Ang]: [  2.322617,   1.388347,   2.226172]
  
  Alpha spin:
    <r_h> [Ang]:                  [ -0.000000,   0.000000,  -0.000000]
    <r_e> [Ang]:                  [ -0.000000,   0.000000,  -0.000000]
    |<r_e - r_h>| [Ang]:            0.000000
    Hole size [Ang]:                1.356694
      Cartesian components [Ang]: [  0.980343,   0.680071,   0.645793]
    Electron size [Ang]:            2.140636
      Cartesian components [Ang]: [  1.404074,   1.234640,   1.042383]
  
  Beta spin:
    <r_h> [Ang]:                  [  0.000000,   0.000000,   0.000000]
    <r_e> [Ang]:                  [ -0.000000,   0.000000,  -0.000000]
    |<r_e - r_h>| [Ang]:            0.000000
    Hole size [Ang]:                1.346440
      Cartesian components [Ang]: [  0.984505,   0.702812,   0.591360]
    Electron size [Ang]:            3.652940
      Cartesian components [Ang]: [  2.422552,   1.408317,   2.343470]
  ----------------------------------------------------------------------------


  Electron-attached state 3 (B2g)                                  [converged]
  ----------------------------------------------------------------------------
  Term symbol:  3 (2) B2g                                   R^2 =  5.36479e-06

  Total energy:                                            -78.1612336217 a.u.
  Electron attachment energy:                                      7.231043 eV

  Pole strength:                                                      0.966797

  Dip. moment [a.u.]:                  [   0.000000,   -0.000001,    0.000000]
  Total dipole [Debye]:                                               0.000001
  <r^2> [a.u.]:                        [  67.900389,   29.087251,   31.356273]
  Total <r^2> [a.u.]:                                               128.343913

  V1^2 = 0.9700, V2^2 = 0.0300

  Important amplitudes:
       occ i       vir a        vir b           v   
    -------------------------------------------------
                               3 (B2g) B      0.9539
                               2 (B2g) B      0.2302
    -------------------------------------------------

  Density matrix analysis:
  ------------------------
  NOs (alpha)
    Occupation of frontier NOs:
       0.0270   0.9557
    Number of electrons:  8.000000
  NOs (beta)
    Occupation of frontier NOs:
       0.0323   0.9673
    Number of electrons:  9.000000
  NOs (spin-traced)
    Occupation of frontier NOs:
       0.0557   0.9770
    Number of electrons: 17.000000
    Number of unpaired electrons: n_u =  1.49896, n_u,nl =  1.06761
    NO participation ratio (PR_NO):  2.310208
  
  
  Mulliken Population Analysis
  Atom  Charge (e)    Spin (e)  h+ (alpha)   h+ (beta)  e- (alpha)   e- (beta)
  ----------------------------------------------------------------------------
   1 C   -0.723865    0.501995    0.048188    0.035924   -0.009305   -0.499036
   2 C   -0.723865    0.501995    0.048188    0.035924   -0.009305   -0.499036
   3 H    0.111919   -0.000998   -0.000985   -0.001444   -0.018457   -0.016999
   4 H    0.111967   -0.000998   -0.000985   -0.001445   -0.018457   -0.016999
   5 H    0.111946   -0.000997   -0.000985   -0.001445   -0.018457   -0.016999
   6 H    0.111898   -0.000998   -0.000984   -0.001444   -0.018457   -0.016999
  ----------------------------------------------------------------------------
  Sum:   -1.000000    1.000000    0.092437    0.066069   -0.092437   -1.066069
  
  Multipole moment analysis of the density matrix
    Molecular charge:                      -1.000000
    Number of electrons:                   17.000000
      Center of electronic charge [Ang]: [ -0.000000,   0.000000,  -0.000000]
    Total nuclear charge:                  16.000000
      Center of nuclear charge [Ang]:    [  0.000000,   0.000000,   0.000000]
    Dipole moment [D]:                     0.000001
      Cartesian components [D]:          [  0.000000,  -0.000001,   0.000000]
    RMS size of the density [Ang]:         1.454000
      Cartesian components [Ang]:        [  1.057579,   0.692194,   0.718686]
  
  Exciton analysis of the difference density matrix
  Total:
    <r_h> [Ang]:                  [ -0.000000,   0.000000,  -0.000000]
    <r_e> [Ang]:                  [ -0.000000,   0.000000,  -0.000000]
    |<r_e - r_h>| [Ang]:            0.000000
    Hole size [Ang]:                1.343463
      Cartesian components [Ang]: [  0.971160,   0.707892,   0.600525]
    Electron size [Ang]:            3.406092
      Cartesian components [Ang]: [  2.241674,   1.335410,   2.189302]
  
  Alpha spin:
    <r_h> [Ang]:                  [ -0.000000,   0.000000,  -0.000000]
    <r_e> [Ang]:                  [ -0.000000,   0.000000,   0.000000]
    |<r_e - r_h>| [Ang]:            0.000000
    Hole size [Ang]:                1.275249
      Cartesian components [Ang]: [  0.933622,   0.649937,   0.576361]
    Electron size [Ang]:            2.095952
      Cartesian components [Ang]: [  1.382206,   1.225746,   0.989982]
  
  Beta spin:
    <r_h> [Ang]:                  [ -0.000000,   0.000001,  -0.000000]
    <r_e> [Ang]:                  [ -0.000000,   0.000000,  -0.000000]
    |<r_e - r_h>| [Ang]:            0.000000
    Hole size [Ang]:                1.433463
      Cartesian components [Ang]: [  1.021367,   0.781799,   0.632786]
    Electron size [Ang]:            3.496640
      Cartesian components [Ang]: [  2.301122,   1.344497,   2.263550]
  ----------------------------------------------------------------------------


  Electron-attached state 4 (B2g)                                  [converged]
  ----------------------------------------------------------------------------
  Term symbol:  4 (2) B2g                                   R^2 =  2.44636e-10

  Total energy:                                            -77.9247042245 a.u.
  Electron attachment energy:                                     13.667336 eV

  Pole strength:                                                      0.000000

  Dip. moment [a.u.]:                  [   0.000000,    0.000000,   -0.000000]
  Total dipole [Debye]:                                               0.000001
  <r^2> [a.u.]:                        [ 102.052150,  104.605033,   36.238517]
  Total <r^2> [a.u.]:                                               242.895701

  V1^2 = 0.0000, V2^2 = 1.0000

  Important amplitudes:
       occ i       vir a        vir b           v   
    -------------------------------------------------
     1 (B1u) A    2 (B1g) A    2 (B2u) B      0.5349
     1 (B1u) B    2 (B1g) B    2 (B2u) B      0.4556
    -------------------------------------------------

  Density matrix analysis:
  ------------------------
  NOs (alpha)
    Occupation of frontier NOs:
       0.3821   0.5725
    Number of electrons:  8.000000
  NOs (beta)
    Occupation of frontier NOs:
       0.4279   0.5515
    Number of electrons:  9.000000
  NOs (spin-traced)
    Occupation of frontier NOs:
       0.9335   1.0004
    Number of electrons: 17.000000
    Number of unpaired electrons: n_u =  3.31507, n_u,nl =  3.02675
    NO participation ratio (PR_NO):  3.817807
  
  
  Mulliken Population Analysis
  Atom  Charge (e)    Spin (e)  h+ (alpha)   h+ (beta)  e- (alpha)   e- (beta)
  ----------------------------------------------------------------------------
   1 C   -0.640198    0.465247    0.285605    0.202679   -0.223263   -0.605584
   2 C   -0.640198    0.465247    0.285605    0.202679   -0.223263   -0.605584
   3 H    0.070086    0.017377    0.003426    0.002432   -0.034597   -0.050979
   4 H    0.070134    0.017377    0.003426    0.002431   -0.034597   -0.050979
   5 H    0.070112    0.017377    0.003426    0.002432   -0.034597   -0.050979
   6 H    0.070064    0.017377    0.003426    0.002432   -0.034597   -0.050979
  ----------------------------------------------------------------------------
  Sum:   -1.000000    1.000000    0.584915    0.415084   -0.584915   -1.415084
  
  Multipole moment analysis of the density matrix
    Molecular charge:                      -1.000000
    Number of electrons:                   17.000000
      Center of electronic charge [Ang]: [ -0.000000,   0.000000,   0.000000]
    Total nuclear charge:                  16.000000
      Center of nuclear charge [Ang]:    [  0.000000,   0.000000,   0.000000]
    Dipole moment [D]:                     0.000001
      Cartesian components [D]:          [  0.000000,   0.000001,  -0.000000]
    RMS size of the density [Ang]:         2.000261
      Cartesian components [Ang]:        [  1.296545,   1.312662,   0.772613]
  
  Exciton analysis of the difference density matrix
  Total:
    <r_h> [Ang]:                  [ -0.000000,   0.000000,  -0.000000]
    <r_e> [Ang]:                  [ -0.000000,  -0.000000,   0.000000]
    |<r_e - r_h>| [Ang]:            0.000000
    Hole size [Ang]:                1.247860
      Cartesian components [Ang]: [  0.742734,   0.514350,   0.860781]
    Electron size [Ang]:            4.836797
      Cartesian components [Ang]: [  2.809558,   3.420398,   1.949836]
  
  Alpha spin:
    <r_h> [Ang]:                  [ -0.000000,   0.000000,  -0.000000]
    <r_e> [Ang]:                  [ -0.000000,  -0.000000,   0.000000]
    |<r_e - r_h>| [Ang]:            0.000000
    Hole size [Ang]:                1.247860
      Cartesian components [Ang]: [  0.742734,   0.514350,   0.860781]
    Electron size [Ang]:            5.119835
      Cartesian components [Ang]: [  3.360714,   3.359726,   1.905401]
  
  Beta spin:
    <r_h> [Ang]:                  [ -0.000000,   0.000000,  -0.000000]
    <r_e> [Ang]:                  [ -0.000000,  -0.000000,   0.000000]
    |<r_e - r_h>| [Ang]:            0.000000
    Hole size [Ang]:                1.247860
      Cartesian components [Ang]: [  0.742734,   0.514350,   0.860781]
    Electron size [Ang]:            4.714844
      Cartesian components [Ang]: [  2.547141,   3.445165,   1.967909]
  ----------------------------------------------------------------------------


  Electron-attached state 5 (B2g)                                  [converged]
  ----------------------------------------------------------------------------
  Term symbol:  5 (2) B2g                                   R^2 =  4.22829e-10

  Total energy:                                            -77.9247038185 a.u.
  Electron attachment energy:                                     13.667347 eV

  Pole strength:                                                      0.000002

  Dip. moment [a.u.]:                  [   0.000000,    0.000000,   -0.000000]
  Total dipole [Debye]:                                               0.000001
  <r^2> [a.u.]:                        [ 102.052232,  104.605048,   36.238627]
  Total <r^2> [a.u.]:                                               242.895907

  V1^2 = 0.0000, V2^2 = 1.0000

  Important amplitudes:
       occ i       vir a        vir b           v   
    -------------------------------------------------
     1 (B1u) A    2 (B2u) A    2 (B1g) B     -0.5719
     1 (B1u) B    2 (B1g) B    2 (B2u) B      0.3547
    -------------------------------------------------

  Density matrix analysis:
  ------------------------
  NOs (alpha)
    Occupation of frontier NOs:
       0.2198   0.6544
    Number of electrons:  8.000000
  NOs (beta)
    Occupation of frontier NOs:
       0.3463   0.7147
    Number of electrons:  9.000000
  NOs (spin-traced)
    Occupation of frontier NOs:
       0.9335   1.0003
    Number of electrons: 17.000000
    Number of unpaired electrons: n_u =  3.31508, n_u,nl =  3.02675
    NO participation ratio (PR_NO):  3.817815
  
  
  Mulliken Population Analysis
  Atom  Charge (e)    Spin (e)  h+ (alpha)   h+ (beta)  e- (alpha)   e- (beta)
  ----------------------------------------------------------------------------
   1 C   -0.640196    0.412841    0.365440    0.122844   -0.329299   -0.499544
   2 C   -0.640196    0.412841    0.365440    0.122844   -0.329299   -0.499544
   3 H    0.070085    0.043580    0.004384    0.001474   -0.022454   -0.063123
   4 H    0.070133    0.043580    0.004384    0.001474   -0.022454   -0.063124
   5 H    0.070111    0.043580    0.004384    0.001474   -0.022454   -0.063124
   6 H    0.070063    0.043580    0.004384    0.001474   -0.022454   -0.063123
  ----------------------------------------------------------------------------
  Sum:   -1.000000    1.000000    0.748416    0.251583   -0.748416   -1.251583
  
  Multipole moment analysis of the density matrix
    Molecular charge:                      -1.000000
    Number of electrons:                   17.000000
      Center of electronic charge [Ang]: [ -0.000000,   0.000000,   0.000000]
    Total nuclear charge:                  16.000000
      Center of nuclear charge [Ang]:    [  0.000000,   0.000000,   0.000000]
    Dipole moment [D]:                     0.000001
      Cartesian components [D]:          [  0.000000,   0.000001,  -0.000000]
    RMS size of the density [Ang]:         2.000261
      Cartesian components [Ang]:        [  1.296546,   1.312662,   0.772614]
  
  Exciton analysis of the difference density matrix
  Total:
    <r_h> [Ang]:                  [ -0.000000,   0.000000,  -0.000000]
    <r_e> [Ang]:                  [ -0.000000,  -0.000000,   0.000000]
    |<r_e - r_h>| [Ang]:            0.000000
    Hole size [Ang]:                1.247859
      Cartesian components [Ang]: [  0.742734,   0.514350,   0.860780]
    Electron size [Ang]:            4.836801
      Cartesian components [Ang]: [  2.809561,   3.420400,   1.949840]
  
  Alpha spin:
    <r_h> [Ang]:                  [ -0.000000,   0.000000,  -0.000000]
    <r_e> [Ang]:                  [ -0.000000,  -0.000000,  -0.000000]
    |<r_e - r_h>| [Ang]:            0.000000
    Hole size [Ang]:                1.247860
      Cartesian components [Ang]: [  0.742734,   0.514350,   0.860781]
    Electron size [Ang]:            4.603500
      Cartesian components [Ang]: [  2.288189,   3.467081,   1.983873]
  
  Beta spin:
    <r_h> [Ang]:                  [ -0.000000,   0.000000,  -0.000000]
    <r_e> [Ang]:                  [ -0.000000,  -0.000000,   0.000000]
    |<r_e - r_h>| [Ang]:            0.000000
    Hole size [Ang]:                1.247857
      Cartesian components [Ang]: [  0.742733,   0.514349,   0.860779]
    Electron size [Ang]:            4.971081
      Cartesian components [Ang]: [  3.079440,   3.392178,   1.929202]
  ----------------------------------------------------------------------------


  Electron-attached state 6 (B2g)                                  [converged]
  ----------------------------------------------------------------------------
  Term symbol:  6 (2) B2g                                   R^2 =  4.21837e-08

  Total energy:                                            -77.9176294035 a.u.
  Electron attachment energy:                                     13.859851 eV

  Pole strength:                                                      0.000271

  Dip. moment [a.u.]:                  [   0.000000,   -0.000001,    0.000000]
  Total dipole [Debye]:                                               0.000002
  <r^2> [a.u.]:                        [  95.336070,   46.855605,   86.487371]
  Total <r^2> [a.u.]:                                               228.679047

  V1^2 = 0.0003, V2^2 = 0.9997

  Important amplitudes:
       occ i       vir a        vir b           v   
    -------------------------------------------------
     1 (B1u) A    2 (B1u) A    1 (B2g) B      0.5730
     1 (B1u) B    1 (B2g) B    2 (B1u) B     -0.3473
    -------------------------------------------------

  Density matrix analysis:
  ------------------------
  NOs (alpha)
    Occupation of frontier NOs:
       0.2096   0.6572
    Number of electrons:  8.000000
  NOs (beta)
    Occupation of frontier NOs:
       0.3434   0.7251
    Number of electrons:  9.000000
  NOs (spin-traced)
    Occupation of frontier NOs:
       0.9296   1.0022
    Number of electrons: 17.000000
    Number of unpaired electrons: n_u =  3.30355, n_u,nl =  3.02496
    NO participation ratio (PR_NO):  3.816385
  
  
  Mulliken Population Analysis
  Atom  Charge (e)    Spin (e)  h+ (alpha)   h+ (beta)  e- (alpha)   e- (beta)
  ----------------------------------------------------------------------------
   1 C   -0.810097    0.493076    0.370436    0.117902   -0.379129   -0.619671
   2 C   -0.810097    0.493076    0.370436    0.117902   -0.379129   -0.619671
   3 H    0.155035    0.003462    0.004443    0.001418   -0.000096   -0.000533
   4 H    0.155084    0.003462    0.004443    0.001418   -0.000096   -0.000533
   5 H    0.155062    0.003462    0.004443    0.001418   -0.000096   -0.000533
   6 H    0.155013    0.003462    0.004443    0.001418   -0.000096   -0.000533
  ----------------------------------------------------------------------------
  Sum:   -1.000000    1.000000    0.758643    0.241476   -0.758643   -1.241476
  
  Multipole moment analysis of the density matrix
    Molecular charge:                      -1.000000
    Number of electrons:                   17.000000
      Center of electronic charge [Ang]: [ -0.000000,   0.000000,  -0.000000]
    Total nuclear charge:                  16.000000
      Center of nuclear charge [Ang]:    [  0.000000,   0.000000,   0.000000]
    Dipole moment [D]:                     0.000002
      Cartesian components [D]:          [  0.000000,  -0.000002,   0.000000]
    RMS size of the density [Ang]:         1.940841
      Cartesian components [Ang]:        [  1.253156,   0.878532,   1.193584]
  
  Exciton analysis of the difference density matrix
  Total:
    <r_h> [Ang]:                  [ -0.000000,   0.000000,  -0.000000]
    <r_e> [Ang]:                  [ -0.000000,   0.000000,  -0.000000]
    |<r_e - r_h>| [Ang]:            0.000000
    Hole size [Ang]:                1.249550
      Cartesian components [Ang]: [  0.743437,   0.515229,   0.862099]
    Electron size [Ang]:            4.626554
      Cartesian components [Ang]: [  2.636933,   1.900956,   3.292104]
  
  Alpha spin:
    <r_h> [Ang]:                  [ -0.000000,   0.000000,  -0.000000]
    <r_e> [Ang]:                  [ -0.000000,   0.000000,  -0.000000]
    |<r_e - r_h>| [Ang]:            0.000000
    Hole size [Ang]:                1.249404
      Cartesian components [Ang]: [  0.743361,   0.515134,   0.862010]
    Electron size [Ang]:            4.556470
      Cartesian components [Ang]: [  2.228375,   1.987181,   3.441928]
  
  Beta spin:
    <r_h> [Ang]:                  [ -0.000000,   0.000000,  -0.000000]
    <r_e> [Ang]:                  [ -0.000000,   0.000000,  -0.000000]
    |<r_e - r_h>| [Ang]:            0.000000
    Hole size [Ang]:                1.250009
      Cartesian components [Ang]: [  0.743677,   0.515530,   0.862379]
    Electron size [Ang]:            4.668863
      Cartesian components [Ang]: [  2.857988,   1.846284,   3.197095]
  ----------------------------------------------------------------------------


  Electron-attached state 7 (B2g)                                  [converged]
  ----------------------------------------------------------------------------
  Term symbol:  7 (2) B2g                                   R^2 =  2.44461e-09

  Total energy:                                            -77.9175937560 a.u.
  Electron attachment energy:                                     13.860821 eV

  Pole strength:                                                      0.000476

  Dip. moment [a.u.]:                  [   0.000000,   -0.000001,    0.000000]
  Total dipole [Debye]:                                               0.000002
  <r^2> [a.u.]:                        [  95.341404,   46.850601,   86.461439]
  Total <r^2> [a.u.]:                                               228.653444

  V1^2 = 0.0005, V2^2 = 0.9995

  Important amplitudes:
       occ i       vir a        vir b           v   
    -------------------------------------------------
     1 (B1u) A    1 (B2g) A    2 (B1u) B     -0.5312
     1 (B1u) B    1 (B2g) B    2 (B1u) B     -0.4610
    -------------------------------------------------

  Density matrix analysis:
  ------------------------
  NOs (alpha)
    Occupation of frontier NOs:
       0.3927   0.5656
    Number of electrons:  8.000000
  NOs (beta)
    Occupation of frontier NOs:
       0.4364   0.5409
    Number of electrons:  9.000000
  NOs (spin-traced)
    Occupation of frontier NOs:
       0.9290   1.0020
    Number of electrons: 17.000000
    Number of unpaired electrons: n_u =  3.30293, n_u,nl =  3.02470
    NO participation ratio (PR_NO):  3.817480
  
  
  Mulliken Population Analysis
  Atom  Charge (e)    Spin (e)  h+ (alpha)   h+ (beta)  e- (alpha)   e- (beta)
  ----------------------------------------------------------------------------
   1 C   -0.810096    0.498383    0.280520    0.207752   -0.286559   -0.712174
   2 C   -0.810096    0.498383    0.280520    0.207752   -0.286559   -0.712174
   3 H    0.155035    0.000809    0.003367    0.002488   -0.000347   -0.000277
   4 H    0.155083    0.000809    0.003367    0.002488   -0.000347   -0.000277
   5 H    0.155061    0.000809    0.003367    0.002488   -0.000347   -0.000277
   6 H    0.155012    0.000809    0.003367    0.002488   -0.000347   -0.000277
  ----------------------------------------------------------------------------
  Sum:   -1.000000    1.000000    0.574507    0.425455   -0.574507   -1.425455
  
  Multipole moment analysis of the density matrix
    Molecular charge:                      -1.000000
    Number of electrons:                   17.000000
      Center of electronic charge [Ang]: [ -0.000000,   0.000000,  -0.000000]
    Total nuclear charge:                  16.000000
      Center of nuclear charge [Ang]:    [  0.000000,   0.000000,   0.000000]
    Dipole moment [D]:                     0.000002
      Cartesian components [D]:          [  0.000000,  -0.000002,   0.000000]
    RMS size of the density [Ang]:         1.940732
      Cartesian components [Ang]:        [  1.253192,   0.878485,   1.193405]
  
  Exciton analysis of the difference density matrix
  Total:
    <r_h> [Ang]:                  [ -0.000000,   0.000000,  -0.000000]
    <r_e> [Ang]:                  [ -0.000000,   0.000000,  -0.000000]
    |<r_e - r_h>| [Ang]:            0.000000
    Hole size [Ang]:                1.248722
      Cartesian components [Ang]: [  0.743113,   0.514816,   0.861425]
    Electron size [Ang]:            4.626222
      Cartesian components [Ang]: [  2.637124,   1.900785,   3.291585]
  
  Alpha spin:
    <r_h> [Ang]:                  [ -0.000000,   0.000000,  -0.000000]
    <r_e> [Ang]:                  [ -0.000000,   0.000000,  -0.000000]
    |<r_e - r_h>| [Ang]:            0.000000
    Hole size [Ang]:                1.246228
      Cartesian components [Ang]: [  0.742198,   0.513621,   0.859313]
    Electron size [Ang]:            4.718050
      Cartesian components [Ang]: [  3.095180,   1.781097,   3.083431]
  
  Beta spin:
    <r_h> [Ang]:                  [ -0.000000,   0.000000,  -0.000000]
    <r_e> [Ang]:                  [ -0.000000,   0.000000,  -0.000000]
    |<r_e - r_h>| [Ang]:            0.000000
    Hole size [Ang]:                1.252081
      Cartesian components [Ang]: [  0.744345,   0.516426,   0.864269]
    Electron size [Ang]:            4.588693
      Cartesian components [Ang]: [  2.428202,   1.946944,   3.371847]
  ----------------------------------------------------------------------------


  Electron-attached state 8 (B2g)                                  [converged]
  ----------------------------------------------------------------------------
  Term symbol:  8 (2) B2g                                   R^2 =  1.66616e-09

  Total energy:                                            -77.9129248653 a.u.
  Electron attachment energy:                                     13.987868 eV

  Pole strength:                                                      0.000002

  Dip. moment [a.u.]:                  [   0.000000,   -0.000001,   -0.000000]
  Total dipole [Debye]:                                               0.000003
  <r^2> [a.u.]:                        [ 142.906135,   51.291575,   40.277635]
  Total <r^2> [a.u.]:                                               234.475345

  V1^2 = 0.0000, V2^2 = 1.0000

  Important amplitudes:
       occ i       vir a        vir b           v   
    -------------------------------------------------
     1 (B1u) A    3 (B3u) A    4 (Ag ) B     -0.5773
     1 (B1u) B    4 (Ag ) B    3 (B3u) B      0.2935
    -------------------------------------------------

  Density matrix analysis:
  ------------------------
  NOs (alpha)
    Occupation of frontier NOs:
       0.1613   0.6668
    Number of electrons:  8.000000
  NOs (beta)
    Occupation of frontier NOs:
       0.3336   0.7940
    Number of electrons:  9.000000
  NOs (spin-traced)
    Occupation of frontier NOs:
       0.9335   1.0004
    Number of electrons: 17.000000
    Number of unpaired electrons: n_u =  3.31552, n_u,nl =  3.02679
    NO participation ratio (PR_NO):  3.818225
  
  
  Mulliken Population Analysis
  Atom  Charge (e)    Spin (e)  h+ (alpha)   h+ (beta)  e- (alpha)   e- (beta)
  ----------------------------------------------------------------------------
   1 C   -0.807255    0.536611    0.404168    0.084116   -0.389672   -0.606231
   2 C   -0.807255    0.536611    0.404168    0.084116   -0.389672   -0.606231
   3 H    0.153614   -0.018306    0.004849    0.001009   -0.012097    0.010048
   4 H    0.153663   -0.018305    0.004849    0.001009   -0.012097    0.010048
   5 H    0.153641   -0.018305    0.004849    0.001009   -0.012096    0.010048
   6 H    0.153592   -0.018305    0.004849    0.001009   -0.012097    0.010048
  ----------------------------------------------------------------------------
  Sum:   -1.000000    1.000000    0.827730    0.172268   -0.827730   -1.172268
  
  Multipole moment analysis of the density matrix
    Molecular charge:                      -1.000000
    Number of electrons:                   17.000000
      Center of electronic charge [Ang]: [ -0.000000,   0.000000,   0.000000]
    Total nuclear charge:                  16.000000
      Center of nuclear charge [Ang]:    [  0.000000,   0.000000,   0.000000]
    Dipole moment [D]:                     0.000003
      Cartesian components [D]:          [  0.000000,  -0.000003,  -0.000000]
    RMS size of the density [Ang]:         1.965284
      Cartesian components [Ang]:        [  1.534271,   0.919178,   0.814533]
  
  Exciton analysis of the difference density matrix
  Total:
    <r_h> [Ang]:                  [ -0.000000,   0.000000,  -0.000000]
    <r_e> [Ang]:                  [ -0.000000,   0.000000,   0.000000]
    |<r_e - r_h>| [Ang]:            0.000000
    Hole size [Ang]:                1.247860
      Cartesian components [Ang]: [  0.742734,   0.514350,   0.860781]
    Electron size [Ang]:            4.713348
      Cartesian components [Ang]: [  3.689684,   2.057786,   2.089832]
  
  Alpha spin:
    <r_h> [Ang]:                  [ -0.000000,   0.000000,  -0.000000]
    <r_e> [Ang]:                  [  0.000000,   0.000000,   0.000000]
    |<r_e - r_h>| [Ang]:            0.000000
    Hole size [Ang]:                1.247860
      Cartesian components [Ang]: [  0.742734,   0.514350,   0.860781]
    Electron size [Ang]:            4.717214
      Cartesian components [Ang]: [  3.678195,   2.095739,   2.081072]
  
  Beta spin:
    <r_h> [Ang]:                  [ -0.000000,   0.000000,  -0.000000]
    <r_e> [Ang]:                  [ -0.000000,   0.000000,   0.000000]
    |<r_e - r_h>| [Ang]:            0.000000
    Hole size [Ang]:                1.247859
      Cartesian components [Ang]: [  0.742734,   0.514350,   0.860780]
    Electron size [Ang]:            4.710616
      Cartesian components [Ang]: [  3.697775,   2.030560,   2.095994]
  ----------------------------------------------------------------------------


  Electron-attached state 9 (B2g)                                  [converged]
  ----------------------------------------------------------------------------
  Term symbol:  9 (2) B2g                                   R^2 =  2.12003e-09

  Total energy:                                            -77.9128933141 a.u.
  Electron attachment energy:                                     13.988727 eV

  Pole strength:                                                      0.000091

  Dip. moment [a.u.]:                  [   0.000000,   -0.000001,   -0.000000]
  Total dipole [Debye]:                                               0.000003
  <r^2> [a.u.]:                        [ 142.907140,   51.293511,   40.289450]
  Total <r^2> [a.u.]:                                               234.490102

  V1^2 = 0.0001, V2^2 = 0.9999

  Important amplitudes:
       occ i       vir a        vir b           v   
    -------------------------------------------------
     1 (B1u) A    4 (Ag ) A    3 (B3u) B      0.5027
     1 (B1u) B    4 (Ag ) B    3 (B3u) B      0.4971
    -------------------------------------------------

  Density matrix analysis:
  ------------------------
  NOs (alpha)
    Occupation of frontier NOs:
       0.4612   0.5056
    Number of electrons:  8.000000
  NOs (beta)
    Occupation of frontier NOs:
       0.4724   0.4945
    Number of electrons:  9.000000
  NOs (spin-traced)
    Occupation of frontier NOs:
       0.9336   1.0001
    Number of electrons: 17.000000
    Number of unpaired electrons: n_u =  3.31666, n_u,nl =  3.02682
    NO participation ratio (PR_NO):  3.819115
  
  
  Mulliken Population Analysis
  Atom  Charge (e)    Spin (e)  h+ (alpha)   h+ (beta)  e- (alpha)   e- (beta)
  ----------------------------------------------------------------------------
   1 C   -0.807130    0.452802    0.246865    0.241380   -0.274211   -0.721528
   2 C   -0.807130    0.452802    0.246865    0.241380   -0.274211   -0.721528
   3 H    0.153551    0.023599    0.002961    0.002896    0.010712   -0.012822
   4 H    0.153600    0.023599    0.002961    0.002896    0.010712   -0.012822
   5 H    0.153578    0.023599    0.002961    0.002896    0.010712   -0.012821
   6 H    0.153529    0.023599    0.002961    0.002896    0.010712   -0.012822
  ----------------------------------------------------------------------------
  Sum:   -1.000000    1.000000    0.505575    0.494343   -0.505575   -1.494343
  
  Multipole moment analysis of the density matrix
    Molecular charge:                      -1.000000
    Number of electrons:                   17.000000
      Center of electronic charge [Ang]: [ -0.000000,   0.000000,   0.000000]
    Total nuclear charge:                  16.000000
      Center of nuclear charge [Ang]:    [  0.000000,   0.000000,   0.000000]
    Dipole moment [D]:                     0.000003
      Cartesian components [D]:          [  0.000000,  -0.000003,  -0.000000]
    RMS size of the density [Ang]:         1.965346
      Cartesian components [Ang]:        [  1.534277,   0.919195,   0.814652]
  
  Exciton analysis of the difference density matrix
  Total:
    <r_h> [Ang]:                  [ -0.000000,   0.000000,  -0.000000]
    <r_e> [Ang]:                  [ -0.000000,   0.000000,   0.000000]
    |<r_e - r_h>| [Ang]:            0.000000
    Hole size [Ang]:                1.247893
      Cartesian components [Ang]: [  0.742749,   0.514369,   0.860804]
    Electron size [Ang]:            4.713660
      Cartesian components [Ang]: [  3.689776,   2.057893,   2.090267]
  
  Alpha spin:
    <r_h> [Ang]:                  [ -0.000000,   0.000000,  -0.000000]
    <r_e> [Ang]:                  [ -0.000000,   0.000000,   0.000000]
    |<r_e - r_h>| [Ang]:            0.000000
    Hole size [Ang]:                1.247839
      Cartesian components [Ang]: [  0.742729,   0.514343,   0.860759]
    Electron size [Ang]:            4.707325
      Cartesian components [Ang]: [  3.708615,   1.994096,   2.104439]
  
  Beta spin:
    <r_h> [Ang]:                  [ -0.000000,   0.000000,  -0.000000]
    <r_e> [Ang]:                  [ -0.000000,   0.000000,   0.000000]
    |<r_e - r_h>| [Ang]:            0.000000
    Hole size [Ang]:                1.247948
      Cartesian components [Ang]: [  0.742770,   0.514396,   0.860850]
    Electron size [Ang]:            4.715801
      Cartesian components [Ang]: [  3.683381,   2.079034,   2.085450]
  ----------------------------------------------------------------------------


  Electron-attached state 10 (B2g)                                  [converged]
  ----------------------------------------------------------------------------
  Term symbol:  10 (2) B2g                                  R^2 =  4.43647e-08

  Total energy:                                            -77.8478007427 a.u.
  Electron attachment energy:                                     15.759986 eV

  Pole strength:                                                      0.000096

  Dip. moment [a.u.]:                  [   0.000000,   -0.000003,   -0.000000]
  Total dipole [Debye]:                                               0.000006
  <r^2> [a.u.]:                        [ 110.029949,   47.931807,   27.842850]
  Total <r^2> [a.u.]:                                               185.804606

  V1^2 = 0.0001, V2^2 = 0.9999

  Important amplitudes:
       occ i       vir a        vir b           v   
    -------------------------------------------------
     1 (B1u) A    5 (Ag ) A    3 (B3u) B     -0.5644
     1 (B1u) A    3 (B3u) A    5 (Ag ) B     -0.3865
    -------------------------------------------------

  Density matrix analysis:
  ------------------------
  NOs (alpha)
    Occupation of frontier NOs:
       0.2990   0.6398
    Number of electrons:  8.000000
  NOs (beta)
    Occupation of frontier NOs:
       0.3648   0.7006
    Number of electrons:  9.000000
  NOs (spin-traced)
    Occupation of frontier NOs:
       0.9336   0.9996
    Number of electrons: 17.000000
    Number of unpaired electrons: n_u =  3.30798, n_u,nl =  3.02645
    NO participation ratio (PR_NO):  3.811805
  
  
  Mulliken Population Analysis
  Atom  Charge (e)    Spin (e)  h+ (alpha)   h+ (beta)  e- (alpha)   e- (beta)
  ----------------------------------------------------------------------------
   1 C   -0.131412    0.645438    0.457205    0.031035   -0.050375   -0.269643
   2 C   -0.131412    0.645438    0.457205    0.031035   -0.050375   -0.269643
   3 H   -0.184306   -0.072718    0.005485    0.000373   -0.208899   -0.131069
   4 H   -0.184261   -0.072720    0.005485    0.000373   -0.208902   -0.131071
   5 H   -0.184282   -0.072720    0.005485    0.000373   -0.208901   -0.131070
   6 H   -0.184327   -0.072718    0.005485    0.000373   -0.208899   -0.131069
  ----------------------------------------------------------------------------
  Sum:   -1.000000    1.000000    0.936350    0.063564   -0.936350   -1.063564
  
  Multipole moment analysis of the density matrix
    Molecular charge:                      -1.000000
    Number of electrons:                   17.000000
      Center of electronic charge [Ang]: [ -0.000000,   0.000000,   0.000000]
    Total nuclear charge:                  16.000000
      Center of nuclear charge [Ang]:    [  0.000000,   0.000000,   0.000000]
    Dipole moment [D]:                     0.000006
      Cartesian components [D]:          [  0.000000,  -0.000006,  -0.000000]
    RMS size of the density [Ang]:         1.749464
      Cartesian components [Ang]:        [  1.346270,   0.888564,   0.677226]
  
  Exciton analysis of the difference density matrix
  Total:
    <r_h> [Ang]:                  [ -0.000000,   0.000000,  -0.000000]
    <r_e> [Ang]:                  [ -0.000000,   0.000001,   0.000000]
    |<r_e - r_h>| [Ang]:            0.000001
    Hole size [Ang]:                1.247838
      Cartesian components [Ang]: [  0.742731,   0.514344,   0.860756]
    Electron size [Ang]:            3.924487
      Cartesian components [Ang]: [  3.001830,   1.940157,   1.620619]
  
  Alpha spin:
    <r_h> [Ang]:                  [ -0.000000,   0.000000,  -0.000000]
    <r_e> [Ang]:                  [ -0.000000,   0.000001,   0.000000]
    |<r_e - r_h>| [Ang]:            0.000001
    Hole size [Ang]:                1.247868
      Cartesian components [Ang]: [  0.742740,   0.514356,   0.860785]
    Electron size [Ang]:            3.594083
      Cartesian components [Ang]: [  2.720576,   1.871207,   1.419325]
  
  Beta spin:
    <r_h> [Ang]:                  [ -0.000000,   0.000000,  -0.000000]
    <r_e> [Ang]:                  [ -0.000000,   0.000000,   0.000000]
    |<r_e - r_h>| [Ang]:            0.000000
    Hole size [Ang]:                1.247394
      Cartesian components [Ang]: [  0.742608,   0.514157,   0.860330]
    Electron size [Ang]:            4.193881
      Cartesian components [Ang]: [  3.229230,   1.998893,   1.779082]
  ----------------------------------------------------------------------------


--------------------------------------------------------------------------------
  Time of ADC calculation:  CPU 98.77 s  wall 22.27 s
================================================================================
 
 --------------------------------------------------------------
             Orbital Energies (a.u.) and Symmetries
 --------------------------------------------------------------
 
 Alpha MOs, Restricted
 -- Occupied --                  
-11.228 -11.226  -1.040  -0.781  -0.661  -0.568  -0.516  -0.377
  1 Ag    1 B3u   2 Ag    2 B3u   1 B2u   3 Ag    1 B1g   1 B1u                
 -- Virtual --                   
  0.051   0.052   0.059   0.072   0.073   0.086   0.145   0.151
  3 B3u   2 B2u   2 B1u   1 B2g   2 B1g   4 Ag    2 B2g   5 Ag                 
  0.196   0.201   0.224   0.225   0.229   0.295   0.302   0.306
  4 B3u   3 B2u   3 B1g   6 Ag    3 B1u   5 B3u   3 B2g   4 B2u                
  0.448   0.453   0.456   0.610   0.622   0.641   0.650   0.650
  6 B3u   7 Ag    4 B1g   8 Ag    5 B2u   6 B2u   7 B3u   9 Ag                 
  0.666   0.674   0.713   0.755   0.777   0.828   0.844   0.903
  1 B3g   8 B3u   4 B1u   5 B1g   4 B2g   1 Au    9 B3u   5 B1u                
  0.970   1.007   1.034   1.056   1.188   1.202   1.254   1.351
  6 B1g  10 Ag    7 B1g   7 B2u   6 B1u   5 B2g   2 B3g  11 Ag                 
  1.356   1.399   1.467   1.482   1.498   1.534   1.631   1.635
 10 B3u   6 B2g   8 B2u   9 B2u  11 B3u  12 Ag   12 B3u   2 Au                 
  1.711   1.834   1.861   1.979   2.298   2.559   2.620   2.662
  8 B1g  13 B3u  13 Ag    9 B1g  14 Ag    7 B1u  15 Ag    7 B2g                
  2.709   2.766   2.777   2.830   2.863   2.915   3.068   3.101
 10 B2u   8 B1u  11 B2u  14 B3u  10 B1g   3 B3g  11 B1g   9 B1u                
  3.105   3.134   3.152   3.152   3.184   3.258   3.316   3.340
  4 B3g  12 B2u  16 Ag    3 Au   17 Ag    8 B2g  15 B3u  13 B2u                
  3.413   3.426   3.438   3.474   3.501   3.550   3.597   3.641
  9 B2g   4 Au   16 B3u  17 B3u  12 B1g  10 B1u  18 Ag    5 B3g                
  3.743   3.814   3.898   3.957   3.976   3.980   4.014   4.034
 14 B2u  13 B1g  18 B3u  14 B1g   5 Au   10 B2g  15 B2u  19 Ag                 
  4.060   4.187   4.192   4.202   4.210   4.331   4.351   4.488
 11 B1u  19 B3u  15 B1g   6 B3g  20 Ag   12 B1u  11 B2g  16 B2u                
  4.534   4.606   4.682   4.763   4.813   4.937   4.975   5.057
 20 B3u   6 Au   21 Ag   21 B3u  12 B2g  13 B1u  22 Ag   16 B1g                
  5.152   5.216   5.306   5.306   5.426   5.470   5.542   5.563
 17 B2u   7 B3g  22 B3u  23 Ag    7 Au   17 B1g  13 B2g  24 Ag                 
  5.669   6.003   6.102   6.302   6.590   6.874  12.058  14.805
 18 B2u  23 B3u  18 B1g  19 B2u  24 B3u  19 B1g  25 Ag   25 B3u                
 
 Beta MOs, Restricted
 -- Occupied --                  
-11.228 -11.226  -1.040  -0.781  -0.661  -0.568  -0.516  -0.377
  1 Ag    1 B3u   2 Ag    2 B3u   1 B2u   3 Ag    1 B1g   1 B1u                
 -- Virtual --                   
  0.051   0.052   0.059   0.072   0.073   0.086   0.145   0.151
  3 B3u   2 B2u   2 B1u   1 B2g   2 B1g   4 Ag    2 B2g   5 Ag                 
  0.196   0.201   0.224   0.225   0.229   0.295   0.302   0.306
  4 B3u   3 B2u   3 B1g   6 Ag    3 B1u   5 B3u   3 B2g   4 B2u                
  0.448   0.453   0.456   0.610   0.622   0.641   0.650   0.650
  6 B3u   7 Ag    4 B1g   8 Ag    5 B2u   6 B2u   7 B3u   9 Ag                 
  0.666   0.674   0.713   0.755   0.777   0.828   0.844   0.903
  1 B3g   8 B3u   4 B1u   5 B1g   4 B2g   1 Au    9 B3u   5 B1u                
  0.970   1.007   1.034   1.056   1.188   1.202   1.254   1.351
  6 B1g  10 Ag    7 B1g   7 B2u   6 B1u   5 B2g   2 B3g  11 Ag                 
  1.356   1.399   1.467   1.482   1.498   1.534   1.631   1.635
 10 B3u   6 B2g   8 B2u   9 B2u  11 B3u  12 Ag   12 B3u   2 Au                 
  1.711   1.834   1.861   1.979   2.298   2.559   2.620   2.662
  8 B1g  13 B3u  13 Ag    9 B1g  14 Ag    7 B1u  15 Ag    7 B2g                
  2.709   2.766   2.777   2.830   2.863   2.915   3.068   3.101
 10 B2u   8 B1u  11 B2u  14 B3u  10 B1g   3 B3g  11 B1g   9 B1u                
  3.105   3.134   3.152   3.152   3.184   3.258   3.316   3.340
  4 B3g  12 B2u  16 Ag    3 Au   17 Ag    8 B2g  15 B3u  13 B2u                
  3.413   3.426   3.438   3.474   3.501   3.550   3.597   3.641
  9 B2g   4 Au   16 B3u  17 B3u  12 B1g  10 B1u  18 Ag    5 B3g                
  3.743   3.814   3.898   3.957   3.976   3.980   4.014   4.034
 14 B2u  13 B1g  18 B3u  14 B1g   5 Au   10 B2g  15 B2u  19 Ag                 
  4.060   4.187   4.192   4.202   4.210   4.331   4.351   4.488
 11 B1u  19 B3u  15 B1g   6 B3g  20 Ag   12 B1u  11 B2g  16 B2u                
  4.534   4.606   4.682   4.763   4.813   4.937   4.975   5.057
 20 B3u   6 Au   21 Ag   21 B3u  12 B2g  13 B1u  22 Ag   16 B1g                
  5.152   5.216   5.306   5.306   5.426   5.470   5.542   5.563
 17 B2u   7 B3g  22 B3u  23 Ag    7 Au   17 B1g  13 B2g  24 Ag                 
  5.669   6.003   6.102   6.302   6.590   6.874  12.058  14.805
 18 B2u  23 B3u  18 B1g  19 B2u  24 B3u  19 B1g  25 Ag   25 B3u                
 --------------------------------------------------------------
 
          Ground-State Mulliken Net Atomic Charges

     Atom                 Charge (a.u.)
  ----------------------------------------
      1 C                    -0.266195
      2 C                    -0.266195
      3 H                     0.133084
      4 H                     0.133133
      5 H                     0.133112
      6 H                     0.133062
  ----------------------------------------
  Sum of atomic charges =     0.000000

 -----------------------------------------------------------------
                    Cartesian Multipole Moments
 -----------------------------------------------------------------
    Charge (ESU x 10^10)
                 0.0000
    Dipole Moment (Debye)
         X       0.0000      Y      -0.0000      Z      -0.0000
       Tot       0.0000
    Quadrupole Moments (Debye-Ang)
        XX     -12.8618     XY       0.0000     YY     -11.9336
        XZ       0.0000     YZ      -0.0000     ZZ     -16.0987
    Octopole Moments (Debye-Ang^2)
       XXX       0.0000    XXY      -0.0000    XYY       0.0000
       YYY      -0.0000    XXZ      -0.0000    XYZ      -0.0000
       YYZ      -0.0000    XZZ       0.0000    YZZ      -0.0000
       ZZZ      -0.0000
    Hexadecapole Moments (Debye-Ang^3)
      XXXX     -67.9946   XXXY       0.0000   XXYY     -13.1003
      XYYY       0.0000   YYYY     -26.7518   XXXZ       0.0000
      XXYZ      -0.0000   XYYZ       0.0000   YYYZ      -0.0000
      XXZZ     -15.4222   XYZZ       0.0000   YYZZ      -8.9490
      XZZZ       0.0000   YZZZ      -0.0000   ZZZZ     -21.1821
 -----------------------------------------------------------------
 Total job time:  104.38s(wall), 148.22s(cpu) 
 Fri Feb 25 18:09:07 2022

        *************************************************************
        *                                                           *
        *  Thank you very much for using Q-Chem.  Have a nice day.  *
        *                                                           *
        *************************************************************


