/src/tsommerfeld/qchem/exe/qcprog.exe .input2.121212.19477.qcin.1 /src/jdavis/qchem.scratch/qchem19477/

                  Welcome to Q-Chem
     A Quantum Leap Into The Future Of Chemistry


 Q-Chem 5.4 (devel), Q-Chem, Inc., Pleasanton, CA (2021)

 E. Epifanovsky,  A. T. B. Gilbert,  Xintian Feng,  Joonho Lee,  Yuezhi Mao,  
 N. Mardirossian,  P. Pokhilko,  A. White,  M. Wormit,  M. P. Coons,  
 A. L. Dempwolff,  Zhengting Gan,  D. Hait,  P. R. Horn,  L. D. Jacobson,  
 I. Kaliman,  J. Kussmann,  A. W. Lange,  Ka Un Lao,  D. S. Levine,  Jie Liu,  
 S. C. McKenzie,  A. F. Morrison,  K. Nanda,  F. Plasser,  D. R. Rehn,  
 M. L. Vidal,  Zhi-Qiang You,  Ying Zhu,  B. Alam,  B. Albrecht,  
 A. Aldossary,  E. Alguire,  J. H. Andersen,  D. Barton,  K. Begam,  A. Behn,  
 Y. A. Bernard,  E. J. Berquist,  H. Burton,  A. Carreras,  K. Carter-Fenk,  
 R. Chakraborty,  A. D. Chien,  K. D. Closser,  V. Cofer-Shabica,  
 S. Dasgupta,  Jia Deng,  M. de Wergifosse,  M. Diedenhofen,  Hainam Do,  
 S. Ehlert,  Po-Tung Fang,  S. Fatehi,  Qingguo Feng,  T. Friedhoff,  
 J. Gayvert,  Qinghui Ge,  G. Gidofalvi,  M. Goldey,  J. Gomes,  
 C. Gonzalez-Espinoza,  S. Gulania,  A. Gunina,  M. W. D. Hanson-Heine,  
 P. H. P. Harbach,  A. W. Hauser,  M. F. Herbst,  M. Hernandez Vera,  
 M. Hodecker,  Z. C. Holden,  S. Houck,  Xunkun Huang,  Kerwin Hui,  
 B. C. Huynh,  M. Ivanov,  Hyunjun Ji,  Hanjie Jiang,  B. Kaduk,  S. Kaehler,  
 K. Khistyaev,  Jaehoon Kim,  P. Klunzinger,  Z. Koczor-Benda,  
 Joong Hoon Koh,  D. Kosenkov,  L. Koulias,  T. Kowalczyk,  C. M. Krauter,  
 K. Kue,  A. Kunitsa,  T. Kus,  A. Landau,  K. V. Lawler,  D. Lefrancois,  
 S. Lehtola,  Rain Li,  Yi-Pei Li,  Jiashu Liang,  M. Liebenthal,  
 Hung-Hsuan Lin,  You-Sheng Lin,  Fenglai Liu,  Kuan-Yu Liu,  
 M. Loipersberger,  A. Luenser,  A. Manjanath,  P. Manohar,  E. Mansoor,  
 S. F. Manzer,  Shan-Ping Mao,  A. V. Marenich,  T. Markovich,  S. Mason,  
 S. A. Maurer,  P. F. McLaughlin,  M. F. S. J. Menger,  J.-M. Mewes,  
 S. A. Mewes,  P. Morgante,  J. W. Mullinax,  K. J. Oosterbaan,  G. Paran,  
 Alexander C. Paul,  Suranjan K. Paul,  F. Pavosevic,  Zheng Pei,  S. Prager,  
 E. I. Proynov,  E. Ramos,  B. Rana,  A. E. Rask,  A. Rettig,  R. M. Richard,  
 F. Rob,  E. Rossomme,  T. Scheele,  M. Scheurer,  M. Schneider,  
 N. Sergueev,  S. M. Sharada,  W. Skomorowski,  D. W. Small,  C. J. Stein,  
 Yu-Chuan Su,  E. J. Sundstrom,  Zhen Tao,  J. Thirman,  T. Tsuchimochi,  
 N. M. Tubman,  S. P. Veccham,  O. Vydrov,  J. Wenzel,  J. Witte,  A. Yamada,  
 Kun Yao,  S. Yeganeh,  S. R. Yost,  A. Zech,  Igor Ying Zhang,  Xing Zhang,  
 Yu Zhang,  D. Zuev,  A. Aspuru-Guzik,  A. T. Bell,  N. A. Besley,  
 K. B. Bravaya,  B. R. Brooks,  D. Casanova,  Jeng-Da Chai,  S. Coriani,  
 C. J. Cramer,  A. E. DePrince, III,  R. A. DiStasio Jr.,  A. Dreuw,  
 B. D. Dunietz,  T. R. Furlani,  W. A. Goddard III,  S. Grimme,  
 S. Hammes-Schiffer,  T. Head-Gordon,  W. J. Hehre,  Chao-Ping Hsu,  
 T.-C. Jagau,  Yousung Jung,  A. Klamt,  Jing Kong,  D. S. Lambrecht,  
 WanZhen Liang,  N. J. Mayhall,  C. W. McCurdy,  J. B. Neaton,  
 C. Ochsenfeld,  J. A. Parkhill,  R. Peverati,  V. A. Rassolov,  Yihan Shao,  
 L. V. Slipchenko,  T. Stauch,  R. P. Steele,  J. E. Subotnik,  
 A. J. W. Thom,  A. Tkatchenko,  D. G. Truhlar,  T. Van Voorhis,  
 T. A. Wesolowski,  K. B. Whaley,  H. L. Woodcock III,  P. M. Zimmerman,  
 S. Faraji,  P. M. W. Gill,  M. Head-Gordon,  J. M. Herbert,  A. I. Krylov

 Additional authors for Version 5.4.1: 
 S. Kotaru,  Shaozhi Li,  Xiangyuan Li,  F. Matz,  A. Molle,  Haisheng Ren,  
 Yingli Su,  Hung-Yi Tsai,  C. Utku,  Fang Wang

 Contributors to earlier versions of Q-Chem not listed above: 
 R. D. Adamson,  B. Austin,  R. Baer,  J. Baker,  G. J. O. Beran,  
 K. Brandhorst,  S. T. Brown,  E. F. C. Byrd,  A. K. Chakraborty,  
 G. K. L. Chan,  Chun-Min Chang,  Yunqing Chen,  C.-L. Cheng,  
 Siu Hung Chien,  D. M. Chipman,  D. L. Crittenden,  H. Dachsel,  
 R. J. Doerksen,  A. D. Dutoi,  R. G. Edgar,  J. Fosso-Tande,  
 L. Fusti-Molnar,  D. Ghosh,  A. Ghysels,  A. Golubeva-Zadorozhnaya,  
 J. Gonthier,  M. S. Gordon,  S. R. Gwaltney,  G. Hawkins,  J. E. Herr,  
 A. Heyden,  S. Hirata,  E. G. Hohenstein,  G. Kedziora,  F. J. Keil,  
 C. Kelley,  Jihan Kim,  R. A. King,  R. Z. Khaliullin,  P. P. Korambath,  
 W. Kurlancheek,  A. Laurent,  A. M. Lee,  M. S. Lee,  S. V. Levchenko,  
 Ching Yeh Lin,  D. Liotard,  E. Livshits,  R. C. Lochan,  I. Lotan,  
 L. A. Martinez-Martinez,  P. E. Maslen,  N. Nair,  D. P. O'Neill,  
 D. Neuhauser,  E. Neuscamman,  C. M. Oana,  R. Olivares-Amaya,  R. Olson,  
 T. M. Perrine,  B. Peters,  P. A. Pieniazek,  A. Prociuk,  Y. M. Rhee,  
 J. Ritchie,  M. A. Rohrdanz,  E. Rosta,  N. J. Russ,  H. F. Schaefer III,  
 M. W. Schmidt,  N. E. Schultz,  S. Sharma,  N. Shenvi,  C. D. Sherrill,  
 A. C. Simmonett,  A. Sodt,  T. Stein,  D. Stuck,  K. S. Thanthiriwatte,  
 V. Vanovschi,  L. Vogt,  Tao Wang,  A. Warshel,  M. A. Watson,  
 C. F. Williams,  Q. Wu,  X. Xu,  Jun Yang,  W. Zhang,  Yan Zhao

 Please cite Q-Chem as follows:
 Y. Shao et al., Mol. Phys. 113, 184-215 (2015)
 DOI: 10.1080/00268976.2014.952696

 Q-Chem 5.4.1 for Intel X86 EM64T Linux

 Parts of Q-Chem use Armadillo 9.900.5 (Nocturnal Misbehaviour).
 http://arma.sourceforge.net/

 Q-Chem begins on Tue Mar  1 23:48:43 2022  

 Host: node01
0

     Scratch files written to /src/jdavis/qchem.scratch/qchem19477//
 Processing $rem in /src/tsommerfeld/qchem/config/preferences:
 Processing $rem in /home/jdavis/.qchemrc:

 Checking the input file for inconsistencies... 	...done.

--------------------------------------------------------------
User input:
--------------------------------------------------------------
$molecule
-1 1
C        -0.6645000000    0.0000000000    3.6357614391
C         0.6645000000    0.0000000000    3.6357614391
H        -1.1590800000    0.0000000000    2.6734124391
H         1.1590800000    0.0000000000    2.6734124391
H        -1.1590800000    0.0000000000    4.5981094391
H         1.1590800000    0.0000000000    4.5981094391
O         0.0000000000    0.0000000000   -6.3644435413
H         0.0000000000    0.0000000000   -7.3299440706
$end
$rem
   METHOD adc(2)
   BASIS gen
   PURECART 11
   EE_STATES [10,0,0,0]
   scf_convergence 8
   ADC_DAVIDSON_MAXITER 120
   ADC_DAVIDSON_MAXSUBSPACE 200
   adc_nguess_singles 100
   THRESH 14
   S2THRESH 14
   adc_davidson_conv 5
   adc_davidson_thresh 14
   THREADS 10
   MEM_TOTAL 95000
   STATE_ANALYSIS TRUE
$end
$basis
C 1
S   9   1.00
      6.665000D+03           6.920000D-04
      1.000000D+03           5.329000D-03
      2.280000D+02           2.707700D-02
      6.471000D+01           1.017180D-01
      2.106000D+01           2.747400D-01
      7.495000D+00           4.485640D-01
      2.797000D+00           2.850740D-01
      5.215000D-01           1.520400D-02
      1.596000D-01          -3.191000D-03
S   9   1.00
      6.665000D+03          -1.460000D-04
      1.000000D+03          -1.154000D-03
      2.280000D+02          -5.725000D-03
      6.471000D+01          -2.331200D-02
      2.106000D+01          -6.395500D-02
      7.495000D+00          -1.499810D-01
      2.797000D+00          -1.272620D-01
      5.215000D-01           5.445290D-01
      1.596000D-01           5.804960D-01
S   1   1.00
      1.596000D-01           1.000000D+00
S   1   1.00
      0.0469000              1.0000000
P   4   1.00
      9.439000D+00           3.810900D-02
      2.002000D+00           2.094800D-01
      5.456000D-01           5.085570D-01
      1.517000D-01           4.688420D-01
P   1   1.00
      1.517000D-01           1.000000D+00
P   1   1.00
      0.0919394      1.0000000
P   1   1.00
      0.0459697      1.0000000
D   1   1.00
      5.500000D-01           1.0000000
****
C 2
S   9   1.00
      6.665000D+03           6.920000D-04
      1.000000D+03           5.329000D-03
      2.280000D+02           2.707700D-02
      6.471000D+01           1.017180D-01
      2.106000D+01           2.747400D-01
      7.495000D+00           4.485640D-01
      2.797000D+00           2.850740D-01
      5.215000D-01           1.520400D-02
      1.596000D-01          -3.191000D-03
S   9   1.00
      6.665000D+03          -1.460000D-04
      1.000000D+03          -1.154000D-03
      2.280000D+02          -5.725000D-03
      6.471000D+01          -2.331200D-02
      2.106000D+01          -6.395500D-02
      7.495000D+00          -1.499810D-01
      2.797000D+00          -1.272620D-01
      5.215000D-01           5.445290D-01
      1.596000D-01           5.804960D-01
S   1   1.00
      1.596000D-01           1.000000D+00
S   1   1.00
      0.0469000              1.0000000
P   4   1.00
      9.439000D+00           3.810900D-02
      2.002000D+00           2.094800D-01
      5.456000D-01           5.085570D-01
      1.517000D-01           4.688420D-01
P   1   1.00
      1.517000D-01           1.000000D+00
P   1   1.00
      0.0919394      1.0000000
P   1   1.00
      0.0459697      1.0000000
D   1   1.00
      5.500000D-01           1.0000000
****
H 3
cc-pVDZ
****
H 4
cc-pVDZ
****
H 5
cc-pVDZ
****
H 6
cc-pVDZ
****
O 7
aug-cc-pVDZ
****
H 8
cc-pVDZ
****
$end
--------------------------------------------------------------
 ----------------------------------------------------------------
             Standard Nuclear Orientation (Angstroms)
    I     Atom           X                Y                Z
 ----------------------------------------------------------------
    1      C      -0.6645000000    -0.0000000000     3.6386938941
    2      C       0.6645000000     0.0000000000     3.6386938941
    3      H      -1.1590800000    -0.0000000000     2.6763448941
    4      H       1.1590800000     0.0000000000     2.6763448941
    5      H      -1.1590800000    -0.0000000000     4.6010418941
    6      H       1.1590800000     0.0000000000     4.6010418941
    7      O       0.0000000000    -0.0000000000    -6.3615110863
    8      H       0.0000000000    -0.0000000000    -7.3270116156
 ----------------------------------------------------------------
 Molecular Point Group                 C2v   NOp =  4
 Largest Abelian Subgroup              C2v   NOp =  4
 Nuclear Repulsion Energy =          45.51143008 hartrees
 There are       13 alpha and       13 beta electrons
 Requested basis set is non-standard
 There are 42 shells and 90 basis functions
 Total memory of 95000 MB is distributed as follows: 
   MEM_STATIC is set to 192 MB
   QALLOC/CCMAN JOB total memory use is  94808 MB
 Warning: actual memory use might exceed 95000 MB

 Total QAlloc Memory Limit  95000 MB
 Mega-Array Size       188 MB
 MEM_STATIC part       192 MB

                       Distance Matrix (Angstroms)
             C (  1)   C (  2)   H (  3)   H (  4)   H (  5)   H (  6)
   C (  2)  1.329000
   H (  3)  1.082000  2.061931
   H (  4)  2.061931  1.082000  2.318160
   H (  5)  1.082000  2.061931  1.924697  3.013026
   H (  6)  2.061931  1.082000  3.013026  1.924697  2.318160
   O (  7) 10.022258 10.022258  9.111877  9.111877 11.023658 11.023658
   H (  8) 10.985821 10.985821 10.070283 10.070283 11.984237 11.984237
             O (  7)
   H (  8)  0.965501
 
 A cutoff of  1.0D-14 yielded    655 shell pairs
 There are      2959 function pairs (      3197 Cartesian)
 Smallest overlap matrix eigenvalue = 1.90E-04

 Scale SEOQF with 1.000000e-01/1.000000e-01/1.000000e-02

 Standard Electronic Orientation quadrupole field applied
 Nucleus-field energy     =    -0.0000000060 hartrees
 ================ Generating on-the-fly SAD Guess ================
Attempting to make child job directory: /src/jdavis/qchem.scratch/qchem19477//Frg1/
Attempting to make child job directory: /src/jdavis/qchem.scratch/qchem19477//Frg2/
Attempting to make child job directory: /src/jdavis/qchem.scratch/qchem19477//Frg3/
Creating input file /src/jdavis/qchem.scratch/qchem19477/Frg1.input
using default PutDataFrgm: nothing
calling putenv with: QCSCRATCH=/src/jdavis/qchem.scratch/qchem19477/ 
Spawning Job For Fragment 0
Done Job For Fragment 0
calling putenv with: QCSCRATCH=/src/jdavis/qchem.scratch 
calling putenv with: QCTHREADS=1 
Creating input file /src/jdavis/qchem.scratch/qchem19477/Frg2.input
using default PutDataFrgm: nothing
calling putenv with: QCSCRATCH=/src/jdavis/qchem.scratch/qchem19477/ 
Spawning Job For Fragment 1
Done Job For Fragment 1
calling putenv with: QCSCRATCH=/src/jdavis/qchem.scratch 
calling putenv with: QCTHREADS=1 
Creating input file /src/jdavis/qchem.scratch/qchem19477/Frg3.input
using default PutDataFrgm: nothing
calling putenv with: QCSCRATCH=/src/jdavis/qchem.scratch/qchem19477/ 
Spawning Job For Fragment 2
Done Job For Fragment 2
calling putenv with: QCSCRATCH=/src/jdavis/qchem.scratch 
calling putenv with: QCTHREADS=1 
 Time for running child jobs:  CPU 1.77 s  wall 80.42 s
 ============= Method Specific SAD Guess Constructed =============
 Guess from on-the-fly superposition of atomic densities
 Warning: Energy on first SCF cycle will be non-variational
 A restricted Hartree-Fock SCF calculation will be
 performed using Pulay DIIS extrapolation
 SCF converges when DIIS error is below 1.0E-08
 using 10 threads for integral computing
 -------------------------------------------------------
 OpenMP Integral computing Module                
 Release: version 1.0, May 2013, Q-Chem Inc. Pittsburgh 
 -------------------------------------------------------
 ---------------------------------------
  Cycle       Energy         DIIS Error
 ---------------------------------------
    1    -153.5153318042      5.94E-02
    2    -153.2828456068      1.22E-02
    3    -153.3448291168      1.06E-02
    4    -153.4325430635      6.43E-04
    5    -153.4332807057      1.83E-04
    6    -153.4333282315      3.82E-05
    7    -153.4333308572      9.16E-06
    8    -153.4333311353      2.60E-06
    9    -153.4333311568      4.48E-07
   10    -153.4333311573      5.50E-08
   11    -153.4333311574      9.14E-09 Convergence criterion met
 ---------------------------------------
 SCF time:  CPU 11.34 s  wall 1.14 s
 SCF   energy in the final basis set = -153.43333116
 Total energy in the final basis set = -153.43333116
================================================================================
|                                                                              |
|                                 A D C  M A N                                 |
|                                                                              |
 ------------------------------------------------------------------------------ 
|                                                                              |
| Components:                                                                  |
|                                                                              |
| - libvmm - 1.3-trunk                                                         |
|   Authors:                                                                   |
|   Evgeny Epifanovsky, Ilya Kaliman                                           |
|                                                                              |
| - libtensor - 2.5-trunk                                                      |
|   Authors:                                                                   |
|   Evgeny Epifanovsky, Michael Wormit, Dmitry Zuev, Sam Manzer,               |
|   Ilya Kaliman                                                               |
|                                                                              |
| - libwfa - 1.1-trunk                                                         |
|   Authors:                                                                   |
|   Felix Plasser, Stefanie Mewes (Baeppler), Benjamin Thomitzni,              |
|   Michael Wormit, Feng Chen, Anna I. Krylov, Pavel Pokhilko                  |
|                                                                              |
| - libadc - 1.1-trunk                                                         |
|   Authors:                                                                   |
|   Michael Wormit, Adrian L. Dempwolff, Philipp H. P. Harbach,                |
|   Caroline Krauter, Dirk Rehn, Matthias Schneider, Jan Wenzel                |
|                                                                              |
| - adcman - 2.6-trunk                                                         |
|   Authors:                                                                   |
|   Michael Wormit, Adrian L. Dempwolff, Philipp H. P. Harbach,                |
|   Caroline Krauter, Daniel Lefrancois, Jan-Michael Mewes, Dirk Rehn,         |
|   Matthias Schneider, Jan Wenzel, Andreas Dreuw                              |
|                                                                              |
| Authors of earlier versions of ADCMAN:                                       |
| Andreas Dreuw, Jan Hendrik Starcke, Dirk Rehn, Michael Wormit                |
|                                                                              |
================================================================================

 
 Alpha MOs, Restricted
 -- Occupied --                  
-20.198 -11.183 -11.181  -0.988  -0.905  -0.728  -0.606  -0.513
  1 A1    2 A1    1 B1    3 A1    4 A1    2 B1    5 A1    6 A1                 
 -0.461  -0.323  -0.252  -0.108  -0.108
  3 B1    1 B2    7 A1    4 B1    2 B2                                         
 -- Virtual --                   
  0.136   0.142   0.154   0.156   0.160   0.186   0.202   0.251
  5 B1    8 A1    9 A1    1 A2    3 B2    6 B1   10 A1    2 A2                 
  0.270   0.316   0.378   0.380   0.393   0.411   0.434   0.437
  7 B1   11 A1   12 A1   13 A1    8 B1    9 B1   14 A1   15 A1                 
  0.443   0.443   0.452   0.455   0.473   0.538   0.585   0.600
 10 B1    4 B2    5 B2   16 A1   11 B1    3 A2   17 A1   12 B1                 
  0.673   0.893   0.903   0.983   1.044   1.085   1.147   1.168
 13 B1   18 A1   19 A1   14 B1   20 A1   15 B1   21 A1    6 B2                 
  1.171   1.174   1.203   1.237   1.269   1.269   1.287   1.323
 22 A1   23 A1   16 B1    7 B2   17 B1    8 B2    4 A2    5 A2                 
  1.323   1.339   1.352   1.386   1.538   1.545   1.679   1.729
 24 A1    6 A2    9 B2   18 B1   19 B1   25 A1   26 A1   20 B1                 
  1.729   1.793   1.801   1.934   1.973   1.999   2.024   2.071
 10 B2   27 A1   21 B1    7 A2   28 A1   11 B2   22 B1   12 B2                 
  2.142   2.157   2.238   2.379   2.379   2.388   2.466   2.533
 29 A1   30 A1    8 A2   23 B1   13 B2   24 B1    9 A2   31 A1                 
  2.538   2.612   2.636   2.918   2.921   3.037   3.339   3.404
 32 A1   25 B1   26 B1   33 A1   34 A1   35 A1   27 B1   28 B1                 
  3.930   3.930   3.959   3.959   4.406
 29 B1   14 B2   10 A2   36 A1   37 A1                                         
 
 Beta MOs, Restricted
 -- Occupied --                  
-20.198 -11.183 -11.181  -0.988  -0.905  -0.728  -0.606  -0.513
  1 A1    2 A1    1 B1    3 A1    4 A1    2 B1    5 A1    6 A1                 
 -0.461  -0.323  -0.252  -0.108  -0.108
  3 B1    1 B2    7 A1    4 B1    2 B2                                         
 -- Virtual --                   
  0.136   0.142   0.154   0.156   0.160   0.186   0.202   0.251
  5 B1    8 A1    9 A1    1 A2    3 B2    6 B1   10 A1    2 A2                 
  0.270   0.316   0.378   0.380   0.393   0.411   0.434   0.437
  7 B1   11 A1   12 A1   13 A1    8 B1    9 B1   14 A1   15 A1                 
  0.443   0.443   0.452   0.455   0.473   0.538   0.585   0.600
 10 B1    4 B2    5 B2   16 A1   11 B1    3 A2   17 A1   12 B1                 
  0.673   0.893   0.903   0.983   1.044   1.085   1.147   1.168
 13 B1   18 A1   19 A1   14 B1   20 A1   15 B1   21 A1    6 B2                 
  1.171   1.174   1.203   1.237   1.269   1.269   1.287   1.323
 22 A1   23 A1   16 B1    7 B2   17 B1    8 B2    4 A2    5 A2                 
  1.323   1.339   1.352   1.386   1.538   1.545   1.679   1.729
 24 A1    6 A2    9 B2   18 B1   19 B1   25 A1   26 A1   20 B1                 
  1.729   1.793   1.801   1.934   1.973   1.999   2.024   2.071
 10 B2   27 A1   21 B1    7 A2   28 A1   11 B2   22 B1   12 B2                 
  2.142   2.157   2.238   2.379   2.379   2.388   2.466   2.533
 29 A1   30 A1    8 A2   23 B1   13 B2   24 B1    9 A2   31 A1                 
  2.538   2.612   2.636   2.918   2.921   3.037   3.339   3.404
 32 A1   25 B1   26 B1   33 A1   34 A1   35 A1   27 B1   28 B1                 
  3.930   3.930   3.959   3.959   4.406
 29 B1   14 B2   10 A2   36 A1   37 A1                                         

--------------------------------------------------------------------------------
                                   HF Summary                                   
--------------------------------------------------------------------------------
  Energy:                                                 -153.4333311574 a.u.
  Dip. moment [a.u.]:                  [   0.000000,    0.000000,   11.482606]
  Total dipole [Debye]:                                              29.185878
  <r^2> [a.u.]:                        [  55.236896,   19.537388, 2265.797131]
  Total <r^2> [a.u.]:                                              2340.571415
--------------------------------------------------------------------------------

--------------------------------------------------------------------------------
                                 MP(2) Summary                                  
--------------------------------------------------------------------------------
  MP energy contribution:                                   -0.5256970011 a.u.
  Total energy:                                           -153.9590281585 a.u.
  Dip. moment [a.u.]:                  [   0.000000,    0.000000,   11.521338]
  Total dipole [Debye]:                                              29.284327
  <r^2> [a.u.]:                        [  56.189769,   20.234324, 2267.439602]
  Total <r^2> [a.u.]:                                              2343.863695

  Density matrix analysis:
  ------------------------
  NOs
    Occupation of frontier NOs:
       0.0447   1.9370
    Number of electrons: 26.000000
    Number of unpaired electrons: n_u =  0.71368, n_u,nl =  0.08536
    NO participation ratio (PR_NO): 22.915432
  
  
  Mulliken Population Analysis
  Atom      Charge (e)              h+              e-           Del q
  --------------------------------------------------------------------
   1 C       -0.240902        0.086922       -0.102764       -0.015842
   2 C       -0.240902        0.086922       -0.102764       -0.015842
   3 H        0.131649        0.018213       -0.010307        0.007906
   4 H        0.131649        0.018213       -0.010307        0.007906
   5 H        0.109252        0.018542       -0.010606        0.007936
   6 H        0.109252        0.018542       -0.010606        0.007936
   7 O       -1.023561        0.281907       -0.269749        0.012158
   8 H        0.023561        0.017758       -0.029916       -0.012158
  --------------------------------------------------------------------
  Sum:       -1.000000        0.547020       -0.547020        0.000000
  
  Multipole moment analysis of the density matrix
    Molecular charge:                      -1.000000
    Number of electrons:                   26.000000
      Center of electronic charge [Ang]: [ -0.000000,  -0.000000,  -0.234493]
    Total nuclear charge:                  25.000000
      Center of nuclear charge [Ang]:    [ -0.000000,  -0.000000,   0.000000]
    Dipole moment [D]:                     29.284318
      Cartesian components [D]:          [ -0.000000,   0.000000,  29.284318]
    RMS size of the density [Ang]:         5.018884
      Cartesian components [Ang]:        [  0.777935,   0.466830,   4.936201]
  
  Exciton analysis of the difference density matrix
    <r_h> [Ang]:                  [ -0.000000,  -0.000000,  -1.851418]
    <r_e> [Ang]:                  [  0.000000,  -0.000000,  -1.888888]
    |<r_e - r_h>| [Ang]:            0.037469
    Hole size [Ang]:                5.150309
      Cartesian components [Ang]: [  0.819278,   0.711340,   5.034725]
    Electron size [Ang]:            5.298199
      Cartesian components [Ang]: [  1.076572,   0.928859,   5.103834]
--------------------------------------------------------------------------------
  Starting Davidson for singlet states of irrep A1 ... 
--------------------------------------------------------------------------------
   It NVec Conv  Avg. Norm  Max. Norm  Conv. states           Remark
--------------------------------------------------------------------------------
       100    0  1.581e-01  5.264e-01  0.2637 n n n n n n n n Guess.
    1  110    0  1.767e-02  7.002e-02  0.0802 n n n n n n n n 
    2  120    0  5.061e-03  4.349e-02  0.0786 n n n n n n n n 
    3  130    0  2.105e-03  1.982e-02  0.0785 n n n n n n n n 
    4  140    0  6.295e-03  6.275e-02  0.0785 n n n n n n n n 
    5  150    3  3.249e-03  3.247e-02  0.0785 n y y n n n y n 
    6  160    6  2.928e-04  2.914e-03  0.0785 y y y n y y y n 
    7  170    8  4.295e-05  4.198e-04  0.0785 y y y y y y y n 
    8  180    8  8.956e-06  8.607e-05  0.0785 y y y y y y y n 
    9  190    9  1.283e-06  1.238e-05  0.0785 y y y y y y y y 
   10  200   10  1.417e-07  1.350e-06  0.0785 y y y y y y y y Converged.
--------------------------------------------------------------------------------
  Davidson Summary: 
 ------------------------------------------------------------
  State  0: excitation energy =   0.0785 a.u.   (converged)
  State  1: excitation energy =   0.1027 a.u.   (converged)
  State  2: excitation energy =   0.1276 a.u.   (converged)
  State  3: excitation energy =   0.2109 a.u.   (converged)
  State  4: excitation energy =   0.2380 a.u.   (converged)
  State  5: excitation energy =   0.2436 a.u.   (converged)
  State  6: excitation energy =   0.2462 a.u.   (converged)
  State  7: excitation energy =   0.2812 a.u.   (converged)
  State  8: excitation energy =   0.2931 a.u.   (converged)
  State  9: excitation energy =   0.3183 a.u.   (converged)
 ------------------------------------------------------------


--------------------------------------------------------------------------------
                   State-averaged natural transition orbitals
--------------------------------------------------------------------------------
--------------------------------------------------------------------------------

--------------------------------------------------------------------------------
                             Excited State Summary
--------------------------------------------------------------------------------
--------------------------------------------------------------------------------

  Excited state 1 (singlet, A1)                                    [converged]
  ----------------------------------------------------------------------------
  Term symbol:  2 (1) A1                                    R^2 =  8.47285e-11

  Total energy:                                           -153.8804911954 a.u.
  Excitation energy:                                               2.137099 eV

  Osc. strength:                                                      0.000000
  Trans. dip. moment [a.u.]:           [  -0.000000,   -0.000000,   -0.001109]
  <i|r^2|0> [a.u.]:                    [   0.003974,    0.001205,   -0.021292]

  Dip. moment [a.u.]:                  [  -0.000000,    0.000000,   -7.694055]
  Total dipole [Debye]:                                              19.556341
  <r^2> [a.u.]:                        [  88.405407,   25.856555, 2173.166324]
  Total <r^2> [a.u.]:                                              2287.428285

  V1^2 = 0.8513, V2^2 = 0.1487

  Important amplitudes:
      occ i      occ j       vir a       vir b          v   
    ---------------------------------------------------------
     4 (B1) A               5 (B1) A                  0.6475
     4 (B1) A               6 (B1) A                  0.0740
    ---------------------------------------------------------

  Density matrix analysis:
  ------------------------
  NOs
    Occupation of frontier NOs:
       0.9565   0.9940
    Number of electrons: 26.000000
    Number of unpaired electrons: n_u =  2.76401, n_u,nl =  2.12370
    NO participation ratio (PR_NO):  3.944564
  
  
  Mulliken Population Analysis
  Atom      Charge (e)              h+              e-           Del q
  --------------------------------------------------------------------
   1 C       -0.692360        0.016753       -0.468210       -0.451458
   2 C       -0.692360        0.016753       -0.468210       -0.451458
   3 H        0.102716        0.001249       -0.030182       -0.028934
   4 H        0.102716        0.001249       -0.030182       -0.028934
   5 H        0.089644        0.006901       -0.026510       -0.019609
   6 H        0.089644        0.006901       -0.026510       -0.019609
   7 O       -0.138836        1.418133       -0.533408        0.884724
   8 H        0.138836        0.140656       -0.025381        0.115275
  --------------------------------------------------------------------
  Sum:       -1.000000        1.608594       -1.608594        0.000000
  
  Multipole moment analysis of the density matrix
    Molecular charge:                      -1.000000
    Number of electrons:                   26.000000
      Center of electronic charge [Ang]: [  0.000000,  -0.000000,   0.156597]
    Total nuclear charge:                  25.000000
      Center of nuclear charge [Ang]:    [ -0.000000,  -0.000000,   0.000000]
    Dipole moment [D]:                     19.556335
      Cartesian components [D]:          [ -0.000000,   0.000000, -19.556335]
    RMS size of the density [Ang]:         4.961031
      Cartesian components [Ang]:        [  0.975784,   0.527715,   4.835410]
  
  Exciton analysis of the difference density matrix
    <r_h> [Ang]:                  [  0.000000,  -0.000000,  -6.127572]
    <r_e> [Ang]:                  [  0.000000,  -0.000000,   0.193694]
    |<r_e - r_h>| [Ang]:            6.321266
    Hole size [Ang]:                2.269678
      Cartesian components [Ang]: [  0.920329,   0.803845,   1.912659]
    Electron size [Ang]:            5.730325
      Cartesian components [Ang]: [  2.540707,   1.274716,   4.975593]

  Transition density matrix analysis:
  -----------------------------------
  
  CT numbers (Mulliken)
    omega =     0.8367
    <Phe> =    -0.0000
  
  Exciton analysis of the transition density matrix
    Trans. dipole moment [D]:             0.001409
      Cartesian components [D]:         [ -0.000000,  -0.000000,  -0.001409]
    <r_h> [Ang]:                        [ -0.000000,   0.000000,  -6.397338]
    <r_e> [Ang]:                        [  0.000000,  -0.000000,   3.714091]
    |<r_e - r_h>| [Ang]:                 10.111429
    Hole size [Ang]:                      1.091905
      Cartesian components [Ang]:       [  0.841981,   0.486114,   0.497010]
    Electron size [Ang]:                  3.817414
      Cartesian components [Ang]:       [  3.165250,   1.474840,   1.542301]
    RMS electron-hole separation [Ang]:  10.863046
      Cartesian components [Ang]:       [  3.274825,   1.552877,  10.240599]
    Covariance(r_h, r_e) [Ang^2]:         0.000070
    Correlation coefficient:              0.000017
    Center-of-mass size [Ang]:            1.985261
      Cartesian components [Ang]:       [  1.637910,   0.776449,   0.809716]

  Decomposition into state-averaged NTOs
    H- 0 -> L+ 5: -0.4814 ( 46.4%)
    H- 0 -> L+ 3:  0.3430 ( 23.5%)
    H- 0 -> L+ 1: -0.2236 ( 10.0%)
    H- 0 -> L+ 9:  0.1375 (  3.8%)
                   omega =  83.7%
  ----------------------------------------------------------------------------


  Excited state 2 (singlet, A1)                                    [converged]
  ----------------------------------------------------------------------------
  Term symbol:  3 (1) A1                                    R^2 =  4.70599e-11

  Total energy:                                           -153.8563214805 a.u.
  Excitation energy:                                               2.794791 eV

  Osc. strength:                                                      0.000000
  Trans. dip. moment [a.u.]:           [   0.000000,    0.000000,   -0.001881]
  <i|r^2|0> [a.u.]:                    [   0.001170,    0.004118,   -0.012689]

  Dip. moment [a.u.]:                  [   0.000000,    0.000000,   -7.551776]
  Total dipole [Debye]:                                              19.194704
  <r^2> [a.u.]:                        [  63.521671,   43.107109, 2171.528917]
  Total <r^2> [a.u.]:                                              2278.157696

  V1^2 = 0.8526, V2^2 = 0.1474

  Important amplitudes:
      occ i      occ j       vir a       vir b          v   
    ---------------------------------------------------------
     2 (B2) A               3 (B2) A                 -0.6526
     2 (B2) A   2 (B2) B    3 (B2) A    4 (B2) B      0.0664
    ---------------------------------------------------------

  Density matrix analysis:
  ------------------------
  NOs
    Occupation of frontier NOs:
       0.9565   0.9966
    Number of electrons: 26.000000
    Number of unpaired electrons: n_u =  2.75771, n_u,nl =  2.12207
    NO participation ratio (PR_NO):  3.916938
  
  
  Mulliken Population Analysis
  Atom      Charge (e)              h+              e-           Del q
  --------------------------------------------------------------------
   1 C       -0.704948        0.028983       -0.493029       -0.464046
   2 C       -0.704948        0.028983       -0.493029       -0.464046
   3 H        0.108415       -0.001339       -0.021896       -0.023235
   4 H        0.108415       -0.001339       -0.021896       -0.023235
   5 H        0.096533       -0.001480       -0.011240       -0.012719
   6 H        0.096533       -0.001480       -0.011240       -0.012719
   7 O       -0.138928        1.419719       -0.535086        0.884633
   8 H        0.138928        0.140778       -0.025411        0.115367
  --------------------------------------------------------------------
  Sum:       -1.000000        1.612826       -1.612826        0.000000
  
  Multipole moment analysis of the density matrix
    Molecular charge:                      -1.000000
    Number of electrons:                   26.000000
      Center of electronic charge [Ang]: [ -0.000000,  -0.000000,   0.153701]
    Total nuclear charge:                  25.000000
      Center of nuclear charge [Ang]:    [ -0.000000,  -0.000000,   0.000000]
    Dipole moment [D]:                     19.194698
      Cartesian components [D]:          [  0.000000,   0.000000, -19.194698]
    RMS size of the density [Ang]:         4.951048
      Cartesian components [Ang]:        [  0.827133,   0.681379,   4.833679]
  
  Exciton analysis of the difference density matrix
    <r_h> [Ang]:                  [  0.000000,  -0.000000,  -6.114992]
    <r_e> [Ang]:                  [ -0.000000,  -0.000000,   0.143004]
    |<r_e - r_h>| [Ang]:            6.257995
    Hole size [Ang]:                2.284136
      Cartesian components [Ang]: [  0.814678,   0.898440,   1.935557]
    Electron size [Ang]:            5.584056
      Cartesian components [Ang]: [  1.391657,   2.185979,   4.946359]

  Transition density matrix analysis:
  -----------------------------------
  
  CT numbers (Mulliken)
    omega =     0.8375
    <Phe> =     0.0001
  
  Exciton analysis of the transition density matrix
    Trans. dipole moment [D]:             0.002391
      Cartesian components [D]:         [  0.000000,   0.000000,  -0.002391]
    <r_h> [Ang]:                        [  0.000000,  -0.000000,  -6.396960]
    <r_e> [Ang]:                        [ -0.000000,  -0.000000,   3.638163]
    |<r_e - r_h>| [Ang]:                 10.035124
    Hole size [Ang]:                      1.093728
      Cartesian components [Ang]:       [  0.486169,   0.842041,   0.500847]
    Electron size [Ang]:                  3.531167
      Cartesian components [Ang]:       [  1.617851,   2.717551,   1.570547]
    RMS electron-hole separation [Ang]:  10.694770
      Cartesian components [Ang]:       [  1.689306,   2.844751,  10.170140]
    Covariance(r_h, r_e) [Ang^2]:        -0.004506
    Correlation coefficient:             -0.001167
    Center-of-mass size [Ang]:            1.847726
      Cartesian components [Ang]:       [  0.844667,   1.422641,   0.822633]

  Decomposition into state-averaged NTOs
    H- 2 -> L+ 4:  0.6471 ( 83.7%)
                   omega =  83.7%
  ----------------------------------------------------------------------------


  Excited state 3 (singlet, A1)                                    [converged]
  ----------------------------------------------------------------------------
  Term symbol:  4 (1) A1                                    R^2 =  1.79157e-10

  Total energy:                                           -153.8313883426 a.u.
  Excitation energy:                                               3.473256 eV

  Osc. strength:                                                      0.000003
  Trans. dip. moment [a.u.]:           [  -0.000000,    0.000000,   -0.005680]
  <i|r^2|0> [a.u.]:                    [   0.014418,    0.003265,   -0.045542]

  Dip. moment [a.u.]:                  [   0.000000,    0.000000,   -7.456124]
  Total dipole [Debye]:                                              18.951581
  <r^2> [a.u.]:                        [  76.479647,   25.455851, 2184.402726]
  Total <r^2> [a.u.]:                                              2286.338224

  V1^2 = 0.8537, V2^2 = 0.1463

  Important amplitudes:
      occ i      occ j       vir a       vir b          v   
    ---------------------------------------------------------
     4 (B1) A               6 (B1) A                  0.6481
     4 (B1) A               5 (B1) A                 -0.0733
    ---------------------------------------------------------

  Density matrix analysis:
  ------------------------
  NOs
    Occupation of frontier NOs:
       0.9566   0.9967
    Number of electrons: 26.000000
    Number of unpaired electrons: n_u =  2.75829, n_u,nl =  2.12180
    NO participation ratio (PR_NO):  3.918160
  
  
  Mulliken Population Analysis
  Atom      Charge (e)              h+              e-           Del q
  --------------------------------------------------------------------
   1 C       -0.673011        0.001894       -0.434004       -0.432109
   2 C       -0.673011        0.001894       -0.434004       -0.432109
   3 H        0.091542        0.002745       -0.042853       -0.040108
   4 H        0.091542        0.002745       -0.042853       -0.040108
   5 H        0.081471        0.010304       -0.038085       -0.027781
   6 H        0.081471        0.010304       -0.038085       -0.027781
   7 O       -0.138568        1.420216       -0.535223        0.884993
   8 H        0.138565        0.140305       -0.025301        0.115004
  --------------------------------------------------------------------
  Sum:       -1.000000        1.590408       -1.590408       -0.000000
  
  Multipole moment analysis of the density matrix
    Molecular charge:                      -1.000000
    Number of electrons:                   26.000000
      Center of electronic charge [Ang]: [ -0.000000,  -0.000000,   0.151754]
    Total nuclear charge:                  25.000000
      Center of nuclear charge [Ang]:    [ -0.000000,  -0.000000,   0.000000]
    Dipole moment [D]:                     18.951575
      Cartesian components [D]:          [  0.000000,   0.000000, -18.951575]
    RMS size of the density [Ang]:         4.959998
      Cartesian components [Ang]:        [  0.907585,   0.523610,   4.848062]
  
  Exciton analysis of the difference density matrix
    <r_h> [Ang]:                  [  0.000000,  -0.000000,  -6.245536]
    <r_e> [Ang]:                  [ -0.000000,  -0.000000,   0.068846]
    |<r_e - r_h>| [Ang]:            6.314382
    Hole size [Ang]:                2.010178
      Cartesian components [Ang]: [  0.910404,   0.806440,   1.600511]
    Electron size [Ang]:            5.737080
      Cartesian components [Ang]: [  2.097938,   1.252884,   5.190668]

  Transition density matrix analysis:
  -----------------------------------
  
  CT numbers (Mulliken)
    omega =     0.8390
    <Phe> =    -0.0000
  
  Exciton analysis of the transition density matrix
    Trans. dipole moment [D]:             0.007219
      Cartesian components [D]:         [  0.000000,   0.000000,  -0.007219]
    <r_h> [Ang]:                        [ -0.000000,   0.000000,  -6.397387]
    <r_e> [Ang]:                        [ -0.000000,  -0.000000,   3.580776]
    |<r_e - r_h>| [Ang]:                  9.978163
    Hole size [Ang]:                      1.091591
      Cartesian components [Ang]:       [  0.841977,   0.486114,   0.496325]
    Electron size [Ang]:                  3.897811
      Cartesian components [Ang]:       [  2.580496,   1.438402,   2.542631]
    RMS electron-hole separation [Ang]:  10.767931
      Cartesian components [Ang]:       [  2.714049,   1.518324,  10.309072]
    Covariance(r_h, r_e) [Ang^2]:        -0.000048
    Correlation coefficient:             -0.000011
    Center-of-mass size [Ang]:            2.023883
      Cartesian components [Ang]:       [  1.357360,   0.759162,   1.295125]

  Decomposition into state-averaged NTOs
    H- 0 -> L+ 1: -0.5443 ( 59.2%)
    H- 0 -> L+ 5:  0.3232 ( 20.9%)
    H- 0 -> L+ 3:  0.1246 (  3.1%)
                   omega =  83.9%
  ----------------------------------------------------------------------------


  Excited state 4 (singlet, A1)                                    [converged]
  ----------------------------------------------------------------------------
  Term symbol:  5 (1) A1                                    R^2 =  2.02269e-09

  Total energy:                                           -153.7480964545 a.u.
  Excitation energy:                                               5.739744 eV

  Osc. strength:                                                      0.000000
  Trans. dip. moment [a.u.]:           [  -0.000000,    0.000000,   -0.000646]
  <i|r^2|0> [a.u.]:                    [   0.002892,    0.000507,   -0.011245]

  Dip. moment [a.u.]:                  [   0.000000,    0.000000,   -7.519403]
  Total dipole [Debye]:                                              19.112418
  <r^2> [a.u.]:                        [  76.612334,   28.353800, 2172.691515]
  Total <r^2> [a.u.]:                                              2277.657649

  V1^2 = 0.8520, V2^2 = 0.1480

  Important amplitudes:
      occ i      occ j       vir a       vir b          v   
    ---------------------------------------------------------
     4 (B1) A               7 (B1) A                 -0.6500
     4 (B1) A   4 (B1) B    7 (B1) A   10 (B1) B     -0.0659
    ---------------------------------------------------------

  Density matrix analysis:
  ------------------------
  NOs
    Occupation of frontier NOs:
       0.9566   0.9946
    Number of electrons: 26.000000
    Number of unpaired electrons: n_u =  2.76251, n_u,nl =  2.12312
    NO participation ratio (PR_NO):  3.938119
  
  
  Mulliken Population Analysis
  Atom      Charge (e)              h+              e-           Del q
  --------------------------------------------------------------------
   1 C       -0.732185        0.016926       -0.508209       -0.491283
   2 C       -0.732185        0.016926       -0.508209       -0.491283
   3 H        0.120772        0.000873       -0.011750       -0.010877
   4 H        0.120772        0.000873       -0.011750       -0.010877
   5 H        0.111413        0.002710       -0.000550        0.002161
   6 H        0.111413        0.002710       -0.000550        0.002161
   7 O       -0.138613        1.418448       -0.533500        0.884948
   8 H        0.138612        0.140361       -0.025310        0.115051
  --------------------------------------------------------------------
  Sum:       -1.000000        1.599826       -1.599826        0.000000
  
  Multipole moment analysis of the density matrix
    Molecular charge:                      -1.000000
    Number of electrons:                   26.000000
      Center of electronic charge [Ang]: [ -0.000000,  -0.000000,   0.153042]
    Total nuclear charge:                  25.000000
      Center of nuclear charge [Ang]:    [ -0.000000,  -0.000000,   0.000000]
    Dipole moment [D]:                     19.112413
      Cartesian components [D]:          [  0.000000,   0.000000, -19.112413]
    RMS size of the density [Ang]:         4.950525
      Cartesian components [Ang]:        [  0.908372,   0.552612,   4.834995]
  
  Exciton analysis of the difference density matrix
    <r_h> [Ang]:                  [ -0.000000,  -0.000000,  -6.182057]
    <r_e> [Ang]:                  [ -0.000000,  -0.000000,   0.116082]
    |<r_e - r_h>| [Ang]:            6.298138
    Hole size [Ang]:                2.149309
      Cartesian components [Ang]: [  0.915376,   0.808036,   1.768811]
    Electron size [Ang]:            5.588862
      Cartesian components [Ang]: [  2.100623,   1.440184,   4.974800]

  Transition density matrix analysis:
  -----------------------------------
  
  CT numbers (Mulliken)
    omega =     0.8374
    <Phe> =    -0.0000
  
  Exciton analysis of the transition density matrix
    Trans. dipole moment [D]:             0.000821
      Cartesian components [D]:         [ -0.000000,   0.000000,  -0.000821]
    <r_h> [Ang]:                        [ -0.000000,   0.000000,  -6.397347]
    <r_e> [Ang]:                        [ -0.000000,  -0.000000,   3.618253]
    |<r_e - r_h>| [Ang]:                 10.015600
    Hole size [Ang]:                      1.091749
      Cartesian components [Ang]:       [  0.841936,   0.486089,   0.496766]
    Electron size [Ang]:                  3.530547
      Cartesian components [Ang]:       [  2.583073,   1.696148,   1.707506]
    RMS electron-hole separation [Ang]:  10.675681
      Cartesian components [Ang]:       [  2.716565,   1.764420,  10.172378]
    Covariance(r_h, r_e) [Ang^2]:        -0.000624
    Correlation coefficient:             -0.000162
    Center-of-mass size [Ang]:            1.847663
      Cartesian components [Ang]:       [  1.358540,   0.882216,   0.888775]

  Decomposition into state-averaged NTOs
    H- 0 -> L+ 3: -0.5216 ( 54.4%)
    H- 0 -> L+ 1: -0.2560 ( 13.1%)
    H- 0 -> L+ 9:  0.2117 (  9.0%)
    H- 0 -> L+ 5: -0.1906 (  7.3%)
                   omega =  83.7%
  ----------------------------------------------------------------------------


  Excited state 5 (singlet, A1)                                    [converged]
  ----------------------------------------------------------------------------
  Term symbol:  6 (1) A1                                    R^2 =  3.34412e-09

  Total energy:                                           -153.7210767408 a.u.
  Excitation energy:                                               6.474987 eV

  Osc. strength:                                                      0.000000
  Trans. dip. moment [a.u.]:           [  -0.000000,    0.000000,   -0.000636]
  <i|r^2|0> [a.u.]:                    [  -0.000091,   -0.000233,    0.001615]

  Dip. moment [a.u.]:                  [   0.000000,   -0.000000,   -8.298136]
  Total dipole [Debye]:                                              21.091761
  <r^2> [a.u.]:                        [  81.293966,   27.128842, 2179.535584]
  Total <r^2> [a.u.]:                                              2287.958392

  V1^2 = 0.8534, V2^2 = 0.1466

  Important amplitudes:
      occ i      occ j       vir a       vir b          v   
    ---------------------------------------------------------
     7 (A1) A               8 (A1) A                 -0.6098
     7 (A1) A               9 (A1) A                  0.2212
    ---------------------------------------------------------

  Density matrix analysis:
  ------------------------
  NOs
    Occupation of frontier NOs:
       0.9736   0.9930
    Number of electrons: 26.000000
    Number of unpaired electrons: n_u =  2.81369, n_u,nl =  2.14228
    NO participation ratio (PR_NO):  4.014010
  
  
  Mulliken Population Analysis
  Atom      Charge (e)              h+              e-           Del q
  --------------------------------------------------------------------
   1 C       -0.813010        0.028573       -0.600681       -0.572108
   2 C       -0.813010        0.028573       -0.600681       -0.572108
   3 H        0.153608       -0.001141        0.023100        0.021959
   4 H        0.153608       -0.001141        0.023100        0.021959
   5 H        0.159402        0.005775        0.044374        0.050149
   6 H        0.159402        0.005775        0.044374        0.050149
   7 O       -0.323004        1.240766       -0.540210        0.700556
   8 H        0.323005        0.317647       -0.018204        0.299444
  --------------------------------------------------------------------
  Sum:       -1.000000        1.624828       -1.624828        0.000000
  
  Multipole moment analysis of the density matrix
    Molecular charge:                      -1.000000
    Number of electrons:                   26.000000
      Center of electronic charge [Ang]: [ -0.000000,   0.000000,   0.168892]
    Total nuclear charge:                  25.000000
      Center of nuclear charge [Ang]:    [ -0.000000,  -0.000000,   0.000000]
    Dipole moment [D]:                     21.091754
      Cartesian components [D]:          [  0.000000,  -0.000000, -21.091754]
    RMS size of the density [Ang]:         4.961203
      Cartesian components [Ang]:        [  0.935715,   0.540543,   4.842085]
  
  Exciton analysis of the difference density matrix
    <r_h> [Ang]:                  [  0.000000,  -0.000000,  -6.032282]
    <r_e> [Ang]:                  [ -0.000000,   0.000000,   0.422564]
    |<r_e - r_h>| [Ang]:            6.454846
    Hole size [Ang]:                2.452667
      Cartesian components [Ang]: [  0.798262,   0.785077,   2.182202]
    Electron size [Ang]:            5.708811
      Cartesian components [Ang]: [  2.227952,   1.343343,   5.081553]

  Transition density matrix analysis:
  -----------------------------------
  
  CT numbers (Mulliken)
    omega =     0.8362
    <Phe> =    -0.0000
  
  Exciton analysis of the transition density matrix
    Trans. dipole moment [D]:             0.000808
      Cartesian components [D]:         [ -0.000000,   0.000000,  -0.000808]
    <r_h> [Ang]:                        [  0.000000,  -0.000000,  -6.443621]
    <r_e> [Ang]:                        [ -0.000000,   0.000000,   4.054205]
    |<r_e - r_h>| [Ang]:                 10.497826
    Hole size [Ang]:                      1.007008
      Cartesian components [Ang]:       [  0.420618,   0.420590,   0.812557]
    Electron size [Ang]:                  3.477757
      Cartesian components [Ang]:       [  2.759178,   1.571062,   1.418977]
    RMS electron-hole separation [Ang]:  11.104888
      Cartesian components [Ang]:       [  2.791155,   1.626431,  10.624628]
    Covariance(r_h, r_e) [Ang^2]:        -0.002670
    Correlation coefficient:             -0.000762
    Center-of-mass size [Ang]:            1.809939
      Cartesian components [Ang]:       [  1.395477,   0.813170,   0.816871]

  Decomposition into state-averaged NTOs
    H- 1 -> L+ 6: -0.5108 ( 52.2%)
    H- 1 -> L+ 2: -0.3927 ( 30.8%)
                   omega =  83.6%
  ----------------------------------------------------------------------------


  Excited state 6 (singlet, A1)                                    [converged]
  ----------------------------------------------------------------------------
  Term symbol:  7 (1) A1                                    R^2 =  3.88360e-09

  Total energy:                                           -153.7154555987 a.u.
  Excitation energy:                                               6.627946 eV

  Osc. strength:                                                      0.000009
  Trans. dip. moment [a.u.]:           [   0.000000,   -0.000000,    0.007537]
  <i|r^2|0> [a.u.]:                    [   0.005760,    0.005661,    0.083528]

  Dip. moment [a.u.]:                  [   0.000000,   -0.000000,   -6.853486]
  Total dipole [Debye]:                                              17.419827
  <r^2> [a.u.]:                        [  64.437052,   26.609590, 2176.797609]
  Total <r^2> [a.u.]:                                              2267.844251

  V1^2 = 0.8575, V2^2 = 0.1425

  Important amplitudes:
      occ i      occ j       vir a       vir b          v   
    ---------------------------------------------------------
     7 (A1) A               9 (A1) A                  0.6085
     7 (A1) A               8 (A1) A                  0.2261
    ---------------------------------------------------------

  Density matrix analysis:
  ------------------------
  NOs
    Occupation of frontier NOs:
       0.9738   0.9958
    Number of electrons: 26.000000
    Number of unpaired electrons: n_u =  2.80663, n_u,nl =  2.13970
    NO participation ratio (PR_NO):  3.983492
  
  
  Mulliken Population Analysis
  Atom      Charge (e)              h+              e-           Del q
  --------------------------------------------------------------------
   1 C       -0.706501        0.018143       -0.483741       -0.465599
   2 C       -0.706501        0.018143       -0.483741       -0.465599
   3 H        0.117099        0.003159       -0.017710       -0.014551
   4 H        0.117099        0.003159       -0.017710       -0.014551
   5 H        0.089484        0.002260       -0.022029       -0.019769
   6 H        0.089484        0.002260       -0.022029       -0.019769
   7 O       -0.322293        1.241351       -0.540083        0.701268
   8 H        0.322129        0.316632       -0.018064        0.298568
  --------------------------------------------------------------------
  Sum:       -1.000000        1.605106       -1.605106        0.000000
  
  Multipole moment analysis of the density matrix
    Molecular charge:                      -1.000000
    Number of electrons:                   26.000000
      Center of electronic charge [Ang]: [  0.000000,   0.000000,   0.139489]
    Total nuclear charge:                  25.000000
      Center of nuclear charge [Ang]:    [ -0.000000,  -0.000000,   0.000000]
    Dipole moment [D]:                     17.419822
      Cartesian components [D]:          [ -0.000000,  -0.000000, -17.419822]
    RMS size of the density [Ang]:         4.940240
      Cartesian components [Ang]:        [  0.833072,   0.535345,   4.839976]
  
  Exciton analysis of the difference density matrix
    <r_h> [Ang]:                  [ -0.000000,  -0.000000,  -6.149362]
    <r_e> [Ang]:                  [  0.000000,   0.000000,  -0.091484]
    |<r_e - r_h>| [Ang]:            6.057878
    Hole size [Ang]:                2.208289
      Cartesian components [Ang]: [  0.794380,   0.785730,   1.904765]
    Electron size [Ang]:            5.424057
      Cartesian components [Ang]: [  1.438704,   1.315145,   5.061711]

  Transition density matrix analysis:
  -----------------------------------
  
  CT numbers (Mulliken)
    omega =     0.8405
    <Phe> =    -0.0000
  
  Exciton analysis of the transition density matrix
    Trans. dipole moment [D]:             0.009578
      Cartesian components [D]:         [ -0.000000,  -0.000000,   0.009578]
    <r_h> [Ang]:                        [  0.000000,  -0.000000,  -6.442813]
    <r_e> [Ang]:                        [  0.000000,   0.000000,   3.243197]
    |<r_e - r_h>| [Ang]:                  9.686010
    Hole size [Ang]:                      1.006652
      Cartesian components [Ang]:       [  0.420550,   0.420532,   0.812182]
    Electron size [Ang]:                  3.464705
      Cartesian components [Ang]:       [  1.682052,   1.527442,   2.615683]
    RMS electron-hole separation [Ang]:  10.336438
      Cartesian components [Ang]:       [  1.733972,   1.584282,  10.066049]
    Covariance(r_h, r_e) [Ang^2]:        -0.002819
    Correlation coefficient:             -0.000808
    Center-of-mass size [Ang]:            1.803600
      Cartesian components [Ang]:       [  0.866843,   0.792134,   1.368970]

  Decomposition into state-averaged NTOs
    H- 1 -> L+ 0: -0.6249 ( 78.1%)
    H- 1 -> L+ 6:  0.1416 (  4.0%)
    H- 1 -> L+ 2: -0.0979 (  1.9%)
                   omega =  84.0%
  ----------------------------------------------------------------------------


  Excited state 7 (singlet, A1)                                    [converged]
  ----------------------------------------------------------------------------
  Term symbol:  8 (1) A1                                    R^2 =  1.39930e-10

  Total energy:                                           -153.7128661638 a.u.
  Excitation energy:                                               6.698409 eV

  Osc. strength:                                                      0.000000
  Trans. dip. moment [a.u.]:           [  -0.000000,    0.000000,    0.000063]
  <i|r^2|0> [a.u.]:                    [  -2.250289,    2.249241,   -0.000010]

  Dip. moment [a.u.]:                  [   0.000000,    0.000000,   11.340178]
  Total dipole [Debye]:                                              28.823863
  <r^2> [a.u.]:                        [  61.501662,   25.545019, 2265.074758]
  Total <r^2> [a.u.]:                                              2352.121439

  V1^2 = 0.9223, V2^2 = 0.0777

  Important amplitudes:
      occ i      occ j       vir a       vir b          v   
    ---------------------------------------------------------
     4 (B1) A              10 (B1) A                 -0.4799
     2 (B2) A               4 (B2) A                 -0.4798
    ---------------------------------------------------------

  Density matrix analysis:
  ------------------------
  NOs
    Occupation of frontier NOs:
       0.5188   1.4620
    Number of electrons: 26.000000
    Number of unpaired electrons: n_u =  2.70673, n_u,nl =  2.48323
    NO participation ratio (PR_NO):  6.462017
  
  
  Mulliken Population Analysis
  Atom      Charge (e)              h+              e-           Del q
  --------------------------------------------------------------------
   1 C       -0.240858        0.000081       -0.000037        0.000044
   2 C       -0.240858        0.000081       -0.000037        0.000044
   3 H        0.131549       -0.000009       -0.000092       -0.000101
   4 H        0.131549       -0.000009       -0.000092       -0.000101
   5 H        0.109307        0.000054       -0.000000        0.000054
   6 H        0.109307        0.000054       -0.000000        0.000054
   7 O       -1.117405        1.147148       -1.240992       -0.093844
   8 H        0.117411        0.113562       -0.019712        0.093850
  --------------------------------------------------------------------
  Sum:       -1.000000        1.260962       -1.260962        0.000000
  
  Multipole moment analysis of the density matrix
    Molecular charge:                      -1.000000
    Number of electrons:                   26.000000
      Center of electronic charge [Ang]: [ -0.000000,  -0.000000,  -0.230806]
    Total nuclear charge:                  25.000000
      Center of nuclear charge [Ang]:    [ -0.000000,  -0.000000,   0.000000]
    Dipole moment [D]:                     28.823854
      Cartesian components [D]:          [  0.000000,   0.000000,  28.823854]
    RMS size of the density [Ang]:         5.027907
      Cartesian components [Ang]:        [  0.813875,   0.524527,   4.933794]
  
  Exciton analysis of the difference density matrix
    <r_h> [Ang]:                  [ -0.000000,  -0.000000,  -6.444745]
    <r_e> [Ang]:                  [ -0.000000,  -0.000000,  -6.368719]
    |<r_e - r_h>| [Ang]:            0.076026
    Hole size [Ang]:                1.267514
      Cartesian components [Ang]: [  0.743930,   0.743719,   0.707136]
    Electron size [Ang]:            2.101093
      Cartesian components [Ang]: [  1.316462,   1.316242,   0.974179]

  Transition density matrix analysis:
  -----------------------------------
  
  CT numbers (Mulliken)
    omega =     0.8993
    <Phe> =     0.0350
  
  Exciton analysis of the transition density matrix
    Trans. dipole moment [D]:             0.000080
      Cartesian components [D]:         [ -0.000000,   0.000000,   0.000080]
    <r_h> [Ang]:                        [ -0.000000,  -0.000000,  -6.396499]
    <r_e> [Ang]:                        [ -0.000000,  -0.000000,  -6.362552]
    |<r_e - r_h>| [Ang]:                  0.033947
    Hole size [Ang]:                      1.069473
      Cartesian components [Ang]:       [  0.673775,   0.673688,   0.485741]
    Electron size [Ang]:                  2.323860
      Cartesian components [Ang]:       [  1.469775,   1.469607,   1.039395]
    RMS electron-hole separation [Ang]:   2.556872
      Cartesian components [Ang]:       [  1.615692,   1.615505,   1.147725]
    Covariance(r_h, r_e) [Ang^2]:         0.003828
    Correlation coefficient:              0.001540
    Center-of-mass size [Ang]:            1.279820
      Cartesian components [Ang]:       [  0.809006,   0.808910,   0.573683]

  Decomposition into state-averaged NTOs
    H- 0 -> L+ 7:  0.4737 ( 44.9%)
    H- 2 -> L+ 8:  0.4736 ( 44.9%)
                   omega =  89.9%
  ----------------------------------------------------------------------------


  Excited state 8 (singlet, A1)                                    [converged]
  ----------------------------------------------------------------------------
  Term symbol:  9 (1) A1                                    R^2 =  4.29742e-07

  Total energy:                                           -153.6777783741 a.u.
  Excitation energy:                                               7.653196 eV

  Osc. strength:                                                      0.012387
  Trans. dip. moment [a.u.]:           [   0.000000,   -0.000000,    0.257030]
  <i|r^2|0> [a.u.]:                    [  -3.616936,   -3.617399,    5.607457]

  Dip. moment [a.u.]:                  [  -0.000000,    0.000000,   11.552063]
  Total dipole [Debye]:                                              29.362420
  <r^2> [a.u.]:                        [  60.754838,   24.800530, 2270.847235]
  Total <r^2> [a.u.]:                                              2356.402603

  V1^2 = 0.8896, V2^2 = 0.1104

  Important amplitudes:
      occ i      occ j       vir a       vir b          v   
    ---------------------------------------------------------
     2 (B2) A               4 (B2) A                  0.4348
     4 (B1) A              10 (B1) A                 -0.4346
    ---------------------------------------------------------

  Density matrix analysis:
  ------------------------
  NOs
    Occupation of frontier NOs:
       0.4469   1.5306
    Number of electrons: 26.000000
    Number of unpaired electrons: n_u =  2.70061, n_u,nl =  2.23680
    NO participation ratio (PR_NO):  8.016605
  
  
  Mulliken Population Analysis
  Atom      Charge (e)              h+              e-           Del q
  --------------------------------------------------------------------
   1 C       -0.240883        0.000139       -0.000120        0.000019
   2 C       -0.240883        0.000139       -0.000120        0.000019
   3 H        0.131493       -0.000011       -0.000146       -0.000156
   4 H        0.131493       -0.000011       -0.000146       -0.000156
   5 H        0.109347        0.000093        0.000002        0.000095
   6 H        0.109347        0.000093        0.000002        0.000095
   7 O       -1.165730        1.201127       -1.343297       -0.142170
   8 H        0.165815        0.133010        0.009244        0.142254
  --------------------------------------------------------------------
  Sum:       -1.000000        1.334582       -1.334582        0.000000
  
  Multipole moment analysis of the density matrix
    Molecular charge:                      -1.000000
    Number of electrons:                   26.000000
      Center of electronic charge [Ang]: [ -0.000000,  -0.000000,  -0.235119]
    Total nuclear charge:                  25.000000
      Center of nuclear charge [Ang]:    [ -0.000000,  -0.000000,   0.000000]
    Dipole moment [D]:                     29.362412
      Cartesian components [D]:          [  0.000000,   0.000000,  29.362412]
    RMS size of the density [Ang]:         5.032290
      Cartesian components [Ang]:        [  0.808919,   0.516827,   4.939887]
  
  Exciton analysis of the difference density matrix
    <r_h> [Ang]:                  [ -0.000000,  -0.000000,  -6.424291]
    <r_e> [Ang]:                  [ -0.000000,  -0.000000,  -6.436474]
    |<r_e - r_h>| [Ang]:            0.012183
    Hole size [Ang]:                1.396572
      Cartesian components [Ang]: [  0.843471,   0.843277,   0.726535]
    Electron size [Ang]:            2.103500
      Cartesian components [Ang]: [  1.292017,   1.291983,   1.042201]

  Transition density matrix analysis:
  -----------------------------------
  
  CT numbers (Mulliken)
    omega =     0.8913
    <Phe> =    -0.0697
  
  Exciton analysis of the transition density matrix
    Trans. dipole moment [D]:             0.326653
      Cartesian components [D]:         [ -0.000000,  -0.000000,   0.326653]
    <r_h> [Ang]:                        [ -0.000000,  -0.000000,  -6.409718]
    <r_e> [Ang]:                        [ -0.000000,  -0.000000,  -6.473555]
    |<r_e - r_h>| [Ang]:                  0.063838
    Hole size [Ang]:                      1.091720
      Cartesian components [Ang]:       [  0.664451,   0.664520,   0.555670]
    Electron size [Ang]:                  2.323805
      Cartesian components [Ang]:       [  1.429726,   1.429849,   1.145202]
    RMS electron-hole separation [Ang]:   2.536901
      Cartesian components [Ang]:       [  1.555732,   1.555867,   1.262870]
    Covariance(r_h, r_e) [Ang^2]:         0.080067
    Correlation coefficient:              0.031560
    Center-of-mass size [Ang]:            1.299236
      Cartesian components [Ang]:       [  0.798580,   0.798653,   0.642212]

  Decomposition into state-averaged NTOs
    H- 2 -> L+ 8: -0.4358 ( 38.0%)
    H- 0 -> L+ 7:  0.4357 ( 38.0%)
    H- 1 -> L+10: -0.2471 ( 12.2%)
                   omega =  89.1%
  ----------------------------------------------------------------------------


  Excited state 9 (singlet, A1)                                    [converged]
  ----------------------------------------------------------------------------
  Term symbol:  10 (1) A1                                   R^2 =  1.36806e-08

  Total energy:                                           -153.6659780977 a.u.
  Excitation energy:                                               7.974298 eV

  Osc. strength:                                                      0.000002
  Trans. dip. moment [a.u.]:           [   0.000000,    0.000000,   -0.003188]
  <i|r^2|0> [a.u.]:                    [   0.026708,    0.027378,   -0.053620]

  Dip. moment [a.u.]:                  [  -0.000000,    0.000000,   -7.512919]
  Total dipole [Debye]:                                              19.095938
  <r^2> [a.u.]:                        [  72.015500,   28.854363, 2170.382489]
  Total <r^2> [a.u.]:                                              2271.252353

  V1^2 = 0.8548, V2^2 = 0.1452

  Important amplitudes:
      occ i      occ j       vir a       vir b          v   
    ---------------------------------------------------------
     7 (A1) A              10 (A1) A                 -0.6447
     7 (A1) A               9 (A1) A                  0.0829
    ---------------------------------------------------------

  Density matrix analysis:
  ------------------------
  NOs
    Occupation of frontier NOs:
       0.9734   0.9942
    Number of electrons: 26.000000
    Number of unpaired electrons: n_u =  2.81221, n_u,nl =  2.14110
    NO participation ratio (PR_NO):  4.006616
  
  
  Mulliken Population Analysis
  Atom      Charge (e)              h+              e-           Del q
  --------------------------------------------------------------------
   1 C       -0.763858        0.036310       -0.559266       -0.522956
   2 C       -0.763858        0.036310       -0.559266       -0.522956
   3 H        0.137396        0.000571        0.005175        0.005746
   4 H        0.137396        0.000571        0.005175        0.005746
   5 H        0.126487        0.001435        0.015799        0.017234
   6 H        0.126487        0.001435        0.015799        0.017234
   7 O       -0.322682        1.239918       -0.539039        0.700879
   8 H        0.322634        0.317225       -0.018152        0.299073
  --------------------------------------------------------------------
  Sum:       -1.000000        1.633777       -1.633777        0.000000
  
  Multipole moment analysis of the density matrix
    Molecular charge:                      -1.000000
    Number of electrons:                   26.000000
      Center of electronic charge [Ang]: [  0.000000,  -0.000000,   0.152910]
    Total nuclear charge:                  25.000000
      Center of nuclear charge [Ang]:    [ -0.000000,  -0.000000,   0.000000]
    Dipole moment [D]:                     19.095932
      Cartesian components [D]:          [ -0.000000,   0.000000, -19.095932]
    RMS size of the density [Ang]:         4.943556
      Cartesian components [Ang]:        [  0.880699,   0.557468,   4.832427]
  
  Exciton analysis of the difference density matrix
    <r_h> [Ang]:                  [ -0.000000,  -0.000000,  -5.972618]
    <r_e> [Ang]:                  [  0.000000,  -0.000000,   0.192542]
    |<r_e - r_h>| [Ang]:            6.165160
    Hole size [Ang]:                2.559008
      Cartesian components [Ang]: [  0.798688,   0.787568,   2.300077]
    Electron size [Ang]:            5.453262
      Cartesian components [Ang]: [  1.830417,   1.448355,   4.928479]

  Transition density matrix analysis:
  -----------------------------------
  
  CT numbers (Mulliken)
    omega =     0.8379
    <Phe> =    -0.0000
  
  Exciton analysis of the transition density matrix
    Trans. dipole moment [D]:             0.004052
      Cartesian components [D]:         [ -0.000000,   0.000000,  -0.004052]
    <r_h> [Ang]:                        [ -0.000000,  -0.000000,  -6.443462]
    <r_e> [Ang]:                        [  0.000000,  -0.000000,   3.611980]
    |<r_e - r_h>| [Ang]:                 10.055441
    Hole size [Ang]:                      1.006323
      Cartesian components [Ang]:       [  0.420555,   0.420548,   0.811763]
    Electron size [Ang]:                  3.239459
      Cartesian components [Ang]:       [  2.218993,   1.715810,   1.620543]
    RMS electron-hole separation [Ang]:  10.612354
      Cartesian components [Ang]:       [  2.258582,   1.766597,  10.217632]
    Covariance(r_h, r_e) [Ang^2]:        -0.001687
    Correlation coefficient:             -0.000517
    Center-of-mass size [Ang]:            1.695834
      Cartesian components [Ang]:       [  1.129203,   0.883299,   0.905834]

  Decomposition into state-averaged NTOs
    H- 1 -> L+ 2: -0.5060 ( 51.2%)
    H- 1 -> L+ 6:  0.3689 ( 27.2%)
    H- 1 -> L+ 0:  0.1637 (  5.4%)
                   omega =  83.8%
  ----------------------------------------------------------------------------


  Excited state 10 (singlet, A1)                                    [converged]
  ----------------------------------------------------------------------------
  Term symbol:  11 (1) A1                                   R^2 =  1.35036e-06

  Total energy:                                           -153.6407224845 a.u.
  Excitation energy:                                               8.661538 eV

  Osc. strength:                                                      0.000000
  Trans. dip. moment [a.u.]:           [   0.000000,    0.000000,   -0.000099]
  <i|r^2|0> [a.u.]:                    [  -0.001325,    0.000143,    0.002614]

  Dip. moment [a.u.]:                  [   0.000000,    0.000000,   -7.564546]
  Total dipole [Debye]:                                              19.227161
  <r^2> [a.u.]:                        [  63.027023,   24.663418, 2169.659961]
  Total <r^2> [a.u.]:                                              2257.350403

  V1^2 = 0.8429, V2^2 = 0.1571

  Important amplitudes:
      occ i      occ j       vir a       vir b          v   
    ---------------------------------------------------------
     4 (B1) A               8 (B1) A                  0.5742
     4 (B1) A               9 (B1) A                 -0.2973
    ---------------------------------------------------------

  Density matrix analysis:
  ------------------------
  NOs
    Occupation of frontier NOs:
       0.9571   0.9828
    Number of electrons: 26.000000
    Number of unpaired electrons: n_u =  2.78168, n_u,nl =  2.12985
    NO participation ratio (PR_NO):  4.035346
  
  
  Mulliken Population Analysis
  Atom      Charge (e)              h+              e-           Del q
  --------------------------------------------------------------------
   1 C       -0.460532        0.054323       -0.273953       -0.219630
   2 C       -0.460532        0.054323       -0.273953       -0.219630
   3 H       -0.011765        0.006876       -0.150290       -0.143414
   4 H       -0.011765        0.006876       -0.150290       -0.143414
   5 H       -0.027704        0.007097       -0.144053       -0.136956
   6 H       -0.027704        0.007097       -0.144053       -0.136956
   7 O       -0.135894        1.401969       -0.514302        0.887667
   8 H        0.135894        0.136744       -0.024411        0.112333
  --------------------------------------------------------------------
  Sum:       -1.000000        1.675305       -1.675305        0.000000
  
  Multipole moment analysis of the density matrix
    Molecular charge:                      -1.000000
    Number of electrons:                   26.000000
      Center of electronic charge [Ang]: [ -0.000000,  -0.000000,   0.153961]
    Total nuclear charge:                  25.000000
      Center of nuclear charge [Ang]:    [ -0.000000,  -0.000000,   0.000000]
    Dipole moment [D]:                     19.227155
      Cartesian components [D]:          [  0.000000,   0.000000, -19.227155]
    RMS size of the density [Ang]:         4.928357
      Cartesian components [Ang]:        [  0.823906,   0.515396,   4.831588]
  
  Exciton analysis of the difference density matrix
    <r_h> [Ang]:                  [  0.000000,  -0.000000,  -5.618562]
    <r_e> [Ang]:                  [ -0.000000,  -0.000000,   0.410081]
    |<r_e - r_h>| [Ang]:            6.028643
    Hole size [Ang]:                3.109829
      Cartesian components [Ang]: [  0.924053,   0.794621,   2.861073]
    Electron size [Ang]:            5.158521
      Cartesian components [Ang]: [  1.413056,   1.171217,   4.820982]

  Transition density matrix analysis:
  -----------------------------------
  
  CT numbers (Mulliken)
    omega =     0.8267
    <Phe> =     0.0000
  
  Exciton analysis of the transition density matrix
    Trans. dipole moment [D]:             0.000126
      Cartesian components [D]:         [  0.000000,   0.000000,  -0.000126]
    <r_h> [Ang]:                        [ -0.000000,   0.000000,  -6.397059]
    <r_e> [Ang]:                        [ -0.000000,  -0.000000,   3.644177]
    |<r_e - r_h>| [Ang]:                 10.041236
    Hole size [Ang]:                      1.091543
      Cartesian components [Ang]:       [  0.840990,   0.485536,   0.498455]
    Electron size [Ang]:                  2.509743
      Cartesian components [Ang]:       [  1.662592,   1.333391,   1.325393]
    RMS electron-hole separation [Ang]:  10.407840
      Cartesian components [Ang]:       [  1.862996,   1.419033,  10.140943]
    Covariance(r_h, r_e) [Ang^2]:        -0.003209
    Correlation coefficient:             -0.001171
    Center-of-mass size [Ang]:            1.367832
      Cartesian components [Ang]:       [  0.931692,   0.709524,   0.706746]

  Decomposition into state-averaged NTOs
    H- 0 -> L+ 9: -0.5876 ( 69.1%)
    H- 0 -> L+ 5: -0.2127 (  9.0%)
    H- 0 -> L+ 3: -0.1197 (  2.9%)
    H- 0 -> L+ 1: -0.0917 (  1.7%)
                   omega =  82.7%
  ----------------------------------------------------------------------------


--------------------------------------------------------------------------------
  Time of ADC calculation:  CPU 292.51 s  wall 76.26 s
================================================================================
 
 --------------------------------------------------------------
             Orbital Energies (a.u.) and Symmetries
 --------------------------------------------------------------
 
 Alpha MOs, Restricted
 -- Occupied --                  
-20.198 -11.183 -11.181  -0.988  -0.905  -0.728  -0.606  -0.513
  1 A1    2 A1    1 B1    3 A1    4 A1    2 B1    5 A1    6 A1                 
 -0.461  -0.323  -0.252  -0.108  -0.108
  3 B1    1 B2    7 A1    4 B1    2 B2                                         
 -- Virtual --                   
  0.136   0.142   0.154   0.156   0.160   0.186   0.202   0.251
  5 B1    8 A1    9 A1    1 A2    3 B2    6 B1   10 A1    2 A2                 
  0.270   0.316   0.378   0.380   0.393   0.411   0.434   0.437
  7 B1   11 A1   12 A1   13 A1    8 B1    9 B1   14 A1   15 A1                 
  0.443   0.443   0.452   0.455   0.473   0.538   0.585   0.600
 10 B1    4 B2    5 B2   16 A1   11 B1    3 A2   17 A1   12 B1                 
  0.673   0.893   0.903   0.983   1.044   1.085   1.147   1.168
 13 B1   18 A1   19 A1   14 B1   20 A1   15 B1   21 A1    6 B2                 
  1.171   1.174   1.203   1.237   1.269   1.269   1.287   1.323
 22 A1   23 A1   16 B1    7 B2   17 B1    8 B2    4 A2    5 A2                 
  1.323   1.339   1.352   1.386   1.538   1.545   1.679   1.729
 24 A1    6 A2    9 B2   18 B1   19 B1   25 A1   26 A1   20 B1                 
  1.729   1.793   1.801   1.934   1.973   1.999   2.024   2.071
 10 B2   27 A1   21 B1    7 A2   28 A1   11 B2   22 B1   12 B2                 
  2.142   2.157   2.238   2.379   2.379   2.388   2.466   2.533
 29 A1   30 A1    8 A2   23 B1   13 B2   24 B1    9 A2   31 A1                 
  2.538   2.612   2.636   2.918   2.921   3.037   3.339   3.404
 32 A1   25 B1   26 B1   33 A1   34 A1   35 A1   27 B1   28 B1                 
  3.930   3.930   3.959   3.959   4.406
 29 B1   14 B2   10 A2   36 A1   37 A1                                         
 
 Beta MOs, Restricted
 -- Occupied --                  
-20.198 -11.183 -11.181  -0.988  -0.905  -0.728  -0.606  -0.513
  1 A1    2 A1    1 B1    3 A1    4 A1    2 B1    5 A1    6 A1                 
 -0.461  -0.323  -0.252  -0.108  -0.108
  3 B1    1 B2    7 A1    4 B1    2 B2                                         
 -- Virtual --                   
  0.136   0.142   0.154   0.156   0.160   0.186   0.202   0.251
  5 B1    8 A1    9 A1    1 A2    3 B2    6 B1   10 A1    2 A2                 
  0.270   0.316   0.378   0.380   0.393   0.411   0.434   0.437
  7 B1   11 A1   12 A1   13 A1    8 B1    9 B1   14 A1   15 A1                 
  0.443   0.443   0.452   0.455   0.473   0.538   0.585   0.600
 10 B1    4 B2    5 B2   16 A1   11 B1    3 A2   17 A1   12 B1                 
  0.673   0.893   0.903   0.983   1.044   1.085   1.147   1.168
 13 B1   18 A1   19 A1   14 B1   20 A1   15 B1   21 A1    6 B2                 
  1.171   1.174   1.203   1.237   1.269   1.269   1.287   1.323
 22 A1   23 A1   16 B1    7 B2   17 B1    8 B2    4 A2    5 A2                 
  1.323   1.339   1.352   1.386   1.538   1.545   1.679   1.729
 24 A1    6 A2    9 B2   18 B1   19 B1   25 A1   26 A1   20 B1                 
  1.729   1.793   1.801   1.934   1.973   1.999   2.024   2.071
 10 B2   27 A1   21 B1    7 A2   28 A1   11 B2   22 B1   12 B2                 
  2.142   2.157   2.238   2.379   2.379   2.388   2.466   2.533
 29 A1   30 A1    8 A2   23 B1   13 B2   24 B1    9 A2   31 A1                 
  2.538   2.612   2.636   2.918   2.921   3.037   3.339   3.404
 32 A1   25 B1   26 B1   33 A1   34 A1   35 A1   27 B1   28 B1                 
  3.930   3.930   3.959   3.959   4.406
 29 B1   14 B2   10 A2   36 A1   37 A1                                         
 --------------------------------------------------------------
 
          Ground-State Mulliken Net Atomic Charges

     Atom                 Charge (a.u.)
  ----------------------------------------
      1 C                    -0.225060
      2 C                    -0.225060
      3 H                     0.123743
      4 H                     0.123743
      5 H                     0.101316
      6 H                     0.101316
      7 O                    -1.035719
      8 H                     0.035719
  ----------------------------------------
  Sum of atomic charges =    -1.000000

 -----------------------------------------------------------------
                    Cartesian Multipole Moments
 -----------------------------------------------------------------
    Charge (ESU x 10^10)
                -4.8032
    Dipole Moment (Debye)
         X       0.0000      Y       0.0000      Z      29.1859
       Tot      29.1859
    Quadrupole Moments (Debye-Ang)
        XX     -23.0329     XY      -0.0000     YY     -26.2785
        XZ       0.0000     YZ      -0.0000     ZZ    -199.3627
    Octopole Moments (Debye-Ang^2)
       XXX       0.0000    XXY       0.0000    XYY      -0.0000
       YYY       0.0000    XXZ      17.6242    XYZ       0.0000
       YYZ       6.0170    XZZ       0.0000    YZZ       0.0000
       ZZZ    1093.5784
    Hexadecapole Moments (Debye-Ang^3)
      XXXX     -84.0549   XXXY      -0.0000   XXYY     -21.0013
      XYYY      -0.0000   YYYY     -37.8419   XXXZ       0.0000
      XXYZ      -0.0000   XYYZ      -0.0000   YYYZ      -0.0000
      XXZZ    -607.2056   XYZZ      -0.0000   YYZZ    -644.6065
      XZZZ       0.0000   YZZZ      -0.0000   ZZZZ   -9443.6951
 -----------------------------------------------------------------
 Total job time:  185.07s(wall), 341.42s(cpu) 
 Tue Mar  1 23:51:48 2022

        *************************************************************
        *                                                           *
        *  Thank you very much for using Q-Chem.  Have a nice day.  *
        *                                                           *
        *************************************************************


