/src/tsommerfeld/qchem/exe/qcprog.exe .input1.018182.17444.qcin.1 /src/jdavis/qchem.scratch/qchem17444/

                  Welcome to Q-Chem
     A Quantum Leap Into The Future Of Chemistry


 Q-Chem 5.4 (devel), Q-Chem, Inc., Pleasanton, CA (2021)

 E. Epifanovsky,  A. T. B. Gilbert,  Xintian Feng,  Joonho Lee,  Yuezhi Mao,  
 N. Mardirossian,  P. Pokhilko,  A. White,  M. Wormit,  M. P. Coons,  
 A. L. Dempwolff,  Zhengting Gan,  D. Hait,  P. R. Horn,  L. D. Jacobson,  
 I. Kaliman,  J. Kussmann,  A. W. Lange,  Ka Un Lao,  D. S. Levine,  Jie Liu,  
 S. C. McKenzie,  A. F. Morrison,  K. Nanda,  F. Plasser,  D. R. Rehn,  
 M. L. Vidal,  Zhi-Qiang You,  Ying Zhu,  B. Alam,  B. Albrecht,  
 A. Aldossary,  E. Alguire,  J. H. Andersen,  D. Barton,  K. Begam,  A. Behn,  
 Y. A. Bernard,  E. J. Berquist,  H. Burton,  A. Carreras,  K. Carter-Fenk,  
 R. Chakraborty,  A. D. Chien,  K. D. Closser,  V. Cofer-Shabica,  
 S. Dasgupta,  Jia Deng,  M. de Wergifosse,  M. Diedenhofen,  Hainam Do,  
 S. Ehlert,  Po-Tung Fang,  S. Fatehi,  Qingguo Feng,  T. Friedhoff,  
 J. Gayvert,  Qinghui Ge,  G. Gidofalvi,  M. Goldey,  J. Gomes,  
 C. Gonzalez-Espinoza,  S. Gulania,  A. Gunina,  M. W. D. Hanson-Heine,  
 P. H. P. Harbach,  A. W. Hauser,  M. F. Herbst,  M. Hernandez Vera,  
 M. Hodecker,  Z. C. Holden,  S. Houck,  Xunkun Huang,  Kerwin Hui,  
 B. C. Huynh,  M. Ivanov,  Hyunjun Ji,  Hanjie Jiang,  B. Kaduk,  S. Kaehler,  
 K. Khistyaev,  Jaehoon Kim,  P. Klunzinger,  Z. Koczor-Benda,  
 Joong Hoon Koh,  D. Kosenkov,  L. Koulias,  T. Kowalczyk,  C. M. Krauter,  
 K. Kue,  A. Kunitsa,  T. Kus,  A. Landau,  K. V. Lawler,  D. Lefrancois,  
 S. Lehtola,  Rain Li,  Yi-Pei Li,  Jiashu Liang,  M. Liebenthal,  
 Hung-Hsuan Lin,  You-Sheng Lin,  Fenglai Liu,  Kuan-Yu Liu,  
 M. Loipersberger,  A. Luenser,  A. Manjanath,  P. Manohar,  E. Mansoor,  
 S. F. Manzer,  Shan-Ping Mao,  A. V. Marenich,  T. Markovich,  S. Mason,  
 S. A. Maurer,  P. F. McLaughlin,  M. F. S. J. Menger,  J.-M. Mewes,  
 S. A. Mewes,  P. Morgante,  J. W. Mullinax,  K. J. Oosterbaan,  G. Paran,  
 Alexander C. Paul,  Suranjan K. Paul,  F. Pavosevic,  Zheng Pei,  S. Prager,  
 E. I. Proynov,  E. Ramos,  B. Rana,  A. E. Rask,  A. Rettig,  R. M. Richard,  
 F. Rob,  E. Rossomme,  T. Scheele,  M. Scheurer,  M. Schneider,  
 N. Sergueev,  S. M. Sharada,  W. Skomorowski,  D. W. Small,  C. J. Stein,  
 Yu-Chuan Su,  E. J. Sundstrom,  Zhen Tao,  J. Thirman,  T. Tsuchimochi,  
 N. M. Tubman,  S. P. Veccham,  O. Vydrov,  J. Wenzel,  J. Witte,  A. Yamada,  
 Kun Yao,  S. Yeganeh,  S. R. Yost,  A. Zech,  Igor Ying Zhang,  Xing Zhang,  
 Yu Zhang,  D. Zuev,  A. Aspuru-Guzik,  A. T. Bell,  N. A. Besley,  
 K. B. Bravaya,  B. R. Brooks,  D. Casanova,  Jeng-Da Chai,  S. Coriani,  
 C. J. Cramer,  A. E. DePrince, III,  R. A. DiStasio Jr.,  A. Dreuw,  
 B. D. Dunietz,  T. R. Furlani,  W. A. Goddard III,  S. Grimme,  
 S. Hammes-Schiffer,  T. Head-Gordon,  W. J. Hehre,  Chao-Ping Hsu,  
 T.-C. Jagau,  Yousung Jung,  A. Klamt,  Jing Kong,  D. S. Lambrecht,  
 WanZhen Liang,  N. J. Mayhall,  C. W. McCurdy,  J. B. Neaton,  
 C. Ochsenfeld,  J. A. Parkhill,  R. Peverati,  V. A. Rassolov,  Yihan Shao,  
 L. V. Slipchenko,  T. Stauch,  R. P. Steele,  J. E. Subotnik,  
 A. J. W. Thom,  A. Tkatchenko,  D. G. Truhlar,  T. Van Voorhis,  
 T. A. Wesolowski,  K. B. Whaley,  H. L. Woodcock III,  P. M. Zimmerman,  
 S. Faraji,  P. M. W. Gill,  M. Head-Gordon,  J. M. Herbert,  A. I. Krylov

 Additional authors for Version 5.4.1: 
 S. Kotaru,  Shaozhi Li,  Xiangyuan Li,  F. Matz,  A. Molle,  Haisheng Ren,  
 Yingli Su,  Hung-Yi Tsai,  C. Utku,  Fang Wang

 Contributors to earlier versions of Q-Chem not listed above: 
 R. D. Adamson,  B. Austin,  R. Baer,  J. Baker,  G. J. O. Beran,  
 K. Brandhorst,  S. T. Brown,  E. F. C. Byrd,  A. K. Chakraborty,  
 G. K. L. Chan,  Chun-Min Chang,  Yunqing Chen,  C.-L. Cheng,  
 Siu Hung Chien,  D. M. Chipman,  D. L. Crittenden,  H. Dachsel,  
 R. J. Doerksen,  A. D. Dutoi,  R. G. Edgar,  J. Fosso-Tande,  
 L. Fusti-Molnar,  D. Ghosh,  A. Ghysels,  A. Golubeva-Zadorozhnaya,  
 J. Gonthier,  M. S. Gordon,  S. R. Gwaltney,  G. Hawkins,  J. E. Herr,  
 A. Heyden,  S. Hirata,  E. G. Hohenstein,  G. Kedziora,  F. J. Keil,  
 C. Kelley,  Jihan Kim,  R. A. King,  R. Z. Khaliullin,  P. P. Korambath,  
 W. Kurlancheek,  A. Laurent,  A. M. Lee,  M. S. Lee,  S. V. Levchenko,  
 Ching Yeh Lin,  D. Liotard,  E. Livshits,  R. C. Lochan,  I. Lotan,  
 L. A. Martinez-Martinez,  P. E. Maslen,  N. Nair,  D. P. O'Neill,  
 D. Neuhauser,  E. Neuscamman,  C. M. Oana,  R. Olivares-Amaya,  R. Olson,  
 T. M. Perrine,  B. Peters,  P. A. Pieniazek,  A. Prociuk,  Y. M. Rhee,  
 J. Ritchie,  M. A. Rohrdanz,  E. Rosta,  N. J. Russ,  H. F. Schaefer III,  
 M. W. Schmidt,  N. E. Schultz,  S. Sharma,  N. Shenvi,  C. D. Sherrill,  
 A. C. Simmonett,  A. Sodt,  T. Stein,  D. Stuck,  K. S. Thanthiriwatte,  
 V. Vanovschi,  L. Vogt,  Tao Wang,  A. Warshel,  M. A. Watson,  
 C. F. Williams,  Q. Wu,  X. Xu,  Jun Yang,  W. Zhang,  Yan Zhao

 Please cite Q-Chem as follows:
 Y. Shao et al., Mol. Phys. 113, 184-215 (2015)
 DOI: 10.1080/00268976.2014.952696

 Q-Chem 5.4.1 for Intel X86 EM64T Linux

 Parts of Q-Chem use Armadillo 9.900.5 (Nocturnal Misbehaviour).
 http://arma.sourceforge.net/

 Q-Chem begins on Tue Mar  1 22:29:46 2022  

 Host: node01
0

     Scratch files written to /src/jdavis/qchem.scratch/qchem17444//
 Processing $rem in /src/tsommerfeld/qchem/config/preferences:
 Processing $rem in /home/jdavis/.qchemrc:

 Checking the input file for inconsistencies... 	...done.

--------------------------------------------------------------
User input:
--------------------------------------------------------------
$molecule
-1 1
C        -0.6645000000    0.0000000000    3.6357614391
C         0.6645000000    0.0000000000    3.6357614391
H        -1.1590800000    0.0000000000    2.6734124391
H         1.1590800000    0.0000000000    2.6734124391
H        -1.1590800000    0.0000000000    4.5981094391
H         1.1590800000    0.0000000000    4.5981094391
O         0.0000000000    0.0000000000   -6.3644435413
H         0.0000000000    0.0000000000   -7.3299440706
$end
$rem
   METHOD adc(2)
   BASIS gen
   PURECART 11
   EE_STATES [10,0,0,0]
   scf_convergence 8
   ADC_DAVIDSON_MAXITER 120
   ADC_DAVIDSON_MAXSUBSPACE 200
   adc_nguess_singles 100
   THRESH 14
   S2THRESH 14
   adc_davidson_conv 5
   adc_davidson_thresh 14
   THREADS 10
   MEM_TOTAL 95000
   STATE_ANALYSIS TRUE
$end
$basis
C 1
S   9   1.00
      6.665000D+03           6.920000D-04
      1.000000D+03           5.329000D-03
      2.280000D+02           2.707700D-02
      6.471000D+01           1.017180D-01
      2.106000D+01           2.747400D-01
      7.495000D+00           4.485640D-01
      2.797000D+00           2.850740D-01
      5.215000D-01           1.520400D-02
      1.596000D-01          -3.191000D-03
S   9   1.00
      6.665000D+03          -1.460000D-04
      1.000000D+03          -1.154000D-03
      2.280000D+02          -5.725000D-03
      6.471000D+01          -2.331200D-02
      2.106000D+01          -6.395500D-02
      7.495000D+00          -1.499810D-01
      2.797000D+00          -1.272620D-01
      5.215000D-01           5.445290D-01
      1.596000D-01           5.804960D-01
S   1   1.00
      1.596000D-01           1.000000D+00
S   1   1.00
      0.0469000              1.0000000
P   4   1.00
      9.439000D+00           3.810900D-02
      2.002000D+00           2.094800D-01
      5.456000D-01           5.085570D-01
      1.517000D-01           4.688420D-01
P   1   1.00
      1.517000D-01           1.000000D+00
P   1   1.00
      0.0441309      1.0000000
P   1   1.00
      0.0220655      1.0000000
D   1   1.00
      5.500000D-01           1.0000000
****
C 2
S   9   1.00
      6.665000D+03           6.920000D-04
      1.000000D+03           5.329000D-03
      2.280000D+02           2.707700D-02
      6.471000D+01           1.017180D-01
      2.106000D+01           2.747400D-01
      7.495000D+00           4.485640D-01
      2.797000D+00           2.850740D-01
      5.215000D-01           1.520400D-02
      1.596000D-01          -3.191000D-03
S   9   1.00
      6.665000D+03          -1.460000D-04
      1.000000D+03          -1.154000D-03
      2.280000D+02          -5.725000D-03
      6.471000D+01          -2.331200D-02
      2.106000D+01          -6.395500D-02
      7.495000D+00          -1.499810D-01
      2.797000D+00          -1.272620D-01
      5.215000D-01           5.445290D-01
      1.596000D-01           5.804960D-01
S   1   1.00
      1.596000D-01           1.000000D+00
S   1   1.00
      0.0469000              1.0000000
P   4   1.00
      9.439000D+00           3.810900D-02
      2.002000D+00           2.094800D-01
      5.456000D-01           5.085570D-01
      1.517000D-01           4.688420D-01
P   1   1.00
      1.517000D-01           1.000000D+00
P   1   1.00
      0.0441309      1.0000000
P   1   1.00
      0.0220655      1.0000000
D   1   1.00
      5.500000D-01           1.0000000
****
H 3
cc-pVDZ
****
H 4
cc-pVDZ
****
H 5
cc-pVDZ
****
H 6
cc-pVDZ
****
O 7
aug-cc-pVDZ
****
H 8
cc-pVDZ
****
$end
--------------------------------------------------------------
 ----------------------------------------------------------------
             Standard Nuclear Orientation (Angstroms)
    I     Atom           X                Y                Z
 ----------------------------------------------------------------
    1      C      -0.6645000000    -0.0000000000     3.6386938941
    2      C       0.6645000000     0.0000000000     3.6386938941
    3      H      -1.1590800000    -0.0000000000     2.6763448941
    4      H       1.1590800000     0.0000000000     2.6763448941
    5      H      -1.1590800000    -0.0000000000     4.6010418941
    6      H       1.1590800000     0.0000000000     4.6010418941
    7      O       0.0000000000    -0.0000000000    -6.3615110863
    8      H       0.0000000000    -0.0000000000    -7.3270116156
 ----------------------------------------------------------------
 Molecular Point Group                 C2v   NOp =  4
 Largest Abelian Subgroup              C2v   NOp =  4
 Nuclear Repulsion Energy =          45.51143008 hartrees
 There are       13 alpha and       13 beta electrons
 Requested basis set is non-standard
 There are 42 shells and 90 basis functions
 Total memory of 95000 MB is distributed as follows: 
   MEM_STATIC is set to 192 MB
   QALLOC/CCMAN JOB total memory use is  94808 MB
 Warning: actual memory use might exceed 95000 MB

 Total QAlloc Memory Limit  95000 MB
 Mega-Array Size       188 MB
 MEM_STATIC part       192 MB

                       Distance Matrix (Angstroms)
             C (  1)   C (  2)   H (  3)   H (  4)   H (  5)   H (  6)
   C (  2)  1.329000
   H (  3)  1.082000  2.061931
   H (  4)  2.061931  1.082000  2.318160
   H (  5)  1.082000  2.061931  1.924697  3.013026
   H (  6)  2.061931  1.082000  3.013026  1.924697  2.318160
   O (  7) 10.022258 10.022258  9.111877  9.111877 11.023658 11.023658
   H (  8) 10.985821 10.985821 10.070283 10.070283 11.984237 11.984237
             O (  7)
   H (  8)  0.965501
 
 A cutoff of  1.0D-14 yielded    667 shell pairs
 There are      3043 function pairs (      3287 Cartesian)
 Smallest overlap matrix eigenvalue = 1.97E-04

 Scale SEOQF with 1.000000e-01/1.000000e-01/1.000000e-02

 Standard Electronic Orientation quadrupole field applied
 Nucleus-field energy     =    -0.0000000060 hartrees
 ================ Generating on-the-fly SAD Guess ================
Attempting to make child job directory: /src/jdavis/qchem.scratch/qchem17444//Frg1/
Attempting to make child job directory: /src/jdavis/qchem.scratch/qchem17444//Frg2/
Attempting to make child job directory: /src/jdavis/qchem.scratch/qchem17444//Frg3/
Creating input file /src/jdavis/qchem.scratch/qchem17444/Frg1.input
using default PutDataFrgm: nothing
calling putenv with: QCSCRATCH=/src/jdavis/qchem.scratch/qchem17444/ 
Spawning Job For Fragment 0
Done Job For Fragment 0
calling putenv with: QCSCRATCH=/src/jdavis/qchem.scratch 
calling putenv with: QCTHREADS=1 
Creating input file /src/jdavis/qchem.scratch/qchem17444/Frg2.input
using default PutDataFrgm: nothing
calling putenv with: QCSCRATCH=/src/jdavis/qchem.scratch/qchem17444/ 
Spawning Job For Fragment 1
Done Job For Fragment 1
calling putenv with: QCSCRATCH=/src/jdavis/qchem.scratch 
calling putenv with: QCTHREADS=1 
Creating input file /src/jdavis/qchem.scratch/qchem17444/Frg3.input
using default PutDataFrgm: nothing
calling putenv with: QCSCRATCH=/src/jdavis/qchem.scratch/qchem17444/ 
Spawning Job For Fragment 2
Done Job For Fragment 2
calling putenv with: QCSCRATCH=/src/jdavis/qchem.scratch 
calling putenv with: QCTHREADS=1 
 Time for running child jobs:  CPU 1.77 s  wall 80.40 s
 ============= Method Specific SAD Guess Constructed =============
 Guess from on-the-fly superposition of atomic densities
 Warning: Energy on first SCF cycle will be non-variational
 A restricted Hartree-Fock SCF calculation will be
 performed using Pulay DIIS extrapolation
 SCF converges when DIIS error is below 1.0E-08
 using 10 threads for integral computing
 -------------------------------------------------------
 OpenMP Integral computing Module                
 Release: version 1.0, May 2013, Q-Chem Inc. Pittsburgh 
 -------------------------------------------------------
 ---------------------------------------
  Cycle       Energy         DIIS Error
 ---------------------------------------
    1    -153.5130858930      5.94E-02
    2    -153.2824776053      1.22E-02
    3    -153.3444825016      1.06E-02
    4    -153.4322286528      6.43E-04
    5    -153.4329656996      1.83E-04
    6    -153.4330129938      3.80E-05
    7    -153.4330155983      9.09E-06
    8    -153.4330158706      2.57E-06
    9    -153.4330158915      4.40E-07
   10    -153.4330158920      5.35E-08
   11    -153.4330158920      8.92E-09 Convergence criterion met
 ---------------------------------------
 SCF time:  CPU 11.23 s  wall 1.13 s
 SCF   energy in the final basis set = -153.43301589
 Total energy in the final basis set = -153.43301589
================================================================================
|                                                                              |
|                                 A D C  M A N                                 |
|                                                                              |
 ------------------------------------------------------------------------------ 
|                                                                              |
| Components:                                                                  |
|                                                                              |
| - libvmm - 1.3-trunk                                                         |
|   Authors:                                                                   |
|   Evgeny Epifanovsky, Ilya Kaliman                                           |
|                                                                              |
| - libtensor - 2.5-trunk                                                      |
|   Authors:                                                                   |
|   Evgeny Epifanovsky, Michael Wormit, Dmitry Zuev, Sam Manzer,               |
|   Ilya Kaliman                                                               |
|                                                                              |
| - libwfa - 1.1-trunk                                                         |
|   Authors:                                                                   |
|   Felix Plasser, Stefanie Mewes (Baeppler), Benjamin Thomitzni,              |
|   Michael Wormit, Feng Chen, Anna I. Krylov, Pavel Pokhilko                  |
|                                                                              |
| - libadc - 1.1-trunk                                                         |
|   Authors:                                                                   |
|   Michael Wormit, Adrian L. Dempwolff, Philipp H. P. Harbach,                |
|   Caroline Krauter, Dirk Rehn, Matthias Schneider, Jan Wenzel                |
|                                                                              |
| - adcman - 2.6-trunk                                                         |
|   Authors:                                                                   |
|   Michael Wormit, Adrian L. Dempwolff, Philipp H. P. Harbach,                |
|   Caroline Krauter, Daniel Lefrancois, Jan-Michael Mewes, Dirk Rehn,         |
|   Matthias Schneider, Jan Wenzel, Andreas Dreuw                              |
|                                                                              |
| Authors of earlier versions of ADCMAN:                                       |
| Andreas Dreuw, Jan Hendrik Starcke, Dirk Rehn, Michael Wormit                |
|                                                                              |
================================================================================

 
 Alpha MOs, Restricted
 -- Occupied --                  
-20.198 -11.183 -11.181  -0.988  -0.905  -0.728  -0.607  -0.513
  1 A1    2 A1    1 B1    3 A1    4 A1    2 B1    5 A1    6 A1                 
 -0.461  -0.323  -0.252  -0.108  -0.108
  3 B1    1 B2    7 A1    2 B2    4 B1                                         
 -- Virtual --                   
  0.090   0.102   0.102   0.114   0.117   0.122   0.157   0.187
  5 B1    3 B2    8 A1    1 A2    9 A1    6 B1   10 A1    2 A2                 
  0.206   0.239   0.255   0.260   0.269   0.312   0.320   0.337
  7 B1   11 A1    8 B1    4 B2   12 A1    9 B1   13 A1    3 A2                 
  0.379   0.396   0.403   0.443   0.443   0.456   0.538   0.572
 14 A1   15 A1   10 B1    5 B2   11 B1   16 A1   12 B1   13 B1                 
  0.585   0.765   0.852   0.915   0.949   0.950   0.987   1.002
 17 A1   18 A1   19 A1   20 A1    6 B2   21 A1   14 B1    4 A2                 
  1.029   1.083   1.112   1.168   1.173   1.269   1.269   1.323
 15 B1   22 A1   16 B1    7 B2   23 A1    8 B2   17 B1    5 A2                 
  1.323   1.337   1.338   1.388   1.400   1.545   1.662   1.669
 24 A1    9 B2    6 A2   18 B1   19 B1   25 A1   26 A1   20 B1                 
  1.729   1.729   1.755   1.906   1.965   1.974   1.993   2.048
 10 B2   21 B1   27 A1    7 A2   22 B1   28 A1   11 B2   29 A1                 
  2.071   2.103   2.226   2.352   2.379   2.379   2.466   2.498
 12 B2   30 A1    8 A2   23 B1   13 B2   24 B1    9 A2   31 A1                 
  2.538   2.610   2.624   2.852   2.857   3.038   3.310   3.394
 32 A1   25 B1   26 B1   33 A1   34 A1   35 A1   27 B1   28 B1                 
  3.930   3.930   3.959   3.959   4.406
 29 B1   14 B2   10 A2   36 A1   37 A1                                         
 
 Beta MOs, Restricted
 -- Occupied --                  
-20.198 -11.183 -11.181  -0.988  -0.905  -0.728  -0.607  -0.513
  1 A1    2 A1    1 B1    3 A1    4 A1    2 B1    5 A1    6 A1                 
 -0.461  -0.323  -0.252  -0.108  -0.108
  3 B1    1 B2    7 A1    2 B2    4 B1                                         
 -- Virtual --                   
  0.090   0.102   0.102   0.114   0.117   0.122   0.157   0.187
  5 B1    3 B2    8 A1    1 A2    9 A1    6 B1   10 A1    2 A2                 
  0.206   0.239   0.255   0.260   0.269   0.312   0.320   0.337
  7 B1   11 A1    8 B1    4 B2   12 A1    9 B1   13 A1    3 A2                 
  0.379   0.396   0.403   0.443   0.443   0.456   0.538   0.572
 14 A1   15 A1   10 B1    5 B2   11 B1   16 A1   12 B1   13 B1                 
  0.585   0.765   0.852   0.915   0.949   0.950   0.987   1.002
 17 A1   18 A1   19 A1   20 A1    6 B2   21 A1   14 B1    4 A2                 
  1.029   1.083   1.112   1.168   1.173   1.269   1.269   1.323
 15 B1   22 A1   16 B1    7 B2   23 A1    8 B2   17 B1    5 A2                 
  1.323   1.337   1.338   1.388   1.400   1.545   1.662   1.669
 24 A1    9 B2    6 A2   18 B1   19 B1   25 A1   26 A1   20 B1                 
  1.729   1.729   1.755   1.906   1.965   1.974   1.993   2.048
 10 B2   21 B1   27 A1    7 A2   22 B1   28 A1   11 B2   29 A1                 
  2.071   2.103   2.226   2.352   2.379   2.379   2.466   2.498
 12 B2   30 A1    8 A2   23 B1   13 B2   24 B1    9 A2   31 A1                 
  2.538   2.610   2.624   2.852   2.857   3.038   3.310   3.394
 32 A1   25 B1   26 B1   33 A1   34 A1   35 A1   27 B1   28 B1                 
  3.930   3.930   3.959   3.959   4.406
 29 B1   14 B2   10 A2   36 A1   37 A1                                         

--------------------------------------------------------------------------------
                                   HF Summary                                   
--------------------------------------------------------------------------------
  Energy:                                                 -153.4330158920 a.u.
  Dip. moment [a.u.]:                  [   0.000000,    0.000000,   11.483000]
  Total dipole [Debye]:                                              29.186881
  <r^2> [a.u.]:                        [  55.257242,   19.512210, 2265.795493]
  Total <r^2> [a.u.]:                                              2340.564945
--------------------------------------------------------------------------------

--------------------------------------------------------------------------------
                                 MP(2) Summary                                  
--------------------------------------------------------------------------------
  MP energy contribution:                                   -0.5236982169 a.u.
  Total energy:                                           -153.9567141089 a.u.
  Dip. moment [a.u.]:                  [   0.000000,   -0.000000,   11.521683]
  Total dipole [Debye]:                                              29.285203
  <r^2> [a.u.]:                        [  56.211948,   20.211843, 2267.436346]
  Total <r^2> [a.u.]:                                              2343.860137

  Density matrix analysis:
  ------------------------
  NOs
    Occupation of frontier NOs:
       0.0446   1.9372
    Number of electrons: 26.000000
    Number of unpaired electrons: n_u =  0.71259, n_u,nl =  0.08517
    NO participation ratio (PR_NO): 22.899369
  
  
  Mulliken Population Analysis
  Atom      Charge (e)              h+              e-           Del q
  --------------------------------------------------------------------
   1 C       -0.171610        0.087927       -0.102321       -0.014395
   2 C       -0.171610        0.087927       -0.102321       -0.014395
   3 H        0.096562        0.017446       -0.010283        0.007163
   4 H        0.096562        0.017446       -0.010283        0.007163
   5 H        0.075035        0.017774       -0.010552        0.007222
   6 H        0.075035        0.017774       -0.010552        0.007222
   7 O       -1.023546        0.281946       -0.269740        0.012206
   8 H        0.023571        0.017743       -0.029930       -0.012186
  --------------------------------------------------------------------
  Sum:       -1.000000        0.545982       -0.545982        0.000000
  
  Multipole moment analysis of the density matrix
    Molecular charge:                      -1.000000
    Number of electrons:                   26.000000
      Center of electronic charge [Ang]: [ -0.000000,   0.000000,  -0.234500]
    Total nuclear charge:                  25.000000
      Center of nuclear charge [Ang]:    [ -0.000000,  -0.000000,   0.000000]
    Dipole moment [D]:                     29.285194
      Cartesian components [D]:          [  0.000000,  -0.000000,  29.285194]
    RMS size of the density [Ang]:         5.018879
      Cartesian components [Ang]:        [  0.778088,   0.466571,   4.936197]
  
  Exciton analysis of the difference density matrix
    <r_h> [Ang]:                  [ -0.000000,  -0.000000,  -1.862536]
    <r_e> [Ang]:                  [ -0.000000,   0.000000,  -1.900029]
    |<r_e - r_h>| [Ang]:            0.037492
    Hole size [Ang]:                5.150666
      Cartesian components [Ang]: [  0.824397,   0.712741,   5.034057]
    Electron size [Ang]:            5.298902
      Cartesian components [Ang]: [  1.081336,   0.931040,   5.103160]
--------------------------------------------------------------------------------
  Starting Davidson for singlet states of irrep A1 ... 
--------------------------------------------------------------------------------
   It NVec Conv  Avg. Norm  Max. Norm  Conv. states           Remark
--------------------------------------------------------------------------------
       100    0  1.579e-01  5.391e-01  0.2207 n n n n n n n n Guess.
    1  110    0  1.649e-02  5.941e-02  0.0418 n n n n n n n n 
    2  120    0  2.061e-03  1.088e-02  0.0403 n n n n n n n n 
    3  130    0  1.712e-02  1.710e-01  0.0403 n n n n n n n n 
    4  140    0  3.723e-03  3.713e-02  0.0403 n n n n n n n n 
    5  150    3  4.040e-03  4.039e-02  0.0403 y y y n n n n n 
    6  160    5  5.471e-04  5.468e-03  0.0403 y y y y n y n n 
    7  170    7  9.882e-05  9.877e-04  0.0403 y y y y y y y n 
    8  180    9  2.174e-05  2.173e-04  0.0403 y y y y y y y y 
    9  190    9  2.863e-06  2.861e-05  0.0403 y y y y y y y y 
   10  200   10  4.289e-07  4.287e-06  0.0403 y y y y y y y y Converged.
--------------------------------------------------------------------------------
  Davidson Summary: 
 ------------------------------------------------------------
  State  0: excitation energy =   0.0403 a.u.   (converged)
  State  1: excitation energy =   0.0494 a.u.   (converged)
  State  2: excitation energy =   0.0629 a.u.   (converged)
  State  3: excitation energy =   0.1472 a.u.   (converged)
  State  4: excitation energy =   0.1949 a.u.   (converged)
  State  5: excitation energy =   0.1980 a.u.   (converged)
  State  6: excitation energy =   0.1982 a.u.   (converged)
  State  7: excitation energy =   0.2184 a.u.   (converged)
  State  8: excitation energy =   0.2463 a.u.   (converged)
  State  9: excitation energy =   0.2468 a.u.   (converged)
 ------------------------------------------------------------


--------------------------------------------------------------------------------
                   State-averaged natural transition orbitals
--------------------------------------------------------------------------------
--------------------------------------------------------------------------------

--------------------------------------------------------------------------------
                             Excited State Summary
--------------------------------------------------------------------------------
--------------------------------------------------------------------------------

  Excited state 1 (singlet, A1)                                    [converged]
  ----------------------------------------------------------------------------
  Term symbol:  2 (1) A1                                    R^2 =  4.33352e-11

  Total energy:                                           -153.9163811810 a.u.
  Excitation energy:                                               1.097515 eV

  Osc. strength:                                                      0.000003
  Trans. dip. moment [a.u.]:           [   0.000000,    0.000000,    0.010052]
  <i|r^2|0> [a.u.]:                    [  -0.064676,   -0.025286,    0.276810]

  Dip. moment [a.u.]:                  [  -0.000000,    0.000000,   -8.281989]
  Total dipole [Debye]:                                              21.050720
  <r^2> [a.u.]:                        [ 104.789120,   36.036520, 2191.094731]
  Total <r^2> [a.u.]:                                              2331.920371

  V1^2 = 0.8531, V2^2 = 0.1469

  Important amplitudes:
      occ i      occ j       vir a       vir b          v   
    ---------------------------------------------------------
     4 (B1) A               5 (B1) A                 -0.6266
     4 (B1) A               6 (B1) A                  0.1826
    ---------------------------------------------------------

  Density matrix analysis:
  ------------------------
  NOs
    Occupation of frontier NOs:
       0.9562   0.9977
    Number of electrons: 26.000000
    Number of unpaired electrons: n_u =  2.75765, n_u,nl =  2.12209
    NO participation ratio (PR_NO):  3.913984
  
  
  Mulliken Population Analysis
  Atom      Charge (e)              h+              e-           Del q
  --------------------------------------------------------------------
   1 C       -0.659478        0.007937       -0.495805       -0.487868
   2 C       -0.659478        0.007937       -0.495805       -0.487868
   3 H        0.085979       -0.000041       -0.010542       -0.010583
   4 H        0.085979       -0.000041       -0.010542       -0.010583
   5 H        0.073495        0.006981       -0.008520       -0.001539
   6 H        0.073495        0.006981       -0.008520       -0.001539
   7 O       -0.139899        1.422646       -0.539000        0.883646
   8 H        0.139906        0.142054       -0.025720        0.116335
  --------------------------------------------------------------------
  Sum:       -1.000000        1.594453       -1.594453        0.000000
  
  Multipole moment analysis of the density matrix
    Molecular charge:                      -1.000000
    Number of electrons:                   26.000000
      Center of electronic charge [Ang]: [  0.000000,  -0.000000,   0.168563]
    Total nuclear charge:                  25.000000
      Center of nuclear charge [Ang]:    [ -0.000000,  -0.000000,   0.000000]
    Dipole moment [D]:                     21.050714
      Cartesian components [D]:          [ -0.000000,   0.000000, -21.050714]
    RMS size of the density [Ang]:         5.008706
      Cartesian components [Ang]:        [  1.062362,   0.622997,   4.854935]
  
  Exciton analysis of the difference density matrix
    <r_h> [Ang]:                  [  0.000000,   0.000000,  -6.248854]
    <r_e> [Ang]:                  [  0.000000,  -0.000000,   0.323713]
    |<r_e - r_h>| [Ang]:            6.572567
    Hole size [Ang]:                2.005633
      Cartesian components [Ang]: [  0.913514,   0.804317,   1.594092]
    Electron size [Ang]:            6.392888
      Cartesian components [Ang]: [  3.060385,   1.850989,   5.298764]

  Transition density matrix analysis:
  -----------------------------------
  
  CT numbers (Mulliken)
    omega =     0.8389
    <Phe> =    -0.0000
  
  Exciton analysis of the transition density matrix
    Trans. dipole moment [D]:             0.012775
      Cartesian components [D]:         [  0.000000,   0.000000,   0.012775]
    <r_h> [Ang]:                        [  0.000000,  -0.000000,  -6.397384]
    <r_e> [Ang]:                        [  0.000000,  -0.000000,   4.025425]
    |<r_e - r_h>| [Ang]:                 10.422809
    Hole size [Ang]:                      1.092169
      Cartesian components [Ang]:       [  0.842391,   0.486355,   0.496658]
    Electron size [Ang]:                  4.968062
      Cartesian components [Ang]:       [  3.819621,   2.248473,   2.244217]
    RMS electron-hole separation [Ang]:  11.597732
      Cartesian components [Ang]:       [  3.910995,   2.300457,  10.673304]
    Covariance(r_h, r_e) [Ang^2]:         0.001018
    Correlation coefficient:              0.000188
    Center-of-mass size [Ang]:            2.543448
      Cartesian components [Ang]:       [  1.955913,   1.150243,   1.149119]

  Decomposition into state-averaged NTOs
    H- 0 -> L+ 4: -0.4697 ( 44.1%)
    H- 0 -> L+ 0:  0.3126 ( 19.5%)
    H- 0 -> L+ 7:  0.2814 ( 15.8%)
    H- 0 -> L+ 5: -0.1482 (  4.4%)
                   omega =  83.9%
  ----------------------------------------------------------------------------


  Excited state 2 (singlet, A1)                                    [converged]
  ----------------------------------------------------------------------------
  Term symbol:  3 (1) A1                                    R^2 =  3.70292e-11

  Total energy:                                           -153.9073117796 a.u.
  Excitation energy:                                               1.344306 eV

  Osc. strength:                                                      0.000016
  Trans. dip. moment [a.u.]:           [   0.000000,    0.000000,   -0.022165]
  <i|r^2|0> [a.u.]:                    [   0.022034,    0.069388,   -0.171325]

  Dip. moment [a.u.]:                  [   0.000000,   -0.000000,   -7.552384]
  Total dipole [Debye]:                                              19.196249
  <r^2> [a.u.]:                        [  70.839498,   65.230458, 2178.756978]
  Total <r^2> [a.u.]:                                              2314.826934

  V1^2 = 0.8543, V2^2 = 0.1457

  Important amplitudes:
      occ i      occ j       vir a       vir b          v   
    ---------------------------------------------------------
     2 (B2) A               3 (B2) A                  0.6534
     2 (B2) A   2 (B2) B    3 (B2) A    5 (B2) B      0.0669
    ---------------------------------------------------------

  Density matrix analysis:
  ------------------------
  NOs
    Occupation of frontier NOs:
       0.9562   0.9990
    Number of electrons: 26.000000
    Number of unpaired electrons: n_u =  2.75443, n_u,nl =  2.12122
    NO participation ratio (PR_NO):  3.899601
  
  
  Mulliken Population Analysis
  Atom      Charge (e)              h+              e-           Del q
  --------------------------------------------------------------------
   1 C       -0.657596        0.013278       -0.499265       -0.485986
   2 C       -0.657596        0.013278       -0.499265       -0.485986
   3 H        0.084390       -0.000742       -0.011430       -0.012172
   4 H        0.084390       -0.000742       -0.011430       -0.012172
   5 H        0.073201       -0.000002       -0.001832       -0.001833
   6 H        0.073201       -0.000002       -0.001832       -0.001833
   7 O       -0.139779        1.423304       -0.539538        0.883766
   8 H        0.139789        0.141899       -0.025681        0.116218
  --------------------------------------------------------------------
  Sum:       -1.000000        1.590271       -1.590271       -0.000000
  
  Multipole moment analysis of the density matrix
    Molecular charge:                      -1.000000
    Number of electrons:                   26.000000
      Center of electronic charge [Ang]: [ -0.000000,   0.000000,   0.153713]
    Total nuclear charge:                  25.000000
      Center of nuclear charge [Ang]:    [ -0.000000,  -0.000000,   0.000000]
    Dipole moment [D]:                     19.196243
      Cartesian components [D]:          [  0.000000,  -0.000000, -19.196243]
    RMS size of the density [Ang]:         4.990773
      Cartesian components [Ang]:        [  0.873478,   0.838185,   4.841725]
  
  Exciton analysis of the difference density matrix
    <r_h> [Ang]:                  [  0.000000,  -0.000000,  -6.282876]
    <r_e> [Ang]:                  [ -0.000000,   0.000000,   0.064195]
    |<r_e - r_h>| [Ang]:            6.347071
    Hole size [Ang]:                1.904811
      Cartesian components [Ang]: [  0.811985,   0.904012,   1.466884]
    Electron size [Ang]:            6.163303
      Cartesian components [Ang]: [  1.798628,   2.957111,   5.099680]

  Transition density matrix analysis:
  -----------------------------------
  
  CT numbers (Mulliken)
    omega =     0.8399
    <Phe> =     0.0000
  
  Exciton analysis of the transition density matrix
    Trans. dipole moment [D]:             0.028170
      Cartesian components [D]:         [  0.000000,   0.000000,  -0.028170]
    <r_h> [Ang]:                        [ -0.000000,  -0.000000,  -6.397370]
    <r_e> [Ang]:                        [ -0.000000,   0.000000,   3.638449]
    |<r_e - r_h>| [Ang]:                 10.035819
    Hole size [Ang]:                      1.092229
      Cartesian components [Ang]:       [  0.486293,   0.842275,   0.497049]
    Electron size [Ang]:                  4.777585
      Cartesian components [Ang]:       [  2.168929,   3.686342,   2.128838]
    RMS electron-hole separation [Ang]:  11.168596
      Cartesian components [Ang]:       [  2.222760,   3.781218,  10.271283]
    Covariance(r_h, r_e) [Ang^2]:        -0.000794
    Correlation coefficient:             -0.000152
    Center-of-mass size [Ang]:            2.450342
      Cartesian components [Ang]:       [  1.111396,   1.890732,   1.092750]

  Decomposition into state-averaged NTOs
    H- 2 -> L+ 3: -0.6116 ( 74.8%)
    H- 2 -> L+ 8:  0.2142 (  9.2%)
                   omega =  84.0%
  ----------------------------------------------------------------------------


  Excited state 3 (singlet, A1)                                    [converged]
  ----------------------------------------------------------------------------
  Term symbol:  4 (1) A1                                    R^2 =  1.49012e-10

  Total energy:                                           -153.8937684947 a.u.
  Excitation energy:                                               1.712837 eV

  Osc. strength:                                                      0.000152
  Trans. dip. moment [a.u.]:           [   0.000000,    0.000000,    0.060223]
  <i|r^2|0> [a.u.]:                    [  -0.209861,   -0.062078,    0.591378]

  Dip. moment [a.u.]:                  [  -0.000000,   -0.000000,   -6.872794]
  Total dipole [Debye]:                                              17.468904
  <r^2> [a.u.]:                        [  98.724915,   32.934143, 2198.408316]
  Total <r^2> [a.u.]:                                              2330.067375

  V1^2 = 0.8560, V2^2 = 0.1440

  Important amplitudes:
      occ i      occ j       vir a       vir b          v   
    ---------------------------------------------------------
     4 (B1) A               6 (B1) A                  0.6282
     4 (B1) A               5 (B1) A                  0.1801
    ---------------------------------------------------------

  Density matrix analysis:
  ------------------------
  NOs
    Occupation of frontier NOs:
       0.9547   1.0011
    Number of electrons: 26.000000
    Number of unpaired electrons: n_u =  2.75090, n_u,nl =  2.12019
    NO participation ratio (PR_NO):  3.896566
  
  
  Mulliken Population Analysis
  Atom      Charge (e)              h+              e-           Del q
  --------------------------------------------------------------------
   1 C       -0.642293        0.000921       -0.471605       -0.470684
   2 C       -0.642293        0.000921       -0.471605       -0.470684
   3 H        0.074987        0.000679       -0.022254       -0.021575
   4 H        0.074987        0.000679       -0.022254       -0.021575
   5 H        0.067360        0.005203       -0.012877       -0.007674
   6 H        0.067360        0.005203       -0.012877       -0.007674
   7 O       -0.139000        1.422688       -0.538143        0.884545
   8 H        0.138893        0.140722       -0.025401        0.115321
  --------------------------------------------------------------------
  Sum:       -1.000000        1.577015       -1.577015       -0.000000
  
  Multipole moment analysis of the density matrix
    Molecular charge:                      -1.000000
    Number of electrons:                   26.000000
      Center of electronic charge [Ang]: [  0.000000,   0.000000,   0.139882]
    Total nuclear charge:                  25.000000
      Center of nuclear charge [Ang]:    [ -0.000000,  -0.000000,   0.000000]
    Dipole moment [D]:                     17.468899
      Cartesian components [D]:          [ -0.000000,  -0.000000, -17.468899]
    RMS size of the density [Ang]:         5.007596
      Cartesian components [Ang]:        [  1.031164,   0.595577,   4.863950]
  
  Exciton analysis of the difference density matrix
    <r_h> [Ang]:                  [ -0.000000,   0.000000,  -6.348820]
    <r_e> [Ang]:                  [  0.000000,   0.000000,  -0.176439]
    |<r_e - r_h>| [Ang]:            6.172381
    Hole size [Ang]:                1.735685
      Cartesian components [Ang]: [  0.908245,   0.805192,   1.240709]
    Electron size [Ang]:            6.390604
      Cartesian components [Ang]: [  2.893766,   1.705115,   5.436775]

  Transition density matrix analysis:
  -----------------------------------
  
  CT numbers (Mulliken)
    omega =     0.8417
    <Phe> =     0.0000
  
  Exciton analysis of the transition density matrix
    Trans. dipole moment [D]:             0.076536
      Cartesian components [D]:         [ -0.000000,   0.000000,   0.076536]
    <r_h> [Ang]:                        [  0.000000,  -0.000000,  -6.397370]
    <r_e> [Ang]:                        [  0.000000,   0.000000,   3.265090]
    |<r_e - r_h>| [Ang]:                  9.662460
    Hole size [Ang]:                      1.091680
      Cartesian components [Ang]:       [  0.842134,   0.486210,   0.496162]
    Electron size [Ang]:                  5.437658
      Cartesian components [Ang]:       [  3.589420,   2.046131,   3.535185]
    RMS electron-hole separation [Ang]:  11.140907
      Cartesian components [Ang]:       [  3.686362,   2.103104,  10.300849]
    Covariance(r_h, r_e) [Ang^2]:         0.001608
    Correlation coefficient:              0.000271
    Center-of-mass size [Ang]:            2.773225
      Cartesian components [Ang]:       [  1.843705,   1.051553,   1.784871]

  Decomposition into state-averaged NTOs
    H- 0 -> L+ 0:  0.5115 ( 52.3%)
    H- 0 -> L+ 5:  0.3393 ( 23.0%)
    H- 0 -> L+ 4:  0.2059 (  8.5%)
                   omega =  84.2%
  ----------------------------------------------------------------------------


  Excited state 4 (singlet, A1)                                    [converged]
  ----------------------------------------------------------------------------
  Term symbol:  5 (1) A1                                    R^2 =  1.22404e-09

  Total energy:                                           -153.8094969726 a.u.
  Excitation energy:                                               4.005982 eV

  Osc. strength:                                                      0.000016
  Trans. dip. moment [a.u.]:           [   0.000000,   -0.000000,   -0.012960]
  <i|r^2|0> [a.u.]:                    [   0.097418,    0.027525,   -0.300168]

  Dip. moment [a.u.]:                  [  -0.000000,   -0.000000,   -7.593014]
  Total dipole [Debye]:                                              19.299521
  <r^2> [a.u.]:                        [  96.286070,   30.669688, 2176.143076]
  Total <r^2> [a.u.]:                                              2303.098834

  V1^2 = 0.8508, V2^2 = 0.1492

  Important amplitudes:
      occ i      occ j       vir a       vir b          v   
    ---------------------------------------------------------
     4 (B1) A               7 (B1) A                 -0.6474
     4 (B1) A   4 (B1) B    7 (B1) A   11 (B1) B     -0.0657
    ---------------------------------------------------------

  Density matrix analysis:
  ------------------------
  NOs
    Occupation of frontier NOs:
       0.9560   0.9941
    Number of electrons: 26.000000
    Number of unpaired electrons: n_u =  2.76361, n_u,nl =  2.12385
    NO participation ratio (PR_NO):  3.944844
  
  
  Mulliken Population Analysis
  Atom      Charge (e)              h+              e-           Del q
  --------------------------------------------------------------------
   1 C       -0.637991        0.023200       -0.489582       -0.466381
   2 C       -0.637991        0.023200       -0.489582       -0.466381
   3 H        0.071946        0.001742       -0.026358       -0.024616
   4 H        0.071946        0.001742       -0.026358       -0.024616
   5 H        0.066088        0.004781       -0.013728       -0.008947
   6 H        0.066088        0.004781       -0.013728       -0.008947
   7 O       -0.138903        1.417327       -0.532684        0.884643
   8 H        0.138818        0.140607       -0.025361        0.115246
  --------------------------------------------------------------------
  Sum:       -1.000000        1.617381       -1.617381       -0.000000
  
  Multipole moment analysis of the density matrix
    Molecular charge:                      -1.000000
    Number of electrons:                   26.000000
      Center of electronic charge [Ang]: [  0.000000,   0.000000,   0.154540]
    Total nuclear charge:                  25.000000
      Center of nuclear charge [Ang]:    [ -0.000000,  -0.000000,   0.000000]
    Dipole moment [D]:                     19.299515
      Cartesian components [D]:          [ -0.000000,  -0.000000, -19.299515]
    RMS size of the density [Ang]:         4.978077
      Cartesian components [Ang]:        [  1.018348,   0.574737,   4.838790]
  
  Exciton analysis of the difference density matrix
    <r_h> [Ang]:                  [ -0.000000,   0.000000,  -6.070661]
    <r_e> [Ang]:                  [  0.000000,   0.000000,   0.183317]
    |<r_e - r_h>| [Ang]:            6.253978
    Hole size [Ang]:                2.380909
      Cartesian components [Ang]: [  0.919852,   0.801988,   2.044362]
    Electron size [Ang]:            5.952374
      Cartesian components [Ang]: [  2.790062,   1.566469,   5.019211]

  Transition density matrix analysis:
  -----------------------------------
  
  CT numbers (Mulliken)
    omega =     0.8361
    <Phe> =    -0.0000
  
  Exciton analysis of the transition density matrix
    Trans. dipole moment [D]:             0.016470
      Cartesian components [D]:         [  0.000000,  -0.000000,  -0.016470]
    <r_h> [Ang]:                        [  0.000000,  -0.000000,  -6.397210]
    <r_e> [Ang]:                        [  0.000000,   0.000000,   3.658164]
    |<r_e - r_h>| [Ang]:                 10.055374
    Hole size [Ang]:                      1.092374
      Cartesian components [Ang]:       [  0.842039,   0.486150,   0.497906]
    Electron size [Ang]:                  4.401499
      Cartesian components [Ang]:       [  3.498531,   1.879479,   1.897637]
    RMS electron-hole separation [Ang]:  11.030806
      Cartesian components [Ang]:       [  3.598115,   1.941325,  10.245169]
    Covariance(r_h, r_e) [Ang^2]:        -0.000822
    Correlation coefficient:             -0.000171
    Center-of-mass size [Ang]:            2.267423
      Cartesian components [Ang]:       [  1.799380,   0.970673,   0.980425]

  Decomposition into state-averaged NTOs
    H- 0 -> L+ 7:  0.5079 ( 51.6%)
    H- 0 -> L+ 5:  0.3360 ( 22.6%)
    H- 0 -> L+ 0: -0.2081 (  8.7%)
                   omega =  83.6%
  ----------------------------------------------------------------------------


  Excited state 5 (singlet, A1)                                    [converged]
  ----------------------------------------------------------------------------
  Term symbol:  6 (1) A1                                    R^2 =  6.63197e-09

  Total energy:                                           -153.7618299512 a.u.
  Excitation energy:                                               5.303068 eV

  Osc. strength:                                                      0.000171
  Trans. dip. moment [a.u.]:           [  -0.000000,    0.000000,   -0.036252]
  <i|r^2|0> [a.u.]:                    [   0.253315,    0.034810,   -0.422469]

  Dip. moment [a.u.]:                  [  -0.000000,   -0.000000,   -7.449461]
  Total dipole [Debye]:                                              18.934645
  <r^2> [a.u.]:                        [  79.958459,   28.011191, 2188.807223]
  Total <r^2> [a.u.]:                                              2296.776873

  V1^2 = 0.8527, V2^2 = 0.1473

  Important amplitudes:
      occ i      occ j       vir a       vir b          v   
    ---------------------------------------------------------
     4 (B1) A               8 (B1) A                  0.6489
     4 (B1) A   4 (B1) B    8 (B1) A   11 (B1) B      0.0657
    ---------------------------------------------------------

  Density matrix analysis:
  ------------------------
  NOs
    Occupation of frontier NOs:
       0.9531   0.9991
    Number of electrons: 26.000000
    Number of unpaired electrons: n_u =  2.75902, n_u,nl =  2.12168
    NO participation ratio (PR_NO):  3.923907
  
  
  Mulliken Population Analysis
  Atom      Charge (e)              h+              e-           Del q
  --------------------------------------------------------------------
   1 C       -0.929885        0.011386       -0.769660       -0.758275
   2 C       -0.929885        0.011386       -0.769660       -0.758275
   3 H        0.222606        0.001345        0.124699        0.126044
   4 H        0.222606        0.001345        0.124699        0.126044
   5 H        0.208094        0.006143        0.126915        0.133059
   6 H        0.208094        0.006143        0.126915        0.133059
   7 O       -0.140009        1.418137       -0.534601        0.883536
   8 H        0.138378        0.140038       -0.025231        0.114807
  --------------------------------------------------------------------
  Sum:       -1.000000        1.595923       -1.595923       -0.000000
  
  Multipole moment analysis of the density matrix
    Molecular charge:                      -1.000000
    Number of electrons:                   26.000000
      Center of electronic charge [Ang]: [  0.000000,   0.000000,   0.151619]
    Total nuclear charge:                  25.000000
      Center of nuclear charge [Ang]:    [ -0.000000,  -0.000000,   0.000000]
    Dipole moment [D]:                     18.934640
      Cartesian components [D]:          [ -0.000000,  -0.000000, -18.934640]
    RMS size of the density [Ang]:         4.971323
      Cartesian components [Ang]:        [  0.927997,   0.549263,   4.852956]
  
  Exciton analysis of the difference density matrix
    <r_h> [Ang]:                  [ -0.000000,   0.000000,  -6.198681]
    <r_e> [Ang]:                  [  0.000000,   0.000000,   0.091784]
    |<r_e - r_h>| [Ang]:            6.290465
    Hole size [Ang]:                2.114011
      Cartesian components [Ang]: [  0.910263,   0.805860,   1.729466]
    Electron size [Ang]:            5.884114
      Cartesian components [Ang]: [  2.235008,   1.420536,   5.254486]

  Transition density matrix analysis:
  -----------------------------------
  
  CT numbers (Mulliken)
    omega =     0.8376
    <Phe> =    -0.0000
  
  Exciton analysis of the transition density matrix
    Trans. dipole moment [D]:             0.046072
      Cartesian components [D]:         [  0.000000,   0.000000,  -0.046072]
    <r_h> [Ang]:                        [  0.000000,  -0.000000,  -6.397221]
    <r_e> [Ang]:                        [  0.000000,   0.000000,   3.579681]
    |<r_e - r_h>| [Ang]:                  9.976902
    Hole size [Ang]:                      1.092179
      Cartesian components [Ang]:       [  0.841953,   0.486180,   0.497595]
    Electron size [Ang]:                  4.259402
      Cartesian components [Ang]:       [  2.760385,   1.670182,   2.780877]
    RMS electron-hole separation [Ang]:  10.903041
      Cartesian components [Ang]:       [  2.885757,   1.739506,  10.369322]
    Covariance(r_h, r_e) [Ang^2]:        -0.001182
    Correlation coefficient:             -0.000254
    Center-of-mass size [Ang]:            2.198465
      Cartesian components [Ang]:       [  1.443054,   0.869752,   1.412224]

  Decomposition into state-averaged NTOs
    H- 0 -> L+ 5:  0.4107 ( 33.7%)
    H- 0 -> L+ 4: -0.3903 ( 30.5%)
    H- 0 -> L+ 7: -0.2796 ( 15.6%)
    H- 0 -> L+ 0: -0.1394 (  3.9%)
                   omega =  83.8%
  ----------------------------------------------------------------------------


  Excited state 6 (singlet, A1)                                    [converged]
  ----------------------------------------------------------------------------
  Term symbol:  7 (1) A1                                    R^2 =  4.46026e-09

  Total energy:                                           -153.7586790295 a.u.
  Excitation energy:                                               5.388809 eV

  Osc. strength:                                                      0.000054
  Trans. dip. moment [a.u.]:           [   0.000000,    0.000000,    0.020139]
  <i|r^2|0> [a.u.]:                    [  -0.014841,   -0.087866,    0.281606]

  Dip. moment [a.u.]:                  [   0.000000,   -0.000000,   -7.551544]
  Total dipole [Debye]:                                              19.194114
  <r^2> [a.u.]:                        [  64.157498,   44.431920, 2173.484509]
  Total <r^2> [a.u.]:                                              2282.073927

  V1^2 = 0.8502, V2^2 = 0.1498

  Important amplitudes:
      occ i      occ j       vir a       vir b          v   
    ---------------------------------------------------------
     2 (B2) A               4 (B2) A                  0.6412
     7 (A1) A               8 (A1) A                  0.1135
    ---------------------------------------------------------

  Density matrix analysis:
  ------------------------
  NOs
    Occupation of frontier NOs:
       0.9622   0.9872
    Number of electrons: 26.000000
    Number of unpaired electrons: n_u =  2.82058, n_u,nl =  2.14393
    NO participation ratio (PR_NO):  4.101601
  
  
  Mulliken Population Analysis
  Atom      Charge (e)              h+              e-           Del q
  --------------------------------------------------------------------
   1 C       -0.624116        0.046092       -0.498598       -0.452507
   2 C       -0.624116        0.046092       -0.498598       -0.452507
   3 H        0.067966       -0.001278       -0.027318       -0.028596
   4 H        0.067966       -0.001278       -0.027318       -0.028596
   5 H        0.056240       -0.001027       -0.017767       -0.018794
   6 H        0.056240       -0.001027       -0.017767       -0.018794
   7 O       -0.144132        1.397299       -0.517885        0.879414
   8 H        0.143952        0.145113       -0.024732        0.120381
  --------------------------------------------------------------------
  Sum:       -1.000000        1.629983       -1.629983        0.000000
  
  Multipole moment analysis of the density matrix
    Molecular charge:                      -1.000000
    Number of electrons:                   26.000000
      Center of electronic charge [Ang]: [ -0.000000,   0.000000,   0.153696]
    Total nuclear charge:                  25.000000
      Center of nuclear charge [Ang]:    [ -0.000000,  -0.000000,   0.000000]
    Dipole moment [D]:                     19.194108
      Cartesian components [D]:          [  0.000000,  -0.000000, -19.194108]
    RMS size of the density [Ang]:         4.955306
      Cartesian components [Ang]:        [  0.831262,   0.691770,   4.835857]
  
  Exciton analysis of the difference density matrix
    <r_h> [Ang]:                  [ -0.000000,  -0.000000,  -5.901979]
    <r_e> [Ang]:                  [  0.000000,   0.000000,   0.290181]
    |<r_e - r_h>| [Ang]:            6.192159
    Hole size [Ang]:                2.687366
      Cartesian components [Ang]: [  0.822911,   0.899106,   2.395070]
    Electron size [Ang]:            5.599671
      Cartesian components [Ang]: [  1.429061,   2.229206,   4.934038]

  Transition density matrix analysis:
  -----------------------------------
  
  CT numbers (Mulliken)
    omega =     0.8344
    <Phe> =     0.0002
  
  Exciton analysis of the transition density matrix
    Trans. dipole moment [D]:             0.025594
      Cartesian components [D]:         [ -0.000000,   0.000000,   0.025594]
    <r_h> [Ang]:                        [ -0.000000,  -0.000000,  -6.397761]
    <r_e> [Ang]:                        [  0.000000,   0.000000,   3.637540]
    |<r_e - r_h>| [Ang]:                 10.035300
    Hole size [Ang]:                      1.093592
      Cartesian components [Ang]:       [  0.484159,   0.831870,   0.519159]
    Electron size [Ang]:                  3.670763
      Cartesian components [Ang]:       [  1.654434,   2.783493,   1.729022]
    RMS electron-hole separation [Ang]:  10.742298
      Cartesian components [Ang]:       [  1.723821,   2.904628,  10.197478]
    Covariance(r_h, r_e) [Ang^2]:        -0.009638
    Correlation coefficient:             -0.002401
    Center-of-mass size [Ang]:            1.913842
      Cartesian components [Ang]:       [  0.861912,   1.452826,   0.899554]

  Decomposition into state-averaged NTOs
    H- 2 -> L+ 8:  0.5994 ( 71.9%)
    H- 2 -> L+ 3:  0.2117 (  9.0%)
    H- 1 -> L+ 1: -0.1034 (  2.1%)
                   omega =  83.4%
  ----------------------------------------------------------------------------


  Excited state 7 (singlet, A1)                                    [converged]
  ----------------------------------------------------------------------------
  Term symbol:  8 (1) A1                                    R^2 =  2.95719e-08

  Total energy:                                           -153.7585456092 a.u.
  Excitation energy:                                               5.392439 eV

  Osc. strength:                                                      0.000226
  Trans. dip. moment [a.u.]:           [  -0.000000,    0.000000,   -0.041396]
  <i|r^2|0> [a.u.]:                    [   0.017824,    0.005364,   -0.815722]

  Dip. moment [a.u.]:                  [   0.000000,   -0.000000,   -7.634327]
  Total dipole [Debye]:                                              19.404528
  <r^2> [a.u.]:                        [  70.911010,   34.250455, 2209.508861]
  Total <r^2> [a.u.]:                                              2314.670326

  V1^2 = 0.8593, V2^2 = 0.1407

  Important amplitudes:
      occ i      occ j       vir a       vir b          v   
    ---------------------------------------------------------
     7 (A1) A               8 (A1) A                 -0.6346
     2 (B2) A               4 (B2) A                  0.1146
    ---------------------------------------------------------

  Density matrix analysis:
  ------------------------
  NOs
    Occupation of frontier NOs:
       0.9666   1.0047
    Number of electrons: 26.000000
    Number of unpaired electrons: n_u =  2.85265, n_u,nl =  2.16256
    NO participation ratio (PR_NO):  4.132084
  
  
  Mulliken Population Analysis
  Atom      Charge (e)              h+              e-           Del q
  --------------------------------------------------------------------
   1 C       -0.641987        0.006678       -0.477055       -0.470377
   2 C       -0.641987        0.006678       -0.477055       -0.470377
   3 H        0.076343        0.000368       -0.020587       -0.020219
   4 H        0.076343        0.000368       -0.020587       -0.020219
   5 H        0.066289        0.006468       -0.015213       -0.008745
   6 H        0.066289        0.006468       -0.015213       -0.008745
   7 O       -0.317516        1.240384       -0.534354        0.706030
   8 H        0.316225        0.310799       -0.018145        0.292654
  --------------------------------------------------------------------
  Sum:       -1.000000        1.578209       -1.578209       -0.000000
  
  Multipole moment analysis of the density matrix
    Molecular charge:                      -1.000000
    Number of electrons:                   26.000000
      Center of electronic charge [Ang]: [ -0.000000,   0.000000,   0.155381]
    Total nuclear charge:                  25.000000
      Center of nuclear charge [Ang]:    [ -0.000000,  -0.000000,   0.000000]
    Dipole moment [D]:                     19.404522
      Cartesian components [D]:          [  0.000000,  -0.000000, -19.404522]
    RMS size of the density [Ang]:         4.990553
      Cartesian components [Ang]:        [  0.873919,   0.607362,   4.875755]
  
  Exciton analysis of the difference density matrix
    <r_h> [Ang]:                  [  0.000000,   0.000000,  -6.265435]
    <r_e> [Ang]:                  [ -0.000000,   0.000000,   0.157621]
    |<r_e - r_h>| [Ang]:            6.423055
    Hole size [Ang]:                1.965339
      Cartesian components [Ang]: [  0.796258,   0.795878,   1.610934]
    Electron size [Ang]:            6.157443
      Cartesian components [Ang]: [  1.800596,   1.767584,   5.616726]

  Transition density matrix analysis:
  -----------------------------------
  
  CT numbers (Mulliken)
    omega =     0.8429
    <Phe> =     0.0000
  
  Exciton analysis of the transition density matrix
    Trans. dipole moment [D]:             0.052609
      Cartesian components [D]:         [ -0.000000,   0.000000,  -0.052609]
    <r_h> [Ang]:                        [  0.000000,  -0.000000,  -6.441192]
    <r_e> [Ang]:                        [ -0.000000,   0.000000,   3.681849]
    |<r_e - r_h>| [Ang]:                 10.123042
    Hole size [Ang]:                      1.009059
      Cartesian components [Ang]:       [  0.422792,   0.439582,   0.803875]
    Electron size [Ang]:                  4.726700
      Cartesian components [Ang]:       [  2.162488,   2.124838,   3.626349]
    RMS electron-hole separation [Ang]:  11.217961
      Cartesian components [Ang]:       [  2.203591,   2.170281,  10.783168]
    Covariance(r_h, r_e) [Ang^2]:        -0.003386
    Correlation coefficient:             -0.000710
    Center-of-mass size [Ang]:            2.416253
      Cartesian components [Ang]:       [  1.101635,   1.084691,   1.856913]

  Decomposition into state-averaged NTOs
    H- 1 -> L+ 1:  0.5789 ( 67.0%)
    H- 1 -> L+ 2: -0.2291 ( 10.5%)
    H- 1 -> L+ 6:  0.1446 (  4.2%)
    H- 2 -> L+ 8:  0.1071 (  2.3%)
                   omega =  84.3%
  ----------------------------------------------------------------------------


  Excited state 8 (singlet, A1)                                    [converged]
  ----------------------------------------------------------------------------
  Term symbol:  9 (1) A1                                    R^2 =  7.37466e-08

  Total energy:                                           -153.7383446504 a.u.
  Excitation energy:                                               5.942135 eV

  Osc. strength:                                                      0.000018
  Trans. dip. moment [a.u.]:           [  -0.000000,    0.000000,   -0.011083]
  <i|r^2|0> [a.u.]:                    [  -0.001850,    0.003094,   -0.217792]

  Dip. moment [a.u.]:                  [   0.000000,   -0.000000,   -7.544289]
  Total dipole [Debye]:                                              19.175673
  <r^2> [a.u.]:                        [ 121.418983,   32.036974, 2175.247980]
  Total <r^2> [a.u.]:                                              2328.703936

  V1^2 = 0.8576, V2^2 = 0.1424

  Important amplitudes:
      occ i      occ j       vir a       vir b          v   
    ---------------------------------------------------------
     7 (A1) A               9 (A1) A                  0.6474
     7 (A1) A               8 (A1) A                  0.0855
    ---------------------------------------------------------

  Density matrix analysis:
  ------------------------
  NOs
    Occupation of frontier NOs:
       0.9735   0.9985
    Number of electrons: 26.000000
    Number of unpaired electrons: n_u =  2.80526, n_u,nl =  2.14033
    NO participation ratio (PR_NO):  3.969311
  
  
  Mulliken Population Analysis
  Atom      Charge (e)              h+              e-           Del q
  --------------------------------------------------------------------
   1 C       -0.681350        0.007194       -0.516934       -0.509741
   2 C       -0.681350        0.007194       -0.516934       -0.509741
   3 H        0.096026        0.000115       -0.000651       -0.000536
   4 H        0.096026        0.000115       -0.000651       -0.000536
   5 H        0.085375        0.005443        0.004897        0.010340
   6 H        0.085375        0.005443        0.004897        0.010340
   7 O       -0.323334        1.249066       -0.548855        0.700212
   8 H        0.323233        0.318133       -0.018472        0.299661
  --------------------------------------------------------------------
  Sum:       -1.000000        1.592702       -1.592702       -0.000000
  
  Multipole moment analysis of the density matrix
    Molecular charge:                      -1.000000
    Number of electrons:                   26.000000
      Center of electronic charge [Ang]: [ -0.000000,   0.000000,   0.153549]
    Total nuclear charge:                  25.000000
      Center of nuclear charge [Ang]:    [ -0.000000,  -0.000000,   0.000000]
    Dipole moment [D]:                     19.175667
      Cartesian components [D]:          [  0.000000,  -0.000000, -19.175667]
    RMS size of the density [Ang]:         5.005729
      Cartesian components [Ang]:        [  1.143557,   0.587408,   4.837826]
  
  Exciton analysis of the difference density matrix
    <r_h> [Ang]:                  [  0.000000,   0.000000,  -6.280880]
    <r_e> [Ang]:                  [ -0.000000,   0.000000,   0.053814]
    |<r_e - r_h>| [Ang]:            6.334694
    Hole size [Ang]:                1.915606
      Cartesian components [Ang]: [  0.798107,   0.783570,   1.555181]
    Electron size [Ang]:            6.360137
      Cartesian components [Ang]: [  3.478745,   1.641059,   5.065235]

  Transition density matrix analysis:
  -----------------------------------
  
  CT numbers (Mulliken)
    omega =     0.8414
    <Phe> =    -0.0000
  
  Exciton analysis of the transition density matrix
    Trans. dipole moment [D]:             0.014086
      Cartesian components [D]:         [ -0.000000,   0.000000,  -0.014086]
    <r_h> [Ang]:                        [  0.000000,  -0.000000,  -6.443430]
    <r_e> [Ang]:                        [ -0.000000,   0.000000,   3.632291]
    |<r_e - r_h>| [Ang]:                 10.075721
    Hole size [Ang]:                      1.006343
      Cartesian components [Ang]:       [  0.420755,   0.420751,   0.811579]
    Electron size [Ang]:                  5.166006
      Cartesian components [Ang]:       [  4.343472,   1.971523,   1.983675]
    RMS electron-hole separation [Ang]:  11.367514
      Cartesian components [Ang]:       [  4.363744,   2.015921,  10.301173]
    Covariance(r_h, r_e) [Ang^2]:         0.000069
    Correlation coefficient:              0.000013
    Center-of-mass size [Ang]:            2.631562
      Cartesian components [Ang]:       [  2.181932,   1.007959,   1.071593]

  Decomposition into state-averaged NTOs
    H- 1 -> L+ 2:  0.6029 ( 72.7%)
    H- 1 -> L+ 1:  0.2108 (  8.9%)
    H- 1 -> L+ 6:  0.1128 (  2.5%)
                   omega =  84.1%
  ----------------------------------------------------------------------------


  Excited state 9 (singlet, A1)                                    [converged]
  ----------------------------------------------------------------------------
  Term symbol:  10 (1) A1                                   R^2 =  1.17918e-07

  Total energy:                                           -153.7104553242 a.u.
  Excitation energy:                                               6.701042 eV

  Osc. strength:                                                      0.000000
  Trans. dip. moment [a.u.]:           [   0.000000,    0.000000,    0.001691]
  <i|r^2|0> [a.u.]:                    [   2.225944,   -2.248273,    0.022586]

  Dip. moment [a.u.]:                  [   0.000000,   -0.000000,   11.176058]
  Total dipole [Debye]:                                              28.406712
  <r^2> [a.u.]:                        [  61.668691,   25.561182, 2264.150320]
  Total <r^2> [a.u.]:                                              2351.380193

  V1^2 = 0.9216, V2^2 = 0.0784

  Important amplitudes:
      occ i      occ j       vir a       vir b          v   
    ---------------------------------------------------------
     2 (B2) A               5 (B2) A                 -0.4787
     4 (B1) A              11 (B1) A                  0.4769
    ---------------------------------------------------------

  Density matrix analysis:
  ------------------------
  NOs
    Occupation of frontier NOs:
       0.5206   1.4595
    Number of electrons: 26.000000
    Number of unpaired electrons: n_u =  2.70706, n_u,nl =  2.48360
    NO participation ratio (PR_NO):  6.461823
  
  
  Mulliken Population Analysis
  Atom      Charge (e)              h+              e-           Del q
  --------------------------------------------------------------------
   1 C       -0.176991        0.000756       -0.006137       -0.005381
   2 C       -0.176991        0.000756       -0.006137       -0.005381
   3 H        0.097443       -0.000082        0.000963        0.000881
   4 H        0.097443       -0.000082        0.000963        0.000881
   5 H        0.075020       -0.000002       -0.000014       -0.000015
   6 H        0.075020       -0.000002       -0.000014       -0.000015
   7 O       -1.108592        1.148393       -1.233439       -0.085047
   8 H        0.117648        0.113835       -0.019758        0.094077
  --------------------------------------------------------------------
  Sum:       -1.000000        1.263571       -1.263571       -0.000000
  
  Multipole moment analysis of the density matrix
    Molecular charge:                      -1.000000
    Number of electrons:                   26.000000
      Center of electronic charge [Ang]: [ -0.000000,   0.000000,  -0.227466]
    Total nuclear charge:                  25.000000
      Center of nuclear charge [Ang]:    [ -0.000000,  -0.000000,   0.000000]
    Dipole moment [D]:                     28.406703
      Cartesian components [D]:          [  0.000000,  -0.000000,  28.406703]
    RMS size of the density [Ang]:         5.027265
      Cartesian components [Ang]:        [  0.814980,   0.524693,   4.932940]
  
  Exciton analysis of the difference density matrix
    <r_h> [Ang]:                  [  0.000000,  -0.000000,  -6.436751]
    <r_e> [Ang]:                  [  0.000000,   0.000000,  -6.292005]
    |<r_e - r_h>| [Ang]:            0.144746
    Hole size [Ang]:                1.302324
      Cartesian components [Ang]: [  0.749391,   0.745635,   0.760585]
    Electron size [Ang]:            2.281459
      Cartesian components [Ang]: [  1.330749,   1.319649,   1.301033]

  Transition density matrix analysis:
  -----------------------------------
  
  CT numbers (Mulliken)
    omega =     0.8987
    <Phe> =     0.0346
  
  Exciton analysis of the transition density matrix
    Trans. dipole moment [D]:             0.002149
      Cartesian components [D]:         [ -0.000000,   0.000000,   0.002149]
    <r_h> [Ang]:                        [  0.000000,  -0.000000,  -6.396461]
    <r_e> [Ang]:                        [  0.000000,   0.000000,  -6.282040]
    |<r_e - r_h>| [Ang]:                  0.114421
    Hole size [Ang]:                      1.069834
      Cartesian components [Ang]:       [  0.674647,   0.673116,   0.486119]
    Electron size [Ang]:                  2.495517
      Cartesian components [Ang]:       [  1.482955,   1.473189,   1.363145]
    RMS electron-hole separation [Ang]:   2.716200
      Cartesian components [Ang]:       [  1.628063,   1.618514,   1.451744]
    Covariance(r_h, r_e) [Ang^2]:         0.003752
    Correlation coefficient:              0.001405
    Center-of-mass size [Ang]:            1.358276
      Cartesian components [Ang]:       [  0.815172,   0.810425,   0.723616]

  Decomposition into state-averaged NTOs
    H- 0 -> L+ 9: -0.4748 ( 45.1%)
    H- 2 -> L+10: -0.4728 ( 44.7%)
                   omega =  89.9%
  ----------------------------------------------------------------------------


  Excited state 10 (singlet, A1)                                    [converged]
  ----------------------------------------------------------------------------
  Term symbol:  11 (1) A1                                   R^2 =  4.28685e-06

  Total energy:                                           -153.7098990964 a.u.
  Excitation energy:                                               6.716178 eV

  Osc. strength:                                                      0.000008
  Trans. dip. moment [a.u.]:           [   0.000000,   -0.000000,   -0.006872]
  <i|r^2|0> [a.u.]:                    [  -0.014401,    0.004035,   -0.126219]

  Dip. moment [a.u.]:                  [  -0.000000,    0.000000,   -7.472691]
  Total dipole [Debye]:                                              18.993689
  <r^2> [a.u.]:                        [  68.675636,   30.694240, 2170.557180]
  Total <r^2> [a.u.]:                                              2269.927055

  V1^2 = 0.8534, V2^2 = 0.1466

  Important amplitudes:
      occ i      occ j       vir a       vir b          v   
    ---------------------------------------------------------
     7 (A1) A              10 (A1) A                  0.6467
     7 (A1) A               8 (A1) A                  0.0646
    ---------------------------------------------------------

  Density matrix analysis:
  ------------------------
  NOs
    Occupation of frontier NOs:
       0.9737   0.9922
    Number of electrons: 26.000000
    Number of unpaired electrons: n_u =  2.81284, n_u,nl =  2.14177
    NO participation ratio (PR_NO):  4.014798
  
  
  Mulliken Population Analysis
  Atom      Charge (e)              h+              e-           Del q
  --------------------------------------------------------------------
   1 C       -0.763509        0.035178       -0.627077       -0.591899
   2 C       -0.763509        0.035178       -0.627077       -0.591899
   3 H        0.135972       -0.000950        0.040360        0.039410
   4 H        0.135972       -0.000950        0.040360        0.039410
   5 H        0.127587        0.000137        0.052416        0.052552
   6 H        0.127587        0.000137        0.052416        0.052552
   7 O       -0.322738        1.237488       -0.536681        0.700807
   8 H        0.322637        0.317123       -0.018057        0.299066
  --------------------------------------------------------------------
  Sum:       -1.000000        1.623341       -1.623341        0.000000
  
  Multipole moment analysis of the density matrix
    Molecular charge:                      -1.000000
    Number of electrons:                   26.000000
      Center of electronic charge [Ang]: [ -0.000000,  -0.000000,   0.152091]
    Total nuclear charge:                  25.000000
      Center of nuclear charge [Ang]:    [ -0.000000,  -0.000000,   0.000000]
    Dipole moment [D]:                     18.993683
      Cartesian components [D]:          [  0.000000,   0.000000, -18.993683]
    RMS size of the density [Ang]:         4.942138
      Cartesian components [Ang]:        [  0.860034,   0.574967,   4.832647]
  
  Exciton analysis of the difference density matrix
    <r_h> [Ang]:                  [  0.000000,   0.000000,  -6.019156]
    <r_e> [Ang]:                  [ -0.000000,  -0.000000,   0.172634]
    |<r_e - r_h>| [Ang]:            6.191790
    Hole size [Ang]:                2.474055
      Cartesian components [Ang]: [  0.795513,   0.791552,   2.204893]
    Electron size [Ang]:            5.437631
      Cartesian components [Ang]: [  1.668186,   1.560379,   4.934593]

  Transition density matrix analysis:
  -----------------------------------
  
  CT numbers (Mulliken)
    omega =     0.8359
    <Phe> =    -0.0000
  
  Exciton analysis of the transition density matrix
    Trans. dipole moment [D]:             0.008734
      Cartesian components [D]:         [ -0.000000,  -0.000000,  -0.008734]
    <r_h> [Ang]:                        [  0.000000,  -0.000000,  -6.443429]
    <r_e> [Ang]:                        [ -0.000000,  -0.000000,   3.589120]
    |<r_e - r_h>| [Ang]:                 10.032549
    Hole size [Ang]:                      1.006940
      Cartesian components [Ang]:       [  0.420571,   0.420500,   0.812544]
    Electron size [Ang]:                  3.209458
      Cartesian components [Ang]:       [  2.002170,   1.862279,   1.680433]
    RMS electron-hole separation [Ang]:  10.581689
      Cartesian components [Ang]:       [  2.045534,   1.909282,  10.205027]
    Covariance(r_h, r_e) [Ang^2]:        -0.002774
    Correlation coefficient:             -0.000858
    Center-of-mass size [Ang]:            1.681443
      Cartesian components [Ang]:       [  1.023098,   0.954522,   0.932421]

  Decomposition into state-averaged NTOs
    H- 1 -> L+ 6: -0.6190 ( 76.6%)
    H- 1 -> L+ 1:  0.1780 (  6.3%)
                   omega =  83.6%
  ----------------------------------------------------------------------------


--------------------------------------------------------------------------------
  Time of ADC calculation:  CPU 290.58 s  wall 75.97 s
================================================================================
 
 --------------------------------------------------------------
             Orbital Energies (a.u.) and Symmetries
 --------------------------------------------------------------
 
 Alpha MOs, Restricted
 -- Occupied --                  
-20.198 -11.183 -11.181  -0.988  -0.905  -0.728  -0.607  -0.513
  1 A1    2 A1    1 B1    3 A1    4 A1    2 B1    5 A1    6 A1                 
 -0.461  -0.323  -0.252  -0.108  -0.108
  3 B1    1 B2    7 A1    2 B2    4 B1                                         
 -- Virtual --                   
  0.090   0.102   0.102   0.114   0.117   0.122   0.157   0.187
  5 B1    3 B2    8 A1    1 A2    9 A1    6 B1   10 A1    2 A2                 
  0.206   0.239   0.255   0.260   0.269   0.312   0.320   0.337
  7 B1   11 A1    8 B1    4 B2   12 A1    9 B1   13 A1    3 A2                 
  0.379   0.396   0.403   0.443   0.443   0.456   0.538   0.572
 14 A1   15 A1   10 B1    5 B2   11 B1   16 A1   12 B1   13 B1                 
  0.585   0.765   0.852   0.915   0.949   0.950   0.987   1.002
 17 A1   18 A1   19 A1   20 A1    6 B2   21 A1   14 B1    4 A2                 
  1.029   1.083   1.112   1.168   1.173   1.269   1.269   1.323
 15 B1   22 A1   16 B1    7 B2   23 A1    8 B2   17 B1    5 A2                 
  1.323   1.337   1.338   1.388   1.400   1.545   1.662   1.669
 24 A1    9 B2    6 A2   18 B1   19 B1   25 A1   26 A1   20 B1                 
  1.729   1.729   1.755   1.906   1.965   1.974   1.993   2.048
 10 B2   21 B1   27 A1    7 A2   22 B1   28 A1   11 B2   29 A1                 
  2.071   2.103   2.226   2.352   2.379   2.379   2.466   2.498
 12 B2   30 A1    8 A2   23 B1   13 B2   24 B1    9 A2   31 A1                 
  2.538   2.610   2.624   2.852   2.857   3.038   3.310   3.394
 32 A1   25 B1   26 B1   33 A1   34 A1   35 A1   27 B1   28 B1                 
  3.930   3.930   3.959   3.959   4.406
 29 B1   14 B2   10 A2   36 A1   37 A1                                         
 
 Beta MOs, Restricted
 -- Occupied --                  
-20.198 -11.183 -11.181  -0.988  -0.905  -0.728  -0.607  -0.513
  1 A1    2 A1    1 B1    3 A1    4 A1    2 B1    5 A1    6 A1                 
 -0.461  -0.323  -0.252  -0.108  -0.108
  3 B1    1 B2    7 A1    2 B2    4 B1                                         
 -- Virtual --                   
  0.090   0.102   0.102   0.114   0.117   0.122   0.157   0.187
  5 B1    3 B2    8 A1    1 A2    9 A1    6 B1   10 A1    2 A2                 
  0.206   0.239   0.255   0.260   0.269   0.312   0.320   0.337
  7 B1   11 A1    8 B1    4 B2   12 A1    9 B1   13 A1    3 A2                 
  0.379   0.396   0.403   0.443   0.443   0.456   0.538   0.572
 14 A1   15 A1   10 B1    5 B2   11 B1   16 A1   12 B1   13 B1                 
  0.585   0.765   0.852   0.915   0.949   0.950   0.987   1.002
 17 A1   18 A1   19 A1   20 A1    6 B2   21 A1   14 B1    4 A2                 
  1.029   1.083   1.112   1.168   1.173   1.269   1.269   1.323
 15 B1   22 A1   16 B1    7 B2   23 A1    8 B2   17 B1    5 A2                 
  1.323   1.337   1.338   1.388   1.400   1.545   1.662   1.669
 24 A1    9 B2    6 A2   18 B1   19 B1   25 A1   26 A1   20 B1                 
  1.729   1.729   1.755   1.906   1.965   1.974   1.993   2.048
 10 B2   21 B1   27 A1    7 A2   22 B1   28 A1   11 B2   29 A1                 
  2.071   2.103   2.226   2.352   2.379   2.379   2.466   2.498
 12 B2   30 A1    8 A2   23 B1   13 B2   24 B1    9 A2   31 A1                 
  2.538   2.610   2.624   2.852   2.857   3.038   3.310   3.394
 32 A1   25 B1   26 B1   33 A1   34 A1   35 A1   27 B1   28 B1                 
  3.930   3.930   3.959   3.959   4.406
 29 B1   14 B2   10 A2   36 A1   37 A1                                         
 --------------------------------------------------------------
 
          Ground-State Mulliken Net Atomic Charges

     Atom                 Charge (a.u.)
  ----------------------------------------
      1 C                    -0.157215
      2 C                    -0.157215
      3 H                     0.089399
      4 H                     0.089399
      5 H                     0.067813
      6 H                     0.067813
      7 O                    -1.035752
      8 H                     0.035758
  ----------------------------------------
  Sum of atomic charges =    -1.000000

 -----------------------------------------------------------------
                    Cartesian Multipole Moments
 -----------------------------------------------------------------
    Charge (ESU x 10^10)
                -4.8032
    Dipole Moment (Debye)
         X       0.0000      Y       0.0000      Z      29.1869
       Tot      29.1869
    Quadrupole Moments (Debye-Ang)
        XX     -23.0603     XY       0.0000     YY     -26.2446
        XZ       0.0000     YZ      -0.0000     ZZ    -199.3605
    Octopole Moments (Debye-Ang^2)
       XXX       0.0000    XXY       0.0000    XYY      -0.0000
       YYY       0.0000    XXZ      17.5273    XYZ       0.0000
       YYZ       6.1418    XZZ       0.0000    YZZ       0.0000
       ZZZ    1093.5399
    Hexadecapole Moments (Debye-Ang^3)
      XXXX     -84.2431   XXXY       0.0000   XXYY     -20.8750
      XYYY       0.0000   YYYY     -37.3405   XXXZ       0.0000
      XXYZ      -0.0000   XYYZ      -0.0000   YYYZ      -0.0000
      XXZZ    -607.6520   XYZZ       0.0000   YYZZ    -644.0149
      XZZZ       0.0000   YZZZ      -0.0000   ZZZZ   -9443.9242
 -----------------------------------------------------------------
 Total job time:  184.69s(wall), 339.05s(cpu) 
 Tue Mar  1 22:32:50 2022

        *************************************************************
        *                                                           *
        *  Thank you very much for using Q-Chem.  Have a nice day.  *
        *                                                           *
        *************************************************************


