/src/tsommerfeld/qchem/exe/qcprog.exe .input0.890909.17207.qcin.1 /src/jdavis/qchem.scratch/qchem17207/

                  Welcome to Q-Chem
     A Quantum Leap Into The Future Of Chemistry


 Q-Chem 5.4 (devel), Q-Chem, Inc., Pleasanton, CA (2021)

 E. Epifanovsky,  A. T. B. Gilbert,  Xintian Feng,  Joonho Lee,  Yuezhi Mao,  
 N. Mardirossian,  P. Pokhilko,  A. White,  M. Wormit,  M. P. Coons,  
 A. L. Dempwolff,  Zhengting Gan,  D. Hait,  P. R. Horn,  L. D. Jacobson,  
 I. Kaliman,  J. Kussmann,  A. W. Lange,  Ka Un Lao,  D. S. Levine,  Jie Liu,  
 S. C. McKenzie,  A. F. Morrison,  K. Nanda,  F. Plasser,  D. R. Rehn,  
 M. L. Vidal,  Zhi-Qiang You,  Ying Zhu,  B. Alam,  B. Albrecht,  
 A. Aldossary,  E. Alguire,  J. H. Andersen,  D. Barton,  K. Begam,  A. Behn,  
 Y. A. Bernard,  E. J. Berquist,  H. Burton,  A. Carreras,  K. Carter-Fenk,  
 R. Chakraborty,  A. D. Chien,  K. D. Closser,  V. Cofer-Shabica,  
 S. Dasgupta,  Jia Deng,  M. de Wergifosse,  M. Diedenhofen,  Hainam Do,  
 S. Ehlert,  Po-Tung Fang,  S. Fatehi,  Qingguo Feng,  T. Friedhoff,  
 J. Gayvert,  Qinghui Ge,  G. Gidofalvi,  M. Goldey,  J. Gomes,  
 C. Gonzalez-Espinoza,  S. Gulania,  A. Gunina,  M. W. D. Hanson-Heine,  
 P. H. P. Harbach,  A. W. Hauser,  M. F. Herbst,  M. Hernandez Vera,  
 M. Hodecker,  Z. C. Holden,  S. Houck,  Xunkun Huang,  Kerwin Hui,  
 B. C. Huynh,  M. Ivanov,  Hyunjun Ji,  Hanjie Jiang,  B. Kaduk,  S. Kaehler,  
 K. Khistyaev,  Jaehoon Kim,  P. Klunzinger,  Z. Koczor-Benda,  
 Joong Hoon Koh,  D. Kosenkov,  L. Koulias,  T. Kowalczyk,  C. M. Krauter,  
 K. Kue,  A. Kunitsa,  T. Kus,  A. Landau,  K. V. Lawler,  D. Lefrancois,  
 S. Lehtola,  Rain Li,  Yi-Pei Li,  Jiashu Liang,  M. Liebenthal,  
 Hung-Hsuan Lin,  You-Sheng Lin,  Fenglai Liu,  Kuan-Yu Liu,  
 M. Loipersberger,  A. Luenser,  A. Manjanath,  P. Manohar,  E. Mansoor,  
 S. F. Manzer,  Shan-Ping Mao,  A. V. Marenich,  T. Markovich,  S. Mason,  
 S. A. Maurer,  P. F. McLaughlin,  M. F. S. J. Menger,  J.-M. Mewes,  
 S. A. Mewes,  P. Morgante,  J. W. Mullinax,  K. J. Oosterbaan,  G. Paran,  
 Alexander C. Paul,  Suranjan K. Paul,  F. Pavosevic,  Zheng Pei,  S. Prager,  
 E. I. Proynov,  E. Ramos,  B. Rana,  A. E. Rask,  A. Rettig,  R. M. Richard,  
 F. Rob,  E. Rossomme,  T. Scheele,  M. Scheurer,  M. Schneider,  
 N. Sergueev,  S. M. Sharada,  W. Skomorowski,  D. W. Small,  C. J. Stein,  
 Yu-Chuan Su,  E. J. Sundstrom,  Zhen Tao,  J. Thirman,  T. Tsuchimochi,  
 N. M. Tubman,  S. P. Veccham,  O. Vydrov,  J. Wenzel,  J. Witte,  A. Yamada,  
 Kun Yao,  S. Yeganeh,  S. R. Yost,  A. Zech,  Igor Ying Zhang,  Xing Zhang,  
 Yu Zhang,  D. Zuev,  A. Aspuru-Guzik,  A. T. Bell,  N. A. Besley,  
 K. B. Bravaya,  B. R. Brooks,  D. Casanova,  Jeng-Da Chai,  S. Coriani,  
 C. J. Cramer,  A. E. DePrince, III,  R. A. DiStasio Jr.,  A. Dreuw,  
 B. D. Dunietz,  T. R. Furlani,  W. A. Goddard III,  S. Grimme,  
 S. Hammes-Schiffer,  T. Head-Gordon,  W. J. Hehre,  Chao-Ping Hsu,  
 T.-C. Jagau,  Yousung Jung,  A. Klamt,  Jing Kong,  D. S. Lambrecht,  
 WanZhen Liang,  N. J. Mayhall,  C. W. McCurdy,  J. B. Neaton,  
 C. Ochsenfeld,  J. A. Parkhill,  R. Peverati,  V. A. Rassolov,  Yihan Shao,  
 L. V. Slipchenko,  T. Stauch,  R. P. Steele,  J. E. Subotnik,  
 A. J. W. Thom,  A. Tkatchenko,  D. G. Truhlar,  T. Van Voorhis,  
 T. A. Wesolowski,  K. B. Whaley,  H. L. Woodcock III,  P. M. Zimmerman,  
 S. Faraji,  P. M. W. Gill,  M. Head-Gordon,  J. M. Herbert,  A. I. Krylov

 Additional authors for Version 5.4.1: 
 S. Kotaru,  Shaozhi Li,  Xiangyuan Li,  F. Matz,  A. Molle,  Haisheng Ren,  
 Yingli Su,  Hung-Yi Tsai,  C. Utku,  Fang Wang

 Contributors to earlier versions of Q-Chem not listed above: 
 R. D. Adamson,  B. Austin,  R. Baer,  J. Baker,  G. J. O. Beran,  
 K. Brandhorst,  S. T. Brown,  E. F. C. Byrd,  A. K. Chakraborty,  
 G. K. L. Chan,  Chun-Min Chang,  Yunqing Chen,  C.-L. Cheng,  
 Siu Hung Chien,  D. M. Chipman,  D. L. Crittenden,  H. Dachsel,  
 R. J. Doerksen,  A. D. Dutoi,  R. G. Edgar,  J. Fosso-Tande,  
 L. Fusti-Molnar,  D. Ghosh,  A. Ghysels,  A. Golubeva-Zadorozhnaya,  
 J. Gonthier,  M. S. Gordon,  S. R. Gwaltney,  G. Hawkins,  J. E. Herr,  
 A. Heyden,  S. Hirata,  E. G. Hohenstein,  G. Kedziora,  F. J. Keil,  
 C. Kelley,  Jihan Kim,  R. A. King,  R. Z. Khaliullin,  P. P. Korambath,  
 W. Kurlancheek,  A. Laurent,  A. M. Lee,  M. S. Lee,  S. V. Levchenko,  
 Ching Yeh Lin,  D. Liotard,  E. Livshits,  R. C. Lochan,  I. Lotan,  
 L. A. Martinez-Martinez,  P. E. Maslen,  N. Nair,  D. P. O'Neill,  
 D. Neuhauser,  E. Neuscamman,  C. M. Oana,  R. Olivares-Amaya,  R. Olson,  
 T. M. Perrine,  B. Peters,  P. A. Pieniazek,  A. Prociuk,  Y. M. Rhee,  
 J. Ritchie,  M. A. Rohrdanz,  E. Rosta,  N. J. Russ,  H. F. Schaefer III,  
 M. W. Schmidt,  N. E. Schultz,  S. Sharma,  N. Shenvi,  C. D. Sherrill,  
 A. C. Simmonett,  A. Sodt,  T. Stein,  D. Stuck,  K. S. Thanthiriwatte,  
 V. Vanovschi,  L. Vogt,  Tao Wang,  A. Warshel,  M. A. Watson,  
 C. F. Williams,  Q. Wu,  X. Xu,  Jun Yang,  W. Zhang,  Yan Zhao

 Please cite Q-Chem as follows:
 Y. Shao et al., Mol. Phys. 113, 184-215 (2015)
 DOI: 10.1080/00268976.2014.952696

 Q-Chem 5.4.1 for Intel X86 EM64T Linux

 Parts of Q-Chem use Armadillo 9.900.5 (Nocturnal Misbehaviour).
 http://arma.sourceforge.net/

 Q-Chem begins on Tue Mar  1 22:20:26 2022  

 Host: node01
0

     Scratch files written to /src/jdavis/qchem.scratch/qchem17207//
 Processing $rem in /src/tsommerfeld/qchem/config/preferences:
 Processing $rem in /home/jdavis/.qchemrc:

 Checking the input file for inconsistencies... 	...done.

--------------------------------------------------------------
User input:
--------------------------------------------------------------
$molecule
-1 1
C        -0.6645000000    0.0000000000    3.6357614391
C         0.6645000000    0.0000000000    3.6357614391
H        -1.1590800000    0.0000000000    2.6734124391
H         1.1590800000    0.0000000000    2.6734124391
H        -1.1590800000    0.0000000000    4.5981094391
H         1.1590800000    0.0000000000    4.5981094391
O         0.0000000000    0.0000000000   -6.3644435413
H         0.0000000000    0.0000000000   -7.3299440706
$end
$rem
   METHOD adc(2)
   BASIS gen
   PURECART 11
   EE_STATES [10,0,0,0]
   scf_convergence 8
   ADC_DAVIDSON_MAXITER 120
   ADC_DAVIDSON_MAXSUBSPACE 200
   adc_nguess_singles 100
   THRESH 14
   S2THRESH 14
   adc_davidson_conv 5
   adc_davidson_thresh 14
   THREADS 10
   MEM_TOTAL 95000
   STATE_ANALYSIS TRUE
$end
$basis
C 1
S   9   1.00
      6.665000D+03           6.920000D-04
      1.000000D+03           5.329000D-03
      2.280000D+02           2.707700D-02
      6.471000D+01           1.017180D-01
      2.106000D+01           2.747400D-01
      7.495000D+00           4.485640D-01
      2.797000D+00           2.850740D-01
      5.215000D-01           1.520400D-02
      1.596000D-01          -3.191000D-03
S   9   1.00
      6.665000D+03          -1.460000D-04
      1.000000D+03          -1.154000D-03
      2.280000D+02          -5.725000D-03
      6.471000D+01          -2.331200D-02
      2.106000D+01          -6.395500D-02
      7.495000D+00          -1.499810D-01
      2.797000D+00          -1.272620D-01
      5.215000D-01           5.445290D-01
      1.596000D-01           5.804960D-01
S   1   1.00
      1.596000D-01           1.000000D+00
S   1   1.00
      0.0469000              1.0000000
P   4   1.00
      9.439000D+00           3.810900D-02
      2.002000D+00           2.094800D-01
      5.456000D-01           5.085570D-01
      1.517000D-01           4.688420D-01
P   1   1.00
      1.517000D-01           1.000000D+00
P   1   1.00
      0.0386145      1.0000000
P   1   1.00
      0.0193073      1.0000000
D   1   1.00
      5.500000D-01           1.0000000
****
C 2
S   9   1.00
      6.665000D+03           6.920000D-04
      1.000000D+03           5.329000D-03
      2.280000D+02           2.707700D-02
      6.471000D+01           1.017180D-01
      2.106000D+01           2.747400D-01
      7.495000D+00           4.485640D-01
      2.797000D+00           2.850740D-01
      5.215000D-01           1.520400D-02
      1.596000D-01          -3.191000D-03
S   9   1.00
      6.665000D+03          -1.460000D-04
      1.000000D+03          -1.154000D-03
      2.280000D+02          -5.725000D-03
      6.471000D+01          -2.331200D-02
      2.106000D+01          -6.395500D-02
      7.495000D+00          -1.499810D-01
      2.797000D+00          -1.272620D-01
      5.215000D-01           5.445290D-01
      1.596000D-01           5.804960D-01
S   1   1.00
      1.596000D-01           1.000000D+00
S   1   1.00
      0.0469000              1.0000000
P   4   1.00
      9.439000D+00           3.810900D-02
      2.002000D+00           2.094800D-01
      5.456000D-01           5.085570D-01
      1.517000D-01           4.688420D-01
P   1   1.00
      1.517000D-01           1.000000D+00
P   1   1.00
      0.0386145      1.0000000
P   1   1.00
      0.0193073      1.0000000
D   1   1.00
      5.500000D-01           1.0000000
****
H 3
cc-pVDZ
****
H 4
cc-pVDZ
****
H 5
cc-pVDZ
****
H 6
cc-pVDZ
****
O 7
aug-cc-pVDZ
****
H 8
cc-pVDZ
****
$end
--------------------------------------------------------------
 ----------------------------------------------------------------
             Standard Nuclear Orientation (Angstroms)
    I     Atom           X                Y                Z
 ----------------------------------------------------------------
    1      C      -0.6645000000    -0.0000000000     3.6386938941
    2      C       0.6645000000     0.0000000000     3.6386938941
    3      H      -1.1590800000    -0.0000000000     2.6763448941
    4      H       1.1590800000     0.0000000000     2.6763448941
    5      H      -1.1590800000    -0.0000000000     4.6010418941
    6      H       1.1590800000     0.0000000000     4.6010418941
    7      O       0.0000000000    -0.0000000000    -6.3615110863
    8      H       0.0000000000    -0.0000000000    -7.3270116156
 ----------------------------------------------------------------
 Molecular Point Group                 C2v   NOp =  4
 Largest Abelian Subgroup              C2v   NOp =  4
 Nuclear Repulsion Energy =          45.51143008 hartrees
 There are       13 alpha and       13 beta electrons
 Requested basis set is non-standard
 There are 42 shells and 90 basis functions
 Total memory of 95000 MB is distributed as follows: 
   MEM_STATIC is set to 192 MB
   QALLOC/CCMAN JOB total memory use is  94808 MB
 Warning: actual memory use might exceed 95000 MB

 Total QAlloc Memory Limit  95000 MB
 Mega-Array Size       188 MB
 MEM_STATIC part       192 MB

                       Distance Matrix (Angstroms)
             C (  1)   C (  2)   H (  3)   H (  4)   H (  5)   H (  6)
   C (  2)  1.329000
   H (  3)  1.082000  2.061931
   H (  4)  2.061931  1.082000  2.318160
   H (  5)  1.082000  2.061931  1.924697  3.013026
   H (  6)  2.061931  1.082000  3.013026  1.924697  2.318160
   O (  7) 10.022258 10.022258  9.111877  9.111877 11.023658 11.023658
   H (  8) 10.985821 10.985821 10.070283 10.070283 11.984237 11.984237
             O (  7)
   H (  8)  0.965501
 
 A cutoff of  1.0D-14 yielded    667 shell pairs
 There are      3043 function pairs (      3287 Cartesian)
 Smallest overlap matrix eigenvalue = 3.47E-04

 Scale SEOQF with 1.000000e-01/1.000000e-01/1.000000e-02

 Standard Electronic Orientation quadrupole field applied
 Nucleus-field energy     =    -0.0000000060 hartrees
 ================ Generating on-the-fly SAD Guess ================
Attempting to make child job directory: /src/jdavis/qchem.scratch/qchem17207//Frg1/
Attempting to make child job directory: /src/jdavis/qchem.scratch/qchem17207//Frg2/
Attempting to make child job directory: /src/jdavis/qchem.scratch/qchem17207//Frg3/
Creating input file /src/jdavis/qchem.scratch/qchem17207/Frg1.input
using default PutDataFrgm: nothing
calling putenv with: QCSCRATCH=/src/jdavis/qchem.scratch/qchem17207/ 
Spawning Job For Fragment 0
Done Job For Fragment 0
calling putenv with: QCSCRATCH=/src/jdavis/qchem.scratch 
calling putenv with: QCTHREADS=1 
Creating input file /src/jdavis/qchem.scratch/qchem17207/Frg2.input
using default PutDataFrgm: nothing
calling putenv with: QCSCRATCH=/src/jdavis/qchem.scratch/qchem17207/ 
Spawning Job For Fragment 1
Done Job For Fragment 1
calling putenv with: QCSCRATCH=/src/jdavis/qchem.scratch 
calling putenv with: QCTHREADS=1 
Creating input file /src/jdavis/qchem.scratch/qchem17207/Frg3.input
using default PutDataFrgm: nothing
calling putenv with: QCSCRATCH=/src/jdavis/qchem.scratch/qchem17207/ 
Spawning Job For Fragment 2
Done Job For Fragment 2
calling putenv with: QCSCRATCH=/src/jdavis/qchem.scratch 
calling putenv with: QCTHREADS=1 
 Time for running child jobs:  CPU 1.81 s  wall 80.32 s
 ============= Method Specific SAD Guess Constructed =============
 Guess from on-the-fly superposition of atomic densities
 Warning: Energy on first SCF cycle will be non-variational
 A restricted Hartree-Fock SCF calculation will be
 performed using Pulay DIIS extrapolation
 SCF converges when DIIS error is below 1.0E-08
 using 10 threads for integral computing
 -------------------------------------------------------
 OpenMP Integral computing Module                
 Release: version 1.0, May 2013, Q-Chem Inc. Pittsburgh 
 -------------------------------------------------------
 ---------------------------------------
  Cycle       Energy         DIIS Error
 ---------------------------------------
    1    -153.5131494671      5.94E-02
    2    -153.2824751366      1.22E-02
    3    -153.3444274994      1.06E-02
    4    -153.4322270195      6.43E-04
    5    -153.4329631742      1.83E-04
    6    -153.4330102664      3.78E-05
    7    -153.4330128336      9.00E-06
    8    -153.4330130980      2.53E-06
    9    -153.4330131183      4.34E-07
   10    -153.4330131188      5.26E-08
   11    -153.4330131188      8.84E-09 Convergence criterion met
 ---------------------------------------
 SCF time:  CPU 11.19 s  wall 1.13 s
 SCF   energy in the final basis set = -153.43301312
 Total energy in the final basis set = -153.43301312
================================================================================
|                                                                              |
|                                 A D C  M A N                                 |
|                                                                              |
 ------------------------------------------------------------------------------ 
|                                                                              |
| Components:                                                                  |
|                                                                              |
| - libvmm - 1.3-trunk                                                         |
|   Authors:                                                                   |
|   Evgeny Epifanovsky, Ilya Kaliman                                           |
|                                                                              |
| - libtensor - 2.5-trunk                                                      |
|   Authors:                                                                   |
|   Evgeny Epifanovsky, Michael Wormit, Dmitry Zuev, Sam Manzer,               |
|   Ilya Kaliman                                                               |
|                                                                              |
| - libwfa - 1.1-trunk                                                         |
|   Authors:                                                                   |
|   Felix Plasser, Stefanie Mewes (Baeppler), Benjamin Thomitzni,              |
|   Michael Wormit, Feng Chen, Anna I. Krylov, Pavel Pokhilko                  |
|                                                                              |
| - libadc - 1.1-trunk                                                         |
|   Authors:                                                                   |
|   Michael Wormit, Adrian L. Dempwolff, Philipp H. P. Harbach,                |
|   Caroline Krauter, Dirk Rehn, Matthias Schneider, Jan Wenzel                |
|                                                                              |
| - adcman - 2.6-trunk                                                         |
|   Authors:                                                                   |
|   Michael Wormit, Adrian L. Dempwolff, Philipp H. P. Harbach,                |
|   Caroline Krauter, Daniel Lefrancois, Jan-Michael Mewes, Dirk Rehn,         |
|   Matthias Schneider, Jan Wenzel, Andreas Dreuw                              |
|                                                                              |
| Authors of earlier versions of ADCMAN:                                       |
| Andreas Dreuw, Jan Hendrik Starcke, Dirk Rehn, Michael Wormit                |
|                                                                              |
================================================================================

 
 Alpha MOs, Restricted
 -- Occupied --                  
-20.198 -11.183 -11.181  -0.988  -0.905  -0.728  -0.607  -0.513
  1 A1    2 A1    1 B1    3 A1    4 A1    2 B1    5 A1    6 A1                 
 -0.461  -0.323  -0.252  -0.108  -0.108
  3 B1    1 B2    7 A1    2 B2    4 B1                                         
 -- Virtual --                   
  0.083   0.095   0.097   0.106   0.112   0.115   0.151   0.178
  5 B1    3 B2    8 A1    1 A2    9 A1    6 B1   10 A1    7 B1                 
  0.179   0.216   0.233   0.235   0.251   0.312   0.320   0.345
  2 A2   11 A1    8 B1    4 B2   12 A1    3 A2   13 A1    9 B1                 
  0.379   0.393   0.402   0.443   0.444   0.456   0.512   0.559
 14 A1   15 A1   10 B1    5 B2   11 B1   16 A1   12 B1   13 B1                 
  0.585   0.734   0.819   0.914   0.914   0.954   0.972   0.985
 17 A1   18 A1   19 A1   20 A1    6 B2   21 A1    4 A2   14 B1                 
  1.042   1.080   1.096   1.168   1.173   1.269   1.269   1.323
 15 B1   22 A1   16 B1    7 B2   23 A1    8 B2   17 B1    5 A2                 
  1.323   1.337   1.338   1.377   1.400   1.545   1.660   1.669
 24 A1    9 B2    6 A2   18 B1   19 B1   25 A1   26 A1   20 B1                 
  1.729   1.729   1.751   1.901   1.970   1.974   1.992   2.033
 10 B2   21 B1   27 A1    7 A2   22 B1   28 A1   11 B2   29 A1                 
  2.071   2.092   2.224   2.331   2.379   2.379   2.466   2.494
 12 B2   30 A1    8 A2   23 B1   13 B2   24 B1    9 A2   31 A1                 
  2.538   2.598   2.627   2.852   2.856   3.038   3.315   3.394
 32 A1   25 B1   26 B1   33 A1   34 A1   35 A1   27 B1   28 B1                 
  3.930   3.930   3.959   3.959   4.406
 14 B2   29 B1   10 A2   36 A1   37 A1                                         
 
 Beta MOs, Restricted
 -- Occupied --                  
-20.198 -11.183 -11.181  -0.988  -0.905  -0.728  -0.607  -0.513
  1 A1    2 A1    1 B1    3 A1    4 A1    2 B1    5 A1    6 A1                 
 -0.461  -0.323  -0.252  -0.108  -0.108
  3 B1    1 B2    7 A1    2 B2    4 B1                                         
 -- Virtual --                   
  0.083   0.095   0.097   0.106   0.112   0.115   0.151   0.178
  5 B1    3 B2    8 A1    1 A2    9 A1    6 B1   10 A1    7 B1                 
  0.179   0.216   0.233   0.235   0.251   0.312   0.320   0.345
  2 A2   11 A1    8 B1    4 B2   12 A1    3 A2   13 A1    9 B1                 
  0.379   0.393   0.402   0.443   0.444   0.456   0.512   0.559
 14 A1   15 A1   10 B1    5 B2   11 B1   16 A1   12 B1   13 B1                 
  0.585   0.734   0.819   0.914   0.914   0.954   0.972   0.985
 17 A1   18 A1   19 A1   20 A1    6 B2   21 A1    4 A2   14 B1                 
  1.042   1.080   1.096   1.168   1.173   1.269   1.269   1.323
 15 B1   22 A1   16 B1    7 B2   23 A1    8 B2   17 B1    5 A2                 
  1.323   1.337   1.338   1.377   1.400   1.545   1.660   1.669
 24 A1    9 B2    6 A2   18 B1   19 B1   25 A1   26 A1   20 B1                 
  1.729   1.729   1.751   1.901   1.970   1.974   1.992   2.033
 10 B2   21 B1   27 A1    7 A2   22 B1   28 A1   11 B2   29 A1                 
  2.071   2.092   2.224   2.331   2.379   2.379   2.466   2.494
 12 B2   30 A1    8 A2   23 B1   13 B2   24 B1    9 A2   31 A1                 
  2.538   2.598   2.627   2.852   2.856   3.038   3.315   3.394
 32 A1   25 B1   26 B1   33 A1   34 A1   35 A1   27 B1   28 B1                 
  3.930   3.930   3.959   3.959   4.406
 14 B2   29 B1   10 A2   36 A1   37 A1                                         

--------------------------------------------------------------------------------
                                   HF Summary                                   
--------------------------------------------------------------------------------
  Energy:                                                 -153.4330131188 a.u.
  Dip. moment [a.u.]:                  [   0.000000,    0.000000,   11.483000]
  Total dipole [Debye]:                                              29.186880
  <r^2> [a.u.]:                        [  55.262946,   19.511179, 2265.794126]
  Total <r^2> [a.u.]:                                              2340.568251
--------------------------------------------------------------------------------

--------------------------------------------------------------------------------
                                 MP(2) Summary                                  
--------------------------------------------------------------------------------
  MP energy contribution:                                   -0.5235362594 a.u.
  Total energy:                                           -153.9565493782 a.u.
  Dip. moment [a.u.]:                  [   0.000000,    0.000000,   11.521592]
  Total dipole [Debye]:                                              29.284971
  <r^2> [a.u.]:                        [  56.217806,   20.211015, 2267.432417]
  Total <r^2> [a.u.]:                                              2343.861238

  Density matrix analysis:
  ------------------------
  NOs
    Occupation of frontier NOs:
       0.0446   1.9372
    Number of electrons: 26.000000
    Number of unpaired electrons: n_u =  0.71238, n_u,nl =  0.08512
    NO participation ratio (PR_NO): 22.897650
  
  
  Mulliken Population Analysis
  Atom      Charge (e)              h+              e-           Del q
  --------------------------------------------------------------------
   1 C       -0.168653        0.087972       -0.102143       -0.014172
   2 C       -0.168653        0.087972       -0.102143       -0.014172
   3 H        0.095118        0.017381       -0.010322        0.007059
   4 H        0.095118        0.017381       -0.010322        0.007059
   5 H        0.073514        0.017688       -0.010593        0.007095
   6 H        0.073514        0.017688       -0.010593        0.007095
   7 O       -1.023554        0.281972       -0.269728        0.012244
   8 H        0.023597        0.017731       -0.029940       -0.012208
  --------------------------------------------------------------------
  Sum:       -1.000000        0.545785       -0.545785        0.000000
  
  Multipole moment analysis of the density matrix
    Molecular charge:                      -1.000000
    Number of electrons:                   26.000000
      Center of electronic charge [Ang]: [  0.000000,  -0.000000,  -0.234499]
    Total nuclear charge:                  25.000000
      Center of nuclear charge [Ang]:    [ -0.000000,  -0.000000,   0.000000]
    Dipole moment [D]:                     29.284963
      Cartesian components [D]:          [ -0.000000,   0.000000,  29.284963]
    RMS size of the density [Ang]:         5.018881
      Cartesian components [Ang]:        [  0.778129,   0.466561,   4.936193]
  
  Exciton analysis of the difference density matrix
    <r_h> [Ang]:                  [  0.000000,   0.000000,  -1.865033]
    <r_e> [Ang]:                  [  0.000000,  -0.000000,  -1.902451]
    |<r_e - r_h>| [Ang]:            0.037418
    Hole size [Ang]:                5.150555
      Cartesian components [Ang]: [  0.825446,   0.713084,   5.033723]
    Electron size [Ang]:            5.298754
      Cartesian components [Ang]: [  1.082255,   0.931427,   5.102740]
--------------------------------------------------------------------------------
  Starting Davidson for singlet states of irrep A1 ... 
--------------------------------------------------------------------------------
   It NVec Conv  Avg. Norm  Max. Norm  Conv. states           Remark
--------------------------------------------------------------------------------
       100    0  1.575e-01  5.358e-01  0.2137 n n n n n n n n Guess.
    1  110    0  1.635e-02  5.872e-02  0.0355 n n n n n n n n 
    2  120    0  1.762e-03  9.251e-03  0.0341 n n n n n n n n 
    3  130    0  3.877e-04  2.856e-03  0.0341 n n n n n n n n 
    4  140    0  7.665e-03  7.664e-02  0.0341 n n n n n n n n 
    5  150    3  1.577e-02  1.577e-01  0.0341 y y y n n n n n 
    6  160    6  4.458e-03  4.458e-02  0.0341 y y y y y y n n 
    7  170    8  1.125e-03  1.125e-02  0.0341 y y y y y y n y 
    8  180    9  1.958e-04  1.958e-03  0.0341 y y y y y y y y 
    9  190    9  2.575e-05  2.575e-04  0.0341 y y y y y y y y 
   10  200    9  4.392e-06  4.392e-05  0.0341 y y y y y y y y 
   11   20   10  7.474e-07  7.474e-06  0.0341 y y y y y y y y Converged.
--------------------------------------------------------------------------------
  Davidson Summary: 
 ------------------------------------------------------------
  State  0: excitation energy =   0.0341 a.u.   (converged)
  State  1: excitation energy =   0.0430 a.u.   (converged)
  State  2: excitation energy =   0.0559 a.u.   (converged)
  State  3: excitation energy =   0.1206 a.u.   (converged)
  State  4: excitation energy =   0.1731 a.u.   (converged)
  State  5: excitation energy =   0.1743 a.u.   (converged)
  State  6: excitation energy =   0.1930 a.u.   (converged)
  State  7: excitation energy =   0.2138 a.u.   (converged)
  State  8: excitation energy =   0.2417 a.u.   (converged)
  State  9: excitation energy =   0.2463 a.u.   (converged)
 ------------------------------------------------------------


--------------------------------------------------------------------------------
                   State-averaged natural transition orbitals
--------------------------------------------------------------------------------
--------------------------------------------------------------------------------

--------------------------------------------------------------------------------
                             Excited State Summary
--------------------------------------------------------------------------------
--------------------------------------------------------------------------------

  Excited state 1 (singlet, A1)                                    [converged]
  ----------------------------------------------------------------------------
  Term symbol:  2 (1) A1                                    R^2 =  1.29006e-11

  Total energy:                                           -153.9224806424 a.u.
  Excitation energy:                                               0.927057 eV

  Osc. strength:                                                      0.000006
  Trans. dip. moment [a.u.]:           [   0.000000,    0.000000,   -0.015686]
  <i|r^2|0> [a.u.]:                    [   0.116098,    0.042380,   -0.404275]

  Dip. moment [a.u.]:                  [   0.000000,    0.000000,   -8.422981]
  Total dipole [Debye]:                                              21.409085
  <r^2> [a.u.]:                        [ 114.110607,   39.312573, 2196.098655]
  Total <r^2> [a.u.]:                                              2349.521835

  V1^2 = 0.8533, V2^2 = 0.1467

  Important amplitudes:
      occ i      occ j       vir a       vir b          v   
    ---------------------------------------------------------
     4 (B1) A               5 (B1) A                  0.6255
     4 (B1) A               6 (B1) A                 -0.1864
    ---------------------------------------------------------

  Density matrix analysis:
  ------------------------
  NOs
    Occupation of frontier NOs:
       0.9559   0.9984
    Number of electrons: 26.000000
    Number of unpaired electrons: n_u =  2.75667, n_u,nl =  2.12187
    NO participation ratio (PR_NO):  3.909068
  
  
  Mulliken Population Analysis
  Atom      Charge (e)              h+              e-           Del q
  --------------------------------------------------------------------
   1 C       -0.669862        0.007199       -0.508408       -0.501209
   2 C       -0.669862        0.007199       -0.508408       -0.501209
   3 H        0.090242       -0.000198       -0.004677       -0.004875
   4 H        0.090242       -0.000198       -0.004677       -0.004875
   5 H        0.079616        0.006743       -0.000641        0.006102
   6 H        0.079616        0.006743       -0.000641        0.006102
   7 O       -0.140206        1.423444       -0.540096        0.883348
   8 H        0.140214        0.142426       -0.025808        0.116618
  --------------------------------------------------------------------
  Sum:       -1.000000        1.593356       -1.593356        0.000000
  
  Multipole moment analysis of the density matrix
    Molecular charge:                      -1.000000
    Number of electrons:                   26.000000
      Center of electronic charge [Ang]: [ -0.000000,  -0.000000,   0.171433]
    Total nuclear charge:                  25.000000
      Center of nuclear charge [Ang]:    [ -0.000000,  -0.000000,   0.000000]
    Dipole moment [D]:                     21.409079
      Cartesian components [D]:          [  0.000000,   0.000000, -21.409079]
    RMS size of the density [Ang]:         5.027497
      Cartesian components [Ang]:        [  1.108607,   0.650699,   4.860382]
  
  Exciton analysis of the difference density matrix
    <r_h> [Ang]:                  [ -0.000000,  -0.000000,  -6.263021]
    <r_e> [Ang]:                  [ -0.000000,  -0.000000,   0.360867]
    |<r_e - r_h>| [Ang]:            6.623888
    Hole size [Ang]:                1.972243
      Cartesian components [Ang]: [  0.912703,   0.804158,   1.552433]
    Electron size [Ang]:            6.631726
      Cartesian components [Ang]: [  3.317762,   2.000930,   5.382241]

  Transition density matrix analysis:
  -----------------------------------
  
  CT numbers (Mulliken)
    omega =     0.8392
    <Phe> =     0.0000
  
  Exciton analysis of the transition density matrix
    Trans. dipole moment [D]:             0.019935
      Cartesian components [D]:         [ -0.000000,   0.000000,  -0.019935]
    <r_h> [Ang]:                        [  0.000000,  -0.000000,  -6.397350]
    <r_e> [Ang]:                        [ -0.000000,  -0.000000,   4.098594]
    |<r_e - r_h>| [Ang]:                 10.495943
    Hole size [Ang]:                      1.092405
      Cartesian components [Ang]:       [  0.842547,   0.486446,   0.496823]
    Electron size [Ang]:                  5.386585
      Cartesian components [Ang]:       [  4.146987,   2.444491,   2.417076]
    RMS electron-hole separation [Ang]:  11.847832
      Cartesian components [Ang]:       [  4.231325,   2.492406,  10.782157]
    Covariance(r_h, r_e) [Ang^2]:         0.001180
    Correlation coefficient:              0.000201
    Center-of-mass size [Ang]:            2.748227
      Cartesian components [Ang]:       [  2.116050,   1.246219,   1.233703]

  Decomposition into state-averaged NTOs
    H- 0 -> L+ 5: -0.4538 ( 41.2%)
    H- 0 -> L+ 1: -0.3134 ( 19.6%)
    H- 0 -> L+ 4:  0.2463 ( 12.1%)
    H- 0 -> L+ 7: -0.2340 ( 10.9%)
                   omega =  83.9%
  ----------------------------------------------------------------------------


  Excited state 2 (singlet, A1)                                    [converged]
  ----------------------------------------------------------------------------
  Term symbol:  3 (1) A1                                    R^2 =  1.10357e-11

  Total energy:                                           -153.9135191529 a.u.
  Excitation energy:                                               1.170912 eV

  Osc. strength:                                                      0.000026
  Trans. dip. moment [a.u.]:           [  -0.000000,    0.000000,    0.030347]
  <i|r^2|0> [a.u.]:                    [  -0.033423,   -0.104401,    0.239828]

  Dip. moment [a.u.]:                  [  -0.000000,    0.000000,   -7.552653]
  Total dipole [Debye]:                                              19.196933
  <r^2> [a.u.]:                        [  72.881506,   71.359683, 2180.777921]
  Total <r^2> [a.u.]:                                              2325.019111

  V1^2 = 0.8544, V2^2 = 0.1456

  Important amplitudes:
      occ i      occ j       vir a       vir b          v   
    ---------------------------------------------------------
     2 (B2) A               3 (B2) A                 -0.6534
     2 (B2) A   2 (B2) B    3 (B2) A    5 (B2) B     -0.0669
    ---------------------------------------------------------

  Density matrix analysis:
  ------------------------
  NOs
    Occupation of frontier NOs:
       0.9560   0.9994
    Number of electrons: 26.000000
    Number of unpaired electrons: n_u =  2.75409, n_u,nl =  2.12113
    NO participation ratio (PR_NO):  3.897823
  
  
  Mulliken Population Analysis
  Atom      Charge (e)              h+              e-           Del q
  --------------------------------------------------------------------
   1 C       -0.656760        0.011664       -0.499771       -0.488107
   2 C       -0.656760        0.011664       -0.499771       -0.488107
   3 H        0.083987       -0.000698       -0.010433       -0.011131
   4 H        0.083987       -0.000698       -0.010433       -0.011131
   5 H        0.072765        0.000415       -0.001164       -0.000749
   6 H        0.072765        0.000415       -0.001164       -0.000749
   7 O       -0.139945        1.423636       -0.540027        0.883609
   8 H        0.139961        0.142088       -0.025724        0.116364
  --------------------------------------------------------------------
  Sum:       -1.000000        1.588485       -1.588485       -0.000000
  
  Multipole moment analysis of the density matrix
    Molecular charge:                      -1.000000
    Number of electrons:                   26.000000
      Center of electronic charge [Ang]: [  0.000000,  -0.000000,   0.153719]
    Total nuclear charge:                  25.000000
      Center of nuclear charge [Ang]:    [ -0.000000,  -0.000000,   0.000000]
    Dipole moment [D]:                     19.196927
      Cartesian components [D]:          [ -0.000000,   0.000000, -19.196927]
    RMS size of the density [Ang]:         5.001758
      Cartesian components [Ang]:        [  0.885978,   0.876680,   4.843972]
  
  Exciton analysis of the difference density matrix
    <r_h> [Ang]:                  [ -0.000000,   0.000000,  -6.297175]
    <r_e> [Ang]:                  [  0.000000,  -0.000000,   0.057090]
    |<r_e - r_h>| [Ang]:            6.354264
    Hole size [Ang]:                1.869353
      Cartesian components [Ang]: [  0.811815,   0.904291,   1.420456]
    Electron size [Ang]:            6.310627
      Cartesian components [Ang]: [  1.896478,   3.136011,   5.137395]

  Transition density matrix analysis:
  -----------------------------------
  
  CT numbers (Mulliken)
    omega =     0.8401
    <Phe> =     0.0000
  
  Exciton analysis of the transition density matrix
    Trans. dipole moment [D]:             0.038567
      Cartesian components [D]:         [  0.000000,   0.000000,   0.038567]
    <r_h> [Ang]:                        [  0.000000,  -0.000000,  -6.397400]
    <r_e> [Ang]:                        [  0.000000,  -0.000000,   3.638420]
    |<r_e - r_h>| [Ang]:                 10.035820
    Hole size [Ang]:                      1.092150
      Cartesian components [Ang]:       [  0.486316,   0.842316,   0.496782]
    Electron size [Ang]:                  5.068224
      Cartesian components [Ang]:       [  2.297504,   3.912083,   2.259199]
    RMS electron-hole separation [Ang]:  11.295943
      Cartesian components [Ang]:       [  2.348393,   4.001624,  10.299047]
    Covariance(r_h, r_e) [Ang^2]:        -0.000471
    Correlation coefficient:             -0.000085
    Center-of-mass size [Ang]:            2.592236
      Cartesian components [Ang]:       [  1.174213,   2.000923,   1.156380]

  Decomposition into state-averaged NTOs
    H- 2 -> L+ 3:  0.6175 ( 76.3%)
    H- 2 -> L+ 8: -0.1969 (  7.8%)
                   omega =  84.0%
  ----------------------------------------------------------------------------


  Excited state 3 (singlet, A1)                                    [converged]
  ----------------------------------------------------------------------------
  Term symbol:  4 (1) A1                                    R^2 =  1.70032e-11

  Total energy:                                           -153.9006670174 a.u.
  Excitation energy:                                               1.520636 eV

  Osc. strength:                                                      0.000222
  Trans. dip. moment [a.u.]:           [  -0.000000,    0.000000,   -0.077191]
  <i|r^2|0> [a.u.]:                    [   0.298446,    0.089967,   -0.799141]

  Dip. moment [a.u.]:                  [  -0.000000,    0.000000,   -6.731848]
  Total dipole [Debye]:                                              17.110653
  <r^2> [a.u.]:                        [ 104.352799,   34.861822, 2202.000034]
  Total <r^2> [a.u.]:                                              2341.214656

  V1^2 = 0.8562, V2^2 = 0.1438

  Important amplitudes:
      occ i      occ j       vir a       vir b          v   
    ---------------------------------------------------------
     4 (B1) A               6 (B1) A                 -0.6271
     4 (B1) A               5 (B1) A                 -0.1836
    ---------------------------------------------------------

  Density matrix analysis:
  ------------------------
  NOs
    Occupation of frontier NOs:
       0.9534   1.0026
    Number of electrons: 26.000000
    Number of unpaired electrons: n_u =  2.74736, n_u,nl =  2.11981
    NO participation ratio (PR_NO):  3.897510
  
  
  Mulliken Population Analysis
  Atom      Charge (e)              h+              e-           Del q
  --------------------------------------------------------------------
   1 C       -0.650858        0.001207       -0.483412       -0.482205
   2 C       -0.650858        0.001207       -0.483412       -0.482205
   3 H        0.080491        0.000424       -0.015051       -0.014627
   4 H        0.080491        0.000424       -0.015051       -0.014627
   5 H        0.070437        0.004765       -0.007842       -0.003077
   6 H        0.070437        0.004765       -0.007842       -0.003077
   7 O       -0.139102        1.422726       -0.538274        0.884452
   8 H        0.138961        0.140776       -0.025411        0.115365
  --------------------------------------------------------------------
  Sum:       -1.000000        1.576295       -1.576295        0.000000
  
  Multipole moment analysis of the density matrix
    Molecular charge:                      -1.000000
    Number of electrons:                   26.000000
      Center of electronic charge [Ang]: [  0.000000,  -0.000000,   0.137013]
    Total nuclear charge:                  25.000000
      Center of nuclear charge [Ang]:    [ -0.000000,  -0.000000,   0.000000]
    Dipole moment [D]:                     17.110648
      Cartesian components [D]:          [ -0.000000,   0.000000, -17.110648]
    RMS size of the density [Ang]:         5.019649
      Cartesian components [Ang]:        [  1.060148,   0.612759,   4.868007]
  
  Exciton analysis of the difference density matrix
    <r_h> [Ang]:                  [ -0.000000,  -0.000000,  -6.354181]
    <r_e> [Ang]:                  [  0.000000,  -0.000000,  -0.226329]
    |<r_e - r_h>| [Ang]:            6.127852
    Hole size [Ang]:                1.719894
      Cartesian components [Ang]: [  0.908208,   0.804858,   1.218768]
    Electron size [Ang]:            6.543108
      Cartesian components [Ang]: [  3.062028,   1.802917,   5.494155]

  Transition density matrix analysis:
  -----------------------------------
  
  CT numbers (Mulliken)
    omega =     0.8420
    <Phe> =     0.0000
  
  Exciton analysis of the transition density matrix
    Trans. dipole moment [D]:             0.098100
      Cartesian components [D]:         [ -0.000000,   0.000000,  -0.098100]
    <r_h> [Ang]:                        [  0.000000,  -0.000000,  -6.397315]
    <r_e> [Ang]:                        [  0.000000,  -0.000000,   3.190103]
    |<r_e - r_h>| [Ang]:                  9.587418
    Hole size [Ang]:                      1.091870
      Cartesian components [Ang]:       [  0.842212,   0.486257,   0.496399]
    Electron size [Ang]:                  5.759391
      Cartesian components [Ang]:       [  3.802290,   2.174397,   3.739677]
    RMS electron-hole separation [Ang]:  11.237324
      Cartesian components [Ang]:       [  3.893872,   2.228103,  10.302949]
    Covariance(r_h, r_e) [Ang^2]:         0.001953
    Correlation coefficient:              0.000311
    Center-of-mass size [Ang]:            2.931155
      Cartesian components [Ang]:       [  1.947512,   1.114053,   1.886201]

  Decomposition into state-averaged NTOs
    H- 0 -> L+ 1: -0.5165 ( 53.3%)
    H- 0 -> L+ 5:  0.3812 ( 29.1%)
    H- 0 -> L+ 4:  0.0864 (  1.5%)
                   omega =  84.2%
  ----------------------------------------------------------------------------


  Excited state 4 (singlet, A1)                                    [converged]
  ----------------------------------------------------------------------------
  Term symbol:  5 (1) A1                                    R^2 =  1.44630e-10

  Total energy:                                           -153.8359343441 a.u.
  Excitation energy:                                               3.282102 eV

  Osc. strength:                                                      0.000029
  Trans. dip. moment [a.u.]:           [   0.000000,    0.000000,   -0.019143]
  <i|r^2|0> [a.u.]:                    [   0.150223,    0.043482,   -0.415938]

  Dip. moment [a.u.]:                  [   0.000000,    0.000000,   -7.646889]
  Total dipole [Debye]:                                              19.436456
  <r^2> [a.u.]:                        [ 104.448772,   32.770217, 2179.469353]
  Total <r^2> [a.u.]:                                              2316.688342

  V1^2 = 0.8512, V2^2 = 0.1488

  Important amplitudes:
      occ i      occ j       vir a       vir b          v   
    ---------------------------------------------------------
     4 (B1) A               7 (B1) A                 -0.6464
     4 (B1) A               8 (B1) A                  0.0704
    ---------------------------------------------------------

  Density matrix analysis:
  ------------------------
  NOs
    Occupation of frontier NOs:
       0.9557   0.9951
    Number of electrons: 26.000000
    Number of unpaired electrons: n_u =  2.76232, n_u,nl =  2.12341
    NO participation ratio (PR_NO):  3.938830
  
  
  Mulliken Population Analysis
  Atom      Charge (e)              h+              e-           Del q
  --------------------------------------------------------------------
   1 C       -0.596471        0.019111       -0.446929       -0.427818
   2 C       -0.596471        0.019111       -0.446929       -0.427818
   3 H        0.051199        0.001387       -0.045305       -0.043919
   4 H        0.051199        0.001387       -0.045305       -0.043919
   5 H        0.045316        0.004831       -0.033029       -0.028198
   6 H        0.045316        0.004831       -0.033029       -0.028198
   7 O       -0.139203        1.418252       -0.533901        0.884351
   8 H        0.139115        0.140964       -0.025445        0.115519
  --------------------------------------------------------------------
  Sum:       -1.000000        1.609873       -1.609873        0.000000
  
  Multipole moment analysis of the density matrix
    Molecular charge:                      -1.000000
    Number of electrons:                   26.000000
      Center of electronic charge [Ang]: [ -0.000000,  -0.000000,   0.155637]
    Total nuclear charge:                  25.000000
      Center of nuclear charge [Ang]:    [ -0.000000,  -0.000000,   0.000000]
    Dipole moment [D]:                     19.436451
      Cartesian components [D]:          [  0.000000,   0.000000, -19.436451]
    RMS size of the density [Ang]:         4.992722
      Cartesian components [Ang]:        [  1.060635,   0.594093,   4.842456]
  
  Exciton analysis of the difference density matrix
    <r_h> [Ang]:                  [  0.000000,  -0.000000,  -6.123689]
    <r_e> [Ang]:                  [ -0.000000,  -0.000000,   0.177133]
    |<r_e - r_h>| [Ang]:            6.300822
    Hole size [Ang]:                2.275729
      Cartesian components [Ang]: [  0.918332,   0.803326,   1.921010]
    Electron size [Ang]:            6.157967
      Cartesian components [Ang]: [  3.038559,   1.682242,   5.085054]

  Transition density matrix analysis:
  -----------------------------------
  
  CT numbers (Mulliken)
    omega =     0.8365
    <Phe> =    -0.0000
  
  Exciton analysis of the transition density matrix
    Trans. dipole moment [D]:             0.024328
      Cartesian components [D]:         [ -0.000000,   0.000000,  -0.024328]
    <r_h> [Ang]:                        [  0.000000,  -0.000000,  -6.397178]
    <r_e> [Ang]:                        [ -0.000000,  -0.000000,   3.686491]
    |<r_e - r_h>| [Ang]:                 10.083669
    Hole size [Ang]:                      1.092591
      Cartesian components [Ang]:       [  0.842193,   0.486240,   0.498033]
    Electron size [Ang]:                  4.794966
      Cartesian components [Ang]:       [  3.811078,   2.031429,   2.083428]
    RMS electron-hole separation [Ang]:  11.219028
      Cartesian components [Ang]:       [  3.902656,   2.088800,  10.308869]
    Covariance(r_h, r_e) [Ang^2]:        -0.000376
    Correlation coefficient:             -0.000072
    Center-of-mass size [Ang]:            2.458897
      Cartesian components [Ang]:       [  1.951698,   1.044411,   1.070634]

  Decomposition into state-averaged NTOs
    H- 0 -> L+ 7:  0.5178 ( 53.6%)
    H- 0 -> L+ 5: -0.2570 ( 13.2%)
    H- 0 -> L+ 4: -0.2194 (  9.6%)
    H- 0 -> L+ 1: -0.1896 (  7.2%)
                   omega =  83.7%
  ----------------------------------------------------------------------------


  Excited state 5 (singlet, A1)                                    [converged]
  ----------------------------------------------------------------------------
  Term symbol:  6 (1) A1                                    R^2 =  4.10357e-10

  Total energy:                                           -153.7834033100 a.u.
  Excitation energy:                                               4.711544 eV

  Osc. strength:                                                      0.000213
  Trans. dip. moment [a.u.]:           [  -0.000000,    0.000000,   -0.042954]
  <i|r^2|0> [a.u.]:                    [   0.283332,    0.058307,   -0.537825]

  Dip. moment [a.u.]:                  [  -0.000000,    0.000000,   -7.380062]
  Total dipole [Debye]:                                              18.758251
  <r^2> [a.u.]:                        [  82.749184,   28.683400, 2190.446409]
  Total <r^2> [a.u.]:                                              2301.878993

  V1^2 = 0.8533, V2^2 = 0.1467

  Important amplitudes:
      occ i      occ j       vir a       vir b          v   
    ---------------------------------------------------------
     4 (B1) A               8 (B1) A                  0.6489
     4 (B1) A               7 (B1) A                  0.0689
    ---------------------------------------------------------

  Density matrix analysis:
  ------------------------
  NOs
    Occupation of frontier NOs:
       0.9526   1.0004
    Number of electrons: 26.000000
    Number of unpaired electrons: n_u =  2.75677, n_u,nl =  2.12112
    NO participation ratio (PR_NO):  3.917432
  
  
  Mulliken Population Analysis
  Atom      Charge (e)              h+              e-           Del q
  --------------------------------------------------------------------
   1 C       -0.858254        0.008560       -0.698161       -0.689601
   2 C       -0.858254        0.008560       -0.698161       -0.689601
   3 H        0.188436        0.001369        0.091949        0.093318
   4 H        0.188436        0.001369        0.091949        0.093318
   5 H        0.170447        0.006201        0.090732        0.096933
   6 H        0.170447        0.006201        0.090732        0.096933
   7 O       -0.139825        1.419139       -0.535410        0.883728
   8 H        0.138568        0.140252       -0.025281        0.114971
  --------------------------------------------------------------------
  Sum:       -1.000000        1.591650       -1.591650        0.000000
  
  Multipole moment analysis of the density matrix
    Molecular charge:                      -1.000000
    Number of electrons:                   26.000000
      Center of electronic charge [Ang]: [  0.000000,  -0.000000,   0.150206]
    Total nuclear charge:                  25.000000
      Center of nuclear charge [Ang]:    [ -0.000000,  -0.000000,   0.000000]
    Dipole moment [D]:                     18.758245
      Cartesian components [D]:          [ -0.000000,   0.000000, -18.758245]
    RMS size of the density [Ang]:         4.976889
      Cartesian components [Ang]:        [  0.944053,   0.555814,   4.854819]
  
  Exciton analysis of the difference density matrix
    <r_h> [Ang]:                  [ -0.000000,  -0.000000,  -6.232795]
    <r_e> [Ang]:                  [  0.000000,  -0.000000,   0.051453]
    |<r_e - r_h>| [Ang]:            6.284248
    Hole size [Ang]:                2.035514
      Cartesian components [Ang]: [  0.910100,   0.806459,   1.632379]
    Electron size [Ang]:            5.966759
      Cartesian components [Ang]: [  2.344377,   1.463206,   5.288207]

  Transition density matrix analysis:
  -----------------------------------
  
  CT numbers (Mulliken)
    omega =     0.8384
    <Phe> =    -0.0000
  
  Exciton analysis of the transition density matrix
    Trans. dipole moment [D]:             0.054589
      Cartesian components [D]:         [ -0.000000,   0.000000,  -0.054589]
    <r_h> [Ang]:                        [  0.000000,  -0.000000,  -6.397195]
    <r_e> [Ang]:                        [  0.000000,   0.000000,   3.540402]
    |<r_e - r_h>| [Ang]:                  9.937596
    Hole size [Ang]:                      1.092303
      Cartesian components [Ang]:       [  0.842096,   0.486227,   0.497576]
    Electron size [Ang]:                  4.454714
      Cartesian components [Ang]:       [  2.899156,   1.726863,   2.908146]
    RMS electron-hole separation [Ang]:  10.945082
      Cartesian components [Ang]:       [  3.018748,   1.794011,  10.366461]
    Covariance(r_h, r_e) [Ang^2]:        -0.000702
    Correlation coefficient:             -0.000144
    Center-of-mass size [Ang]:            2.293262
      Cartesian components [Ang]:       [  1.509605,   0.897005,   1.474966]

  Decomposition into state-averaged NTOs
    H- 0 -> L+ 4: -0.5507 ( 60.6%)
    H- 0 -> L+ 7: -0.3050 ( 18.6%)
    H- 0 -> L+ 1: -0.1457 (  4.2%)
                   omega =  83.8%
  ----------------------------------------------------------------------------


  Excited state 6 (singlet, A1)                                    [converged]
  ----------------------------------------------------------------------------
  Term symbol:  7 (1) A1                                    R^2 =  4.56643e-10

  Total energy:                                           -153.7822852262 a.u.
  Excitation energy:                                               4.741969 eV

  Osc. strength:                                                      0.000033
  Trans. dip. moment [a.u.]:           [  -0.000000,   -0.000000,   -0.016814]
  <i|r^2|0> [a.u.]:                    [   0.021644,    0.101481,   -0.180199]

  Dip. moment [a.u.]:                  [  -0.000000,    0.000000,   -7.548579]
  Total dipole [Debye]:                                              19.186579
  <r^2> [a.u.]:                        [  64.919439,   47.759832, 2173.231048]
  Total <r^2> [a.u.]:                                              2285.910320

  V1^2 = 0.8505, V2^2 = 0.1495

  Important amplitudes:
      occ i      occ j       vir a       vir b          v   
    ---------------------------------------------------------
     2 (B2) A               4 (B2) A                 -0.6517
     2 (B2) A   2 (B2) B    4 (B2) A    5 (B2) B     -0.0659
    ---------------------------------------------------------

  Density matrix analysis:
  ------------------------
  NOs
    Occupation of frontier NOs:
       0.9561   0.9951
    Number of electrons: 26.000000
    Number of unpaired electrons: n_u =  2.75933, n_u,nl =  2.12276
    NO participation ratio (PR_NO):  3.929024
  
  
  Mulliken Population Analysis
  Atom      Charge (e)              h+              e-           Del q
  --------------------------------------------------------------------
   1 C       -0.625099        0.042812       -0.499258       -0.456446
   2 C       -0.625099        0.042812       -0.499258       -0.456446
   3 H        0.068470       -0.001152       -0.025496       -0.026648
   4 H        0.068470       -0.001152       -0.025496       -0.026648
   5 H        0.056688       -0.000938       -0.015887       -0.016826
   6 H        0.056688       -0.000938       -0.015887       -0.016826
   7 O       -0.138665        1.416243       -0.531354        0.884889
   8 H        0.138547        0.140209       -0.025258        0.114951
  --------------------------------------------------------------------
  Sum:       -1.000000        1.637895       -1.637895       -0.000000
  
  Multipole moment analysis of the density matrix
    Molecular charge:                      -1.000000
    Number of electrons:                   26.000000
      Center of electronic charge [Ang]: [  0.000000,  -0.000000,   0.153636]
    Total nuclear charge:                  25.000000
      Center of nuclear charge [Ang]:    [ -0.000000,  -0.000000,   0.000000]
    Dipole moment [D]:                     19.186573
      Cartesian components [D]:          [ -0.000000,   0.000000, -19.186573]
    RMS size of the density [Ang]:         4.959476
      Cartesian components [Ang]:        [  0.836184,   0.717209,   4.835577]
  
  Exciton analysis of the difference density matrix
    <r_h> [Ang]:                  [  0.000000,   0.000000,  -5.941135]
    <r_e> [Ang]:                  [  0.000000,   0.000000,   0.220127]
    |<r_e - r_h>| [Ang]:            6.161262
    Hole size [Ang]:                2.613746
      Cartesian components [Ang]: [  0.819443,   0.897710,   2.313935]
    Electron size [Ang]:            5.672082
      Cartesian components [Ang]: [  1.469419,   2.348588,   4.949491]

  Transition density matrix analysis:
  -----------------------------------
  
  CT numbers (Mulliken)
    omega =     0.8349
    <Phe> =     0.0002
  
  Exciton analysis of the transition density matrix
    Trans. dipole moment [D]:             0.021369
      Cartesian components [D]:         [  0.000000,  -0.000000,  -0.021369]
    <r_h> [Ang]:                        [  0.000000,  -0.000000,  -6.396477]
    <r_e> [Ang]:                        [  0.000000,   0.000000,   3.635897]
    |<r_e - r_h>| [Ang]:                 10.032373
    Hole size [Ang]:                      1.095707
      Cartesian components [Ang]:       [  0.486110,   0.841900,   0.505445]
    Electron size [Ang]:                  3.819343
      Cartesian components [Ang]:       [  1.720624,   2.949410,   1.711087]
    RMS electron-hole separation [Ang]:  10.791434
      Cartesian components [Ang]:       [  1.787960,   3.067036,  10.190758]
    Covariance(r_h, r_e) [Ang^2]:        -0.009288
    Correlation coefficient:             -0.002219
    Center-of-mass size [Ang]:            1.985534
      Cartesian components [Ang]:       [  0.893994,   1.533698,   0.889320]

  Decomposition into state-averaged NTOs
    H- 2 -> L+ 8: -0.6151 ( 75.7%)
    H- 2 -> L+ 3: -0.1977 (  7.8%)
                   omega =  83.5%
  ----------------------------------------------------------------------------


  Excited state 7 (singlet, A1)                                    [converged]
  ----------------------------------------------------------------------------
  Term symbol:  8 (1) A1                                    R^2 =  1.71643e-08

  Total energy:                                           -153.7635083155 a.u.
  Excitation energy:                                               5.252914 eV

  Osc. strength:                                                      0.000339
  Trans. dip. moment [a.u.]:           [   0.000000,    0.000000,    0.051305]
  <i|r^2|0> [a.u.]:                    [  -0.024678,   -0.024930,    1.113550]

  Dip. moment [a.u.]:                  [   0.000000,    0.000000,   -7.674265]
  Total dipole [Debye]:                                              19.506039
  <r^2> [a.u.]:                        [  73.146800,   35.983946, 2217.322999]
  Total <r^2> [a.u.]:                                              2326.453745

  V1^2 = 0.8599, V2^2 = 0.1401

  Important amplitudes:
      occ i      occ j       vir a       vir b          v   
    ---------------------------------------------------------
     7 (A1) A               8 (A1) A                  0.6349
     7 (A1) A               9 (A1) A                  0.1431
    ---------------------------------------------------------

  Density matrix analysis:
  ------------------------
  NOs
    Occupation of frontier NOs:
       0.9716   1.0011
    Number of electrons: 26.000000
    Number of unpaired electrons: n_u =  2.79946, n_u,nl =  2.13844
    NO participation ratio (PR_NO):  3.959841
  
  
  Mulliken Population Analysis
  Atom      Charge (e)              h+              e-           Del q
  --------------------------------------------------------------------
   1 C       -0.646374        0.005217       -0.482938       -0.477721
   2 C       -0.646374        0.005217       -0.482938       -0.477721
   3 H        0.078629        0.000302       -0.016790       -0.016488
   4 H        0.078629        0.000302       -0.016790       -0.016488
   5 H        0.068383        0.007240       -0.012371       -0.005131
   6 H        0.068383        0.007240       -0.012371       -0.005131
   7 O       -0.323055        1.246024       -0.545526        0.700499
   8 H        0.321780        0.316647       -0.018464        0.298183
  --------------------------------------------------------------------
  Sum:       -1.000000        1.588189       -1.588189       -0.000000
  
  Multipole moment analysis of the density matrix
    Molecular charge:                      -1.000000
    Number of electrons:                   26.000000
      Center of electronic charge [Ang]: [ -0.000000,  -0.000000,   0.156194]
    Total nuclear charge:                  25.000000
      Center of nuclear charge [Ang]:    [ -0.000000,  -0.000000,   0.000000]
    Dipole moment [D]:                     19.506033
      Cartesian components [D]:          [  0.000000,   0.000000, -19.506033]
    RMS size of the density [Ang]:         5.003226
      Cartesian components [Ang]:        [  0.887589,   0.622542,   4.884352]
  
  Exciton analysis of the difference density matrix
    <r_h> [Ang]:                  [ -0.000000,  -0.000000,  -6.274566]
    <r_e> [Ang]:                  [ -0.000000,  -0.000000,   0.121404]
    |<r_e - r_h>| [Ang]:            6.395970
    Hole size [Ang]:                1.935196
      Cartesian components [Ang]: [  0.790642,   0.782741,   1.583410]
    Electron size [Ang]:            6.327017
      Cartesian components [Ang]: [  1.900006,   1.842215,   5.746944]

  Transition density matrix analysis:
  -----------------------------------
  
  CT numbers (Mulliken)
    omega =     0.8436
    <Phe> =    -0.0000
  
  Exciton analysis of the transition density matrix
    Trans. dipole moment [D]:             0.065203
      Cartesian components [D]:         [ -0.000000,   0.000000,   0.065203]
    <r_h> [Ang]:                        [  0.000000,  -0.000000,  -6.442547]
    <r_e> [Ang]:                        [ -0.000000,   0.000000,   3.703084]
    |<r_e - r_h>| [Ang]:                 10.145631
    Hole size [Ang]:                      1.006059
      Cartesian components [Ang]:       [  0.420629,   0.420625,   0.811357]
    Electron size [Ang]:                  5.048567
      Cartesian components [Ang]:       [  2.303238,   2.234097,   3.897683]
    RMS electron-hole separation [Ang]:  11.377112
      Cartesian components [Ang]:       [  2.341565,   2.273367,  10.898971]
    Covariance(r_h, r_e) [Ang^2]:        -0.002338
    Correlation coefficient:             -0.000460
    Center-of-mass size [Ang]:            2.573689
      Cartesian components [Ang]:       [  1.170550,   1.136666,   1.990397]

  Decomposition into state-averaged NTOs
    H- 1 -> L+ 0:  0.5763 ( 66.4%)
    H- 1 -> L+ 2: -0.2621 ( 13.7%)
    H- 1 -> L+ 6:  0.1445 (  4.2%)
                   omega =  84.4%
  ----------------------------------------------------------------------------


  Excited state 8 (singlet, A1)                                    [converged]
  ----------------------------------------------------------------------------
  Term symbol:  9 (1) A1                                    R^2 =  5.84568e-09

  Total energy:                                           -153.7427555329 a.u.
  Excitation energy:                                               5.817626 eV

  Osc. strength:                                                      0.000038
  Trans. dip. moment [a.u.]:           [  -0.000000,   -0.000000,   -0.016327]
  <i|r^2|0> [a.u.]:                    [  -0.005648,    0.005659,   -0.346477]

  Dip. moment [a.u.]:                  [   0.000000,    0.000000,   -7.494010]
  Total dipole [Debye]:                                              19.047878
  <r^2> [a.u.]:                        [ 126.177651,   35.432444, 2178.210326]
  Total <r^2> [a.u.]:                                              2339.820421

  V1^2 = 0.8581, V2^2 = 0.1419

  Important amplitudes:
      occ i      occ j       vir a       vir b          v   
    ---------------------------------------------------------
     7 (A1) A               9 (A1) A                 -0.6369
     7 (A1) A               8 (A1) A                  0.1444
    ---------------------------------------------------------

  Density matrix analysis:
  ------------------------
  NOs
    Occupation of frontier NOs:
       0.9734   0.9992
    Number of electrons: 26.000000
    Number of unpaired electrons: n_u =  2.80412, n_u,nl =  2.14000
    NO participation ratio (PR_NO):  3.964014
  
  
  Mulliken Population Analysis
  Atom      Charge (e)              h+              e-           Del q
  --------------------------------------------------------------------
   1 C       -0.665639        0.005383       -0.502370       -0.496987
   2 C       -0.665639        0.005383       -0.502370       -0.496987
   3 H        0.088061       -0.000071       -0.006985       -0.007056
   4 H        0.088061       -0.000071       -0.006985       -0.007056
   5 H        0.077667        0.004770       -0.000616        0.004153
   6 H        0.077667        0.004770       -0.000616        0.004153
   7 O       -0.323400        1.249600       -0.549446        0.700154
   8 H        0.323222        0.318128       -0.018502        0.299625
  --------------------------------------------------------------------
  Sum:       -1.000000        1.587891       -1.587891       -0.000000
  
  Multipole moment analysis of the density matrix
    Molecular charge:                      -1.000000
    Number of electrons:                   26.000000
      Center of electronic charge [Ang]: [  0.000000,  -0.000000,   0.152525]
    Total nuclear charge:                  25.000000
      Center of nuclear charge [Ang]:    [ -0.000000,  -0.000000,   0.000000]
    Dipole moment [D]:                     19.047873
      Cartesian components [D]:          [ -0.000000,   0.000000, -19.047873]
    RMS size of the density [Ang]:         5.017705
      Cartesian components [Ang]:        [  1.165751,   0.617753,   4.841154]
  
  Exciton analysis of the difference density matrix
    <r_h> [Ang]:                  [ -0.000000,  -0.000000,  -6.314187]
    <r_e> [Ang]:                  [  0.000000,  -0.000000,   0.022911]
    |<r_e - r_h>| [Ang]:            6.337098
    Hole size [Ang]:                1.827590
      Cartesian components [Ang]: [  0.794415,   0.784161,   1.447094]
    Electron size [Ang]:            6.518889
      Cartesian components [Ang]: [  3.601206,   1.816382,   5.121326]

  Transition density matrix analysis:
  -----------------------------------
  
  CT numbers (Mulliken)
    omega =     0.8419
    <Phe> =    -0.0000
  
  Exciton analysis of the transition density matrix
    Trans. dipole moment [D]:             0.020750
      Cartesian components [D]:         [  0.000000,  -0.000000,  -0.020750]
    <r_h> [Ang]:                        [  0.000000,  -0.000000,  -6.443384]
    <r_e> [Ang]:                        [  0.000000,  -0.000000,   3.604117]
    |<r_e - r_h>| [Ang]:                 10.047502
    Hole size [Ang]:                      1.006306
      Cartesian components [Ang]:       [  0.420756,   0.420755,   0.811531]
    Electron size [Ang]:                  5.475638
      Cartesian components [Ang]:       [  4.492642,   2.199768,   2.227062]
    RMS electron-hole separation [Ang]:  11.486896
      Cartesian components [Ang]:       [  4.512355,   2.239658,  10.323341]
    Covariance(r_h, r_e) [Ang^2]:        -0.000616
    Correlation coefficient:             -0.000112
    Center-of-mass size [Ang]:            2.783614
      Cartesian components [Ang]:       [  2.256124,   1.119817,   1.185084]

  Decomposition into state-averaged NTOs
    H- 1 -> L+ 2: -0.5915 ( 70.0%)
    H- 1 -> L+ 0: -0.2663 ( 14.2%)
                   omega =  84.2%
  ----------------------------------------------------------------------------


  Excited state 9 (singlet, A1)                                    [converged]
  ----------------------------------------------------------------------------
  Term symbol:  10 (1) A1                                   R^2 =  7.47381e-06

  Total energy:                                           -153.7148085632 a.u.
  Excitation energy:                                               6.578102 eV

  Osc. strength:                                                      0.000008
  Trans. dip. moment [a.u.]:           [   0.000000,   -0.000000,   -0.007164]
  <i|r^2|0> [a.u.]:                    [  -0.004162,   -0.001955,   -0.137478]

  Dip. moment [a.u.]:                  [  -0.000000,    0.000000,   -7.494418]
  Total dipole [Debye]:                                              19.048915
  <r^2> [a.u.]:                        [  73.000428,   29.252099, 2169.551556]
  Total <r^2> [a.u.]:                                              2271.804082

  V1^2 = 0.8535, V2^2 = 0.1465

  Important amplitudes:
      occ i      occ j       vir a       vir b          v   
    ---------------------------------------------------------
     7 (A1) A              10 (A1) A                  0.6467
     7 (A1) A               8 (A1) A                  0.0553
    ---------------------------------------------------------

  Density matrix analysis:
  ------------------------
  NOs
    Occupation of frontier NOs:
       0.9737   0.9924
    Number of electrons: 26.000000
    Number of unpaired electrons: n_u =  2.81242, n_u,nl =  2.14183
    NO participation ratio (PR_NO):  4.012994
  
  
  Mulliken Population Analysis
  Atom      Charge (e)              h+              e-           Del q
  --------------------------------------------------------------------
   1 C       -0.761544        0.031861       -0.624752       -0.592891
   2 C       -0.761544        0.031861       -0.624752       -0.592891
   3 H        0.134957       -0.000988        0.040827        0.039839
   4 H        0.134957       -0.000988        0.040827        0.039839
   5 H        0.126610        0.000221        0.052875        0.053096
   6 H        0.126610        0.000221        0.052875        0.053096
   7 O       -0.322800        1.238389       -0.537635        0.700754
   8 H        0.322756        0.317265       -0.018106        0.299159
  --------------------------------------------------------------------
  Sum:       -1.000000        1.617842       -1.617842       -0.000000
  
  Multipole moment analysis of the density matrix
    Molecular charge:                      -1.000000
    Number of electrons:                   26.000000
      Center of electronic charge [Ang]: [  0.000000,  -0.000000,   0.152534]
    Total nuclear charge:                  25.000000
      Center of nuclear charge [Ang]:    [ -0.000000,  -0.000000,   0.000000]
    Dipole moment [D]:                     19.048909
      Cartesian components [D]:          [ -0.000000,   0.000000, -19.048909]
    RMS size of the density [Ang]:         4.944169
      Cartesian components [Ang]:        [  0.886701,   0.561297,   4.831513]
  
  Exciton analysis of the difference density matrix
    <r_h> [Ang]:                  [ -0.000000,  -0.000000,  -6.058999]
    <r_e> [Ang]:                  [  0.000000,  -0.000000,   0.160917]
    |<r_e - r_h>| [Ang]:            6.219916
    Hole size [Ang]:                2.397633
      Cartesian components [Ang]: [  0.796185,   0.790732,   2.118839]
    Electron size [Ang]:            5.473757
      Cartesian components [Ang]: [  1.881164,   1.479918,   4.922710]

  Transition density matrix analysis:
  -----------------------------------
  
  CT numbers (Mulliken)
    omega =     0.8361
    <Phe> =    -0.0000
  
  Exciton analysis of the transition density matrix
    Trans. dipole moment [D]:             0.009104
      Cartesian components [D]:         [  0.000000,  -0.000000,  -0.009104]
    <r_h> [Ang]:                        [  0.000000,  -0.000000,  -6.443465]
    <r_e> [Ang]:                        [  0.000000,  -0.000000,   3.601881]
    |<r_e - r_h>| [Ang]:                 10.045346
    Hole size [Ang]:                      1.006917
      Cartesian components [Ang]:       [  0.420549,   0.420517,   0.812518]
    Electron size [Ang]:                  3.283011
      Cartesian components [Ang]:       [  2.290726,   1.750857,   1.570107]
    RMS electron-hole separation [Ang]:  10.616389
      Cartesian components [Ang]:       [  2.329099,   1.800746,  10.200016]
    Covariance(r_h, r_e) [Ang^2]:        -0.003346
    Correlation coefficient:             -0.001012
    Center-of-mass size [Ang]:            1.716490
      Cartesian components [Ang]:       [  1.164460,   0.900276,   0.883104]

  Decomposition into state-averaged NTOs
    H- 1 -> L+ 6:  0.6298 ( 79.3%)
    H- 1 -> L+ 0: -0.1383 (  3.8%)
                   omega =  83.6%
  ----------------------------------------------------------------------------


  Excited state 10 (singlet, A1)                                    [converged]
  ----------------------------------------------------------------------------
  Term symbol:  11 (1) A1                                   R^2 =  6.20368e-09

  Total energy:                                           -153.7102381039 a.u.
  Excitation energy:                                               6.702471 eV

  Osc. strength:                                                      0.000001
  Trans. dip. moment [a.u.]:           [  -0.000000,    0.000000,   -0.002666]
  <i|r^2|0> [a.u.]:                    [  -2.226970,    2.261870,   -0.036014]

  Dip. moment [a.u.]:                  [  -0.000000,    0.000000,   11.301326]
  Total dipole [Debye]:                                              28.725111
  <r^2> [a.u.]:                        [  61.569206,   25.558807, 2264.916855]
  Total <r^2> [a.u.]:                                              2352.044867

  V1^2 = 0.9221, V2^2 = 0.0779

  Important amplitudes:
      occ i      occ j       vir a       vir b          v   
    ---------------------------------------------------------
     2 (B2) A               5 (B2) A                  0.4809
     4 (B1) A              11 (B1) A                 -0.4778
    ---------------------------------------------------------

  Density matrix analysis:
  ------------------------
  NOs
    Occupation of frontier NOs:
       0.5209   1.4599
    Number of electrons: 26.000000
    Number of unpaired electrons: n_u =  2.70581, n_u,nl =  2.48312
    NO participation ratio (PR_NO):  6.457383
  
  
  Mulliken Population Analysis
  Atom      Charge (e)              h+              e-           Del q
  --------------------------------------------------------------------
   1 C       -0.169677        0.000290       -0.001315       -0.001024
   2 C       -0.169677        0.000290       -0.001315       -0.001024
   3 H        0.095158       -0.000022        0.000063        0.000040
   4 H        0.095158       -0.000022        0.000063        0.000040
   5 H        0.073534        0.000019        0.000001        0.000020
   6 H        0.073534        0.000019        0.000001        0.000020
   7 O       -1.115585        1.147288       -1.239319       -0.092031
   8 H        0.117555        0.113680       -0.019722        0.093958
  --------------------------------------------------------------------
  Sum:       -1.000000        1.261543       -1.261543       -0.000000
  
  Multipole moment analysis of the density matrix
    Molecular charge:                      -1.000000
    Number of electrons:                   26.000000
      Center of electronic charge [Ang]: [  0.000000,  -0.000000,  -0.230016]
    Total nuclear charge:                  25.000000
      Center of nuclear charge [Ang]:    [ -0.000000,  -0.000000,   0.000000]
    Dipole moment [D]:                     28.725102
      Cartesian components [D]:          [ -0.000000,   0.000000,  28.725102]
    RMS size of the density [Ang]:         5.027861
      Cartesian components [Ang]:        [  0.814322,   0.524668,   4.933659]
  
  Exciton analysis of the difference density matrix
    <r_h> [Ang]:                  [  0.000000,   0.000000,  -6.442923]
    <r_e> [Ang]:                  [  0.000000,  -0.000000,  -6.350528]
    |<r_e - r_h>| [Ang]:            0.092395
    Hole size [Ang]:                1.276101
      Cartesian components [Ang]: [  0.745851,   0.745498,   0.718591]
    Electron size [Ang]:            2.151052
      Cartesian components [Ang]: [  1.320667,   1.320164,   1.067723]

  Transition density matrix analysis:
  -----------------------------------
  
  CT numbers (Mulliken)
    omega =     0.8992
    <Phe> =     0.0349
  
  Exciton analysis of the transition density matrix
    Trans. dipole moment [D]:             0.003388
      Cartesian components [D]:         [  0.000000,   0.000000,  -0.003388]
    <r_h> [Ang]:                        [  0.000000,  -0.000000,  -6.396426]
    <r_e> [Ang]:                        [  0.000000,  -0.000000,  -6.343403]
    |<r_e - r_h>| [Ang]:                  0.053023
    Hole size [Ang]:                      1.069800
      Cartesian components [Ang]:       [  0.673056,   0.674602,   0.486190]
    Electron size [Ang]:                  2.371680
      Cartesian components [Ang]:       [  1.472915,   1.473460,   1.133273]
    RMS electron-hole separation [Ang]:   2.600873
      Cartesian components [Ang]:       [  1.618290,   1.619352,   1.234251]
    Covariance(r_h, r_e) [Ang^2]:         0.003806
    Correlation coefficient:              0.001500
    Center-of-mass size [Ang]:            1.301629
      Cartesian components [Ang]:       [  0.810262,   0.810870,   0.616606]

  Decomposition into state-averaged NTOs
    H- 2 -> L+ 9:  0.4751 ( 45.1%)
    H- 0 -> L+10:  0.4728 ( 44.7%)
                   omega =  89.9%
  ----------------------------------------------------------------------------


--------------------------------------------------------------------------------
  Time of ADC calculation:  CPU 303.35 s  wall 78.16 s
================================================================================
 
 --------------------------------------------------------------
             Orbital Energies (a.u.) and Symmetries
 --------------------------------------------------------------
 
 Alpha MOs, Restricted
 -- Occupied --                  
-20.198 -11.183 -11.181  -0.988  -0.905  -0.728  -0.607  -0.513
  1 A1    2 A1    1 B1    3 A1    4 A1    2 B1    5 A1    6 A1                 
 -0.461  -0.323  -0.252  -0.108  -0.108
  3 B1    1 B2    7 A1    2 B2    4 B1                                         
 -- Virtual --                   
  0.083   0.095   0.097   0.106   0.112   0.115   0.151   0.178
  5 B1    3 B2    8 A1    1 A2    9 A1    6 B1   10 A1    7 B1                 
  0.179   0.216   0.233   0.235   0.251   0.312   0.320   0.345
  2 A2   11 A1    8 B1    4 B2   12 A1    3 A2   13 A1    9 B1                 
  0.379   0.393   0.402   0.443   0.444   0.456   0.512   0.559
 14 A1   15 A1   10 B1    5 B2   11 B1   16 A1   12 B1   13 B1                 
  0.585   0.734   0.819   0.914   0.914   0.954   0.972   0.985
 17 A1   18 A1   19 A1   20 A1    6 B2   21 A1    4 A2   14 B1                 
  1.042   1.080   1.096   1.168   1.173   1.269   1.269   1.323
 15 B1   22 A1   16 B1    7 B2   23 A1    8 B2   17 B1    5 A2                 
  1.323   1.337   1.338   1.377   1.400   1.545   1.660   1.669
 24 A1    9 B2    6 A2   18 B1   19 B1   25 A1   26 A1   20 B1                 
  1.729   1.729   1.751   1.901   1.970   1.974   1.992   2.033
 10 B2   21 B1   27 A1    7 A2   22 B1   28 A1   11 B2   29 A1                 
  2.071   2.092   2.224   2.331   2.379   2.379   2.466   2.494
 12 B2   30 A1    8 A2   23 B1   13 B2   24 B1    9 A2   31 A1                 
  2.538   2.598   2.627   2.852   2.856   3.038   3.315   3.394
 32 A1   25 B1   26 B1   33 A1   34 A1   35 A1   27 B1   28 B1                 
  3.930   3.930   3.959   3.959   4.406
 14 B2   29 B1   10 A2   36 A1   37 A1                                         
 
 Beta MOs, Restricted
 -- Occupied --                  
-20.198 -11.183 -11.181  -0.988  -0.905  -0.728  -0.607  -0.513
  1 A1    2 A1    1 B1    3 A1    4 A1    2 B1    5 A1    6 A1                 
 -0.461  -0.323  -0.252  -0.108  -0.108
  3 B1    1 B2    7 A1    2 B2    4 B1                                         
 -- Virtual --                   
  0.083   0.095   0.097   0.106   0.112   0.115   0.151   0.178
  5 B1    3 B2    8 A1    1 A2    9 A1    6 B1   10 A1    7 B1                 
  0.179   0.216   0.233   0.235   0.251   0.312   0.320   0.345
  2 A2   11 A1    8 B1    4 B2   12 A1    3 A2   13 A1    9 B1                 
  0.379   0.393   0.402   0.443   0.444   0.456   0.512   0.559
 14 A1   15 A1   10 B1    5 B2   11 B1   16 A1   12 B1   13 B1                 
  0.585   0.734   0.819   0.914   0.914   0.954   0.972   0.985
 17 A1   18 A1   19 A1   20 A1    6 B2   21 A1    4 A2   14 B1                 
  1.042   1.080   1.096   1.168   1.173   1.269   1.269   1.323
 15 B1   22 A1   16 B1    7 B2   23 A1    8 B2   17 B1    5 A2                 
  1.323   1.337   1.338   1.377   1.400   1.545   1.660   1.669
 24 A1    9 B2    6 A2   18 B1   19 B1   25 A1   26 A1   20 B1                 
  1.729   1.729   1.751   1.901   1.970   1.974   1.992   2.033
 10 B2   21 B1   27 A1    7 A2   22 B1   28 A1   11 B2   29 A1                 
  2.071   2.092   2.224   2.331   2.379   2.379   2.466   2.494
 12 B2   30 A1    8 A2   23 B1   13 B2   24 B1    9 A2   31 A1                 
  2.538   2.598   2.627   2.852   2.856   3.038   3.315   3.394
 32 A1   25 B1   26 B1   33 A1   34 A1   35 A1   27 B1   28 B1                 
  3.930   3.930   3.959   3.959   4.406
 14 B2   29 B1   10 A2   36 A1   37 A1                                         
 --------------------------------------------------------------
 
          Ground-State Mulliken Net Atomic Charges

     Atom                 Charge (a.u.)
  ----------------------------------------
      1 C                    -0.154481
      2 C                    -0.154481
      3 H                     0.088059
      4 H                     0.088059
      5 H                     0.066419
      6 H                     0.066419
      7 O                    -1.035798
      8 H                     0.035805
  ----------------------------------------
  Sum of atomic charges =    -1.000000

 -----------------------------------------------------------------
                    Cartesian Multipole Moments
 -----------------------------------------------------------------
    Charge (ESU x 10^10)
                -4.8032
    Dipole Moment (Debye)
         X      -0.0000      Y       0.0000      Z      29.1869
       Tot      29.1869
    Quadrupole Moments (Debye-Ang)
        XX     -23.0679     XY       0.0000     YY     -26.2432
        XZ      -0.0000     YZ      -0.0000     ZZ    -199.3587
    Octopole Moments (Debye-Ang^2)
       XXX      -0.0000    XXY       0.0000    XYY       0.0000
       YYY       0.0000    XXZ      17.5000    XYZ       0.0000
       YYZ       6.1476    XZZ      -0.0000    YZZ       0.0000
       ZZZ    1093.5483
    Hexadecapole Moments (Debye-Ang^3)
      XXXX     -84.3127   XXXY      -0.0000   XXYY     -20.8829
      XYYY       0.0000   YYYY     -37.3706   XXXZ      -0.0000
      XXYZ       0.0000   XYYZ       0.0000   YYYZ      -0.0000
      XXZZ    -607.7689   XYZZ       0.0000   YYZZ    -643.9968
      XZZZ      -0.0000   YZZZ      -0.0000   ZZZZ   -9443.8151
 -----------------------------------------------------------------
 Total job time:  187.00s(wall), 353.61s(cpu) 
 Tue Mar  1 22:23:33 2022

        *************************************************************
        *                                                           *
        *  Thank you very much for using Q-Chem.  Have a nice day.  *
        *                                                           *
        *************************************************************


