/src/tsommerfeld/qchem/exe/qcprog.exe .input1.145455.17675.qcin.1 /src/jdavis/qchem.scratch/qchem17675/

                  Welcome to Q-Chem
     A Quantum Leap Into The Future Of Chemistry


 Q-Chem 5.4 (devel), Q-Chem, Inc., Pleasanton, CA (2021)

 E. Epifanovsky,  A. T. B. Gilbert,  Xintian Feng,  Joonho Lee,  Yuezhi Mao,  
 N. Mardirossian,  P. Pokhilko,  A. White,  M. Wormit,  M. P. Coons,  
 A. L. Dempwolff,  Zhengting Gan,  D. Hait,  P. R. Horn,  L. D. Jacobson,  
 I. Kaliman,  J. Kussmann,  A. W. Lange,  Ka Un Lao,  D. S. Levine,  Jie Liu,  
 S. C. McKenzie,  A. F. Morrison,  K. Nanda,  F. Plasser,  D. R. Rehn,  
 M. L. Vidal,  Zhi-Qiang You,  Ying Zhu,  B. Alam,  B. Albrecht,  
 A. Aldossary,  E. Alguire,  J. H. Andersen,  D. Barton,  K. Begam,  A. Behn,  
 Y. A. Bernard,  E. J. Berquist,  H. Burton,  A. Carreras,  K. Carter-Fenk,  
 R. Chakraborty,  A. D. Chien,  K. D. Closser,  V. Cofer-Shabica,  
 S. Dasgupta,  Jia Deng,  M. de Wergifosse,  M. Diedenhofen,  Hainam Do,  
 S. Ehlert,  Po-Tung Fang,  S. Fatehi,  Qingguo Feng,  T. Friedhoff,  
 J. Gayvert,  Qinghui Ge,  G. Gidofalvi,  M. Goldey,  J. Gomes,  
 C. Gonzalez-Espinoza,  S. Gulania,  A. Gunina,  M. W. D. Hanson-Heine,  
 P. H. P. Harbach,  A. W. Hauser,  M. F. Herbst,  M. Hernandez Vera,  
 M. Hodecker,  Z. C. Holden,  S. Houck,  Xunkun Huang,  Kerwin Hui,  
 B. C. Huynh,  M. Ivanov,  Hyunjun Ji,  Hanjie Jiang,  B. Kaduk,  S. Kaehler,  
 K. Khistyaev,  Jaehoon Kim,  P. Klunzinger,  Z. Koczor-Benda,  
 Joong Hoon Koh,  D. Kosenkov,  L. Koulias,  T. Kowalczyk,  C. M. Krauter,  
 K. Kue,  A. Kunitsa,  T. Kus,  A. Landau,  K. V. Lawler,  D. Lefrancois,  
 S. Lehtola,  Rain Li,  Yi-Pei Li,  Jiashu Liang,  M. Liebenthal,  
 Hung-Hsuan Lin,  You-Sheng Lin,  Fenglai Liu,  Kuan-Yu Liu,  
 M. Loipersberger,  A. Luenser,  A. Manjanath,  P. Manohar,  E. Mansoor,  
 S. F. Manzer,  Shan-Ping Mao,  A. V. Marenich,  T. Markovich,  S. Mason,  
 S. A. Maurer,  P. F. McLaughlin,  M. F. S. J. Menger,  J.-M. Mewes,  
 S. A. Mewes,  P. Morgante,  J. W. Mullinax,  K. J. Oosterbaan,  G. Paran,  
 Alexander C. Paul,  Suranjan K. Paul,  F. Pavosevic,  Zheng Pei,  S. Prager,  
 E. I. Proynov,  E. Ramos,  B. Rana,  A. E. Rask,  A. Rettig,  R. M. Richard,  
 F. Rob,  E. Rossomme,  T. Scheele,  M. Scheurer,  M. Schneider,  
 N. Sergueev,  S. M. Sharada,  W. Skomorowski,  D. W. Small,  C. J. Stein,  
 Yu-Chuan Su,  E. J. Sundstrom,  Zhen Tao,  J. Thirman,  T. Tsuchimochi,  
 N. M. Tubman,  S. P. Veccham,  O. Vydrov,  J. Wenzel,  J. Witte,  A. Yamada,  
 Kun Yao,  S. Yeganeh,  S. R. Yost,  A. Zech,  Igor Ying Zhang,  Xing Zhang,  
 Yu Zhang,  D. Zuev,  A. Aspuru-Guzik,  A. T. Bell,  N. A. Besley,  
 K. B. Bravaya,  B. R. Brooks,  D. Casanova,  Jeng-Da Chai,  S. Coriani,  
 C. J. Cramer,  A. E. DePrince, III,  R. A. DiStasio Jr.,  A. Dreuw,  
 B. D. Dunietz,  T. R. Furlani,  W. A. Goddard III,  S. Grimme,  
 S. Hammes-Schiffer,  T. Head-Gordon,  W. J. Hehre,  Chao-Ping Hsu,  
 T.-C. Jagau,  Yousung Jung,  A. Klamt,  Jing Kong,  D. S. Lambrecht,  
 WanZhen Liang,  N. J. Mayhall,  C. W. McCurdy,  J. B. Neaton,  
 C. Ochsenfeld,  J. A. Parkhill,  R. Peverati,  V. A. Rassolov,  Yihan Shao,  
 L. V. Slipchenko,  T. Stauch,  R. P. Steele,  J. E. Subotnik,  
 A. J. W. Thom,  A. Tkatchenko,  D. G. Truhlar,  T. Van Voorhis,  
 T. A. Wesolowski,  K. B. Whaley,  H. L. Woodcock III,  P. M. Zimmerman,  
 S. Faraji,  P. M. W. Gill,  M. Head-Gordon,  J. M. Herbert,  A. I. Krylov

 Additional authors for Version 5.4.1: 
 S. Kotaru,  Shaozhi Li,  Xiangyuan Li,  F. Matz,  A. Molle,  Haisheng Ren,  
 Yingli Su,  Hung-Yi Tsai,  C. Utku,  Fang Wang

 Contributors to earlier versions of Q-Chem not listed above: 
 R. D. Adamson,  B. Austin,  R. Baer,  J. Baker,  G. J. O. Beran,  
 K. Brandhorst,  S. T. Brown,  E. F. C. Byrd,  A. K. Chakraborty,  
 G. K. L. Chan,  Chun-Min Chang,  Yunqing Chen,  C.-L. Cheng,  
 Siu Hung Chien,  D. M. Chipman,  D. L. Crittenden,  H. Dachsel,  
 R. J. Doerksen,  A. D. Dutoi,  R. G. Edgar,  J. Fosso-Tande,  
 L. Fusti-Molnar,  D. Ghosh,  A. Ghysels,  A. Golubeva-Zadorozhnaya,  
 J. Gonthier,  M. S. Gordon,  S. R. Gwaltney,  G. Hawkins,  J. E. Herr,  
 A. Heyden,  S. Hirata,  E. G. Hohenstein,  G. Kedziora,  F. J. Keil,  
 C. Kelley,  Jihan Kim,  R. A. King,  R. Z. Khaliullin,  P. P. Korambath,  
 W. Kurlancheek,  A. Laurent,  A. M. Lee,  M. S. Lee,  S. V. Levchenko,  
 Ching Yeh Lin,  D. Liotard,  E. Livshits,  R. C. Lochan,  I. Lotan,  
 L. A. Martinez-Martinez,  P. E. Maslen,  N. Nair,  D. P. O'Neill,  
 D. Neuhauser,  E. Neuscamman,  C. M. Oana,  R. Olivares-Amaya,  R. Olson,  
 T. M. Perrine,  B. Peters,  P. A. Pieniazek,  A. Prociuk,  Y. M. Rhee,  
 J. Ritchie,  M. A. Rohrdanz,  E. Rosta,  N. J. Russ,  H. F. Schaefer III,  
 M. W. Schmidt,  N. E. Schultz,  S. Sharma,  N. Shenvi,  C. D. Sherrill,  
 A. C. Simmonett,  A. Sodt,  T. Stein,  D. Stuck,  K. S. Thanthiriwatte,  
 V. Vanovschi,  L. Vogt,  Tao Wang,  A. Warshel,  M. A. Watson,  
 C. F. Williams,  Q. Wu,  X. Xu,  Jun Yang,  W. Zhang,  Yan Zhao

 Please cite Q-Chem as follows:
 Y. Shao et al., Mol. Phys. 113, 184-215 (2015)
 DOI: 10.1080/00268976.2014.952696

 Q-Chem 5.4.1 for Intel X86 EM64T Linux

 Parts of Q-Chem use Armadillo 9.900.5 (Nocturnal Misbehaviour).
 http://arma.sourceforge.net/

 Q-Chem begins on Tue Mar  1 22:38:34 2022  

 Host: node01
0

     Scratch files written to /src/jdavis/qchem.scratch/qchem17675//
 Processing $rem in /src/tsommerfeld/qchem/config/preferences:
 Processing $rem in /home/jdavis/.qchemrc:

 Checking the input file for inconsistencies... 	...done.

--------------------------------------------------------------
User input:
--------------------------------------------------------------
$molecule
-1 1
C        -0.6645000000    0.0000000000    3.6357614391
C         0.6645000000    0.0000000000    3.6357614391
H        -1.1590800000    0.0000000000    2.6734124391
H         1.1590800000    0.0000000000    2.6734124391
H        -1.1590800000    0.0000000000    4.5981094391
H         1.1590800000    0.0000000000    4.5981094391
O         0.0000000000    0.0000000000   -6.3644435413
H         0.0000000000    0.0000000000   -7.3299440706
$end
$rem
   METHOD adc(2)
   BASIS gen
   PURECART 11
   EE_STATES [10,0,0,0]
   scf_convergence 8
   ADC_DAVIDSON_MAXITER 120
   ADC_DAVIDSON_MAXSUBSPACE 200
   adc_nguess_singles 100
   THRESH 14
   S2THRESH 14
   adc_davidson_conv 5
   adc_davidson_thresh 14
   THREADS 10
   MEM_TOTAL 95000
   STATE_ANALYSIS TRUE
$end
$basis
C 1
S   9   1.00
      6.665000D+03           6.920000D-04
      1.000000D+03           5.329000D-03
      2.280000D+02           2.707700D-02
      6.471000D+01           1.017180D-01
      2.106000D+01           2.747400D-01
      7.495000D+00           4.485640D-01
      2.797000D+00           2.850740D-01
      5.215000D-01           1.520400D-02
      1.596000D-01          -3.191000D-03
S   9   1.00
      6.665000D+03          -1.460000D-04
      1.000000D+03          -1.154000D-03
      2.280000D+02          -5.725000D-03
      6.471000D+01          -2.331200D-02
      2.106000D+01          -6.395500D-02
      7.495000D+00          -1.499810D-01
      2.797000D+00          -1.272620D-01
      5.215000D-01           5.445290D-01
      1.596000D-01           5.804960D-01
S   1   1.00
      1.596000D-01           1.000000D+00
S   1   1.00
      0.0469000              1.0000000
P   4   1.00
      9.439000D+00           3.810900D-02
      2.002000D+00           2.094800D-01
      5.456000D-01           5.085570D-01
      1.517000D-01           4.688420D-01
P   1   1.00
      1.517000D-01           1.000000D+00
P   1   1.00
      0.0496473      1.0000000
P   1   1.00
      0.0248236      1.0000000
D   1   1.00
      5.500000D-01           1.0000000
****
C 2
S   9   1.00
      6.665000D+03           6.920000D-04
      1.000000D+03           5.329000D-03
      2.280000D+02           2.707700D-02
      6.471000D+01           1.017180D-01
      2.106000D+01           2.747400D-01
      7.495000D+00           4.485640D-01
      2.797000D+00           2.850740D-01
      5.215000D-01           1.520400D-02
      1.596000D-01          -3.191000D-03
S   9   1.00
      6.665000D+03          -1.460000D-04
      1.000000D+03          -1.154000D-03
      2.280000D+02          -5.725000D-03
      6.471000D+01          -2.331200D-02
      2.106000D+01          -6.395500D-02
      7.495000D+00          -1.499810D-01
      2.797000D+00          -1.272620D-01
      5.215000D-01           5.445290D-01
      1.596000D-01           5.804960D-01
S   1   1.00
      1.596000D-01           1.000000D+00
S   1   1.00
      0.0469000              1.0000000
P   4   1.00
      9.439000D+00           3.810900D-02
      2.002000D+00           2.094800D-01
      5.456000D-01           5.085570D-01
      1.517000D-01           4.688420D-01
P   1   1.00
      1.517000D-01           1.000000D+00
P   1   1.00
      0.0496473      1.0000000
P   1   1.00
      0.0248236      1.0000000
D   1   1.00
      5.500000D-01           1.0000000
****
H 3
cc-pVDZ
****
H 4
cc-pVDZ
****
H 5
cc-pVDZ
****
H 6
cc-pVDZ
****
O 7
aug-cc-pVDZ
****
H 8
cc-pVDZ
****
$end
--------------------------------------------------------------
 ----------------------------------------------------------------
             Standard Nuclear Orientation (Angstroms)
    I     Atom           X                Y                Z
 ----------------------------------------------------------------
    1      C      -0.6645000000    -0.0000000000     3.6386938941
    2      C       0.6645000000     0.0000000000     3.6386938941
    3      H      -1.1590800000    -0.0000000000     2.6763448941
    4      H       1.1590800000     0.0000000000     2.6763448941
    5      H      -1.1590800000    -0.0000000000     4.6010418941
    6      H       1.1590800000     0.0000000000     4.6010418941
    7      O       0.0000000000    -0.0000000000    -6.3615110863
    8      H       0.0000000000    -0.0000000000    -7.3270116156
 ----------------------------------------------------------------
 Molecular Point Group                 C2v   NOp =  4
 Largest Abelian Subgroup              C2v   NOp =  4
 Nuclear Repulsion Energy =          45.51143008 hartrees
 There are       13 alpha and       13 beta electrons
 Requested basis set is non-standard
 There are 42 shells and 90 basis functions
 Total memory of 95000 MB is distributed as follows: 
   MEM_STATIC is set to 192 MB
   QALLOC/CCMAN JOB total memory use is  94808 MB
 Warning: actual memory use might exceed 95000 MB

 Total QAlloc Memory Limit  95000 MB
 Mega-Array Size       188 MB
 MEM_STATIC part       192 MB

                       Distance Matrix (Angstroms)
             C (  1)   C (  2)   H (  3)   H (  4)   H (  5)   H (  6)
   C (  2)  1.329000
   H (  3)  1.082000  2.061931
   H (  4)  2.061931  1.082000  2.318160
   H (  5)  1.082000  2.061931  1.924697  3.013026
   H (  6)  2.061931  1.082000  3.013026  1.924697  2.318160
   O (  7) 10.022258 10.022258  9.111877  9.111877 11.023658 11.023658
   H (  8) 10.985821 10.985821 10.070283 10.070283 11.984237 11.984237
             O (  7)
   H (  8)  0.965501
 
 A cutoff of  1.0D-14 yielded    667 shell pairs
 There are      3043 function pairs (      3287 Cartesian)
 Smallest overlap matrix eigenvalue = 1.71E-04

 Scale SEOQF with 1.000000e-01/1.000000e-01/1.000000e-02

 Standard Electronic Orientation quadrupole field applied
 Nucleus-field energy     =    -0.0000000060 hartrees
 ================ Generating on-the-fly SAD Guess ================
Attempting to make child job directory: /src/jdavis/qchem.scratch/qchem17675//Frg1/
Attempting to make child job directory: /src/jdavis/qchem.scratch/qchem17675//Frg2/
Attempting to make child job directory: /src/jdavis/qchem.scratch/qchem17675//Frg3/
Creating input file /src/jdavis/qchem.scratch/qchem17675/Frg1.input
using default PutDataFrgm: nothing
calling putenv with: QCSCRATCH=/src/jdavis/qchem.scratch/qchem17675/ 
Spawning Job For Fragment 0
Done Job For Fragment 0
calling putenv with: QCSCRATCH=/src/jdavis/qchem.scratch 
calling putenv with: QCTHREADS=1 
Creating input file /src/jdavis/qchem.scratch/qchem17675/Frg2.input
using default PutDataFrgm: nothing
calling putenv with: QCSCRATCH=/src/jdavis/qchem.scratch/qchem17675/ 
Spawning Job For Fragment 1
Done Job For Fragment 1
calling putenv with: QCSCRATCH=/src/jdavis/qchem.scratch 
calling putenv with: QCTHREADS=1 
Creating input file /src/jdavis/qchem.scratch/qchem17675/Frg3.input
using default PutDataFrgm: nothing
calling putenv with: QCSCRATCH=/src/jdavis/qchem.scratch/qchem17675/ 
Spawning Job For Fragment 2
Done Job For Fragment 2
calling putenv with: QCSCRATCH=/src/jdavis/qchem.scratch 
calling putenv with: QCTHREADS=1 
 Time for running child jobs:  CPU 1.81 s  wall 80.33 s
 ============= Method Specific SAD Guess Constructed =============
 Guess from on-the-fly superposition of atomic densities
 Warning: Energy on first SCF cycle will be non-variational
 A restricted Hartree-Fock SCF calculation will be
 performed using Pulay DIIS extrapolation
 SCF converges when DIIS error is below 1.0E-08
 using 10 threads for integral computing
 -------------------------------------------------------
 OpenMP Integral computing Module                
 Release: version 1.0, May 2013, Q-Chem Inc. Pittsburgh 
 -------------------------------------------------------
 ---------------------------------------
  Cycle       Energy         DIIS Error
 ---------------------------------------
    1    -153.5130948779      5.94E-02
    2    -153.2824780548      1.22E-02
    3    -153.3444983268      1.06E-02
    4    -153.4322229011      6.43E-04
    5    -153.4329607079      1.83E-04
    6    -153.4330081013      3.81E-05
    7    -153.4330107233      9.14E-06
    8    -153.4330109996      2.58E-06
    9    -153.4330110208      4.44E-07
   10    -153.4330110214      5.40E-08
   11    -153.4330110214      8.99E-09 Convergence criterion met
 ---------------------------------------
 SCF time:  CPU 11.29 s  wall 1.14 s
 SCF   energy in the final basis set = -153.43301102
 Total energy in the final basis set = -153.43301102
================================================================================
|                                                                              |
|                                 A D C  M A N                                 |
|                                                                              |
 ------------------------------------------------------------------------------ 
|                                                                              |
| Components:                                                                  |
|                                                                              |
| - libvmm - 1.3-trunk                                                         |
|   Authors:                                                                   |
|   Evgeny Epifanovsky, Ilya Kaliman                                           |
|                                                                              |
| - libtensor - 2.5-trunk                                                      |
|   Authors:                                                                   |
|   Evgeny Epifanovsky, Michael Wormit, Dmitry Zuev, Sam Manzer,               |
|   Ilya Kaliman                                                               |
|                                                                              |
| - libwfa - 1.1-trunk                                                         |
|   Authors:                                                                   |
|   Felix Plasser, Stefanie Mewes (Baeppler), Benjamin Thomitzni,              |
|   Michael Wormit, Feng Chen, Anna I. Krylov, Pavel Pokhilko                  |
|                                                                              |
| - libadc - 1.1-trunk                                                         |
|   Authors:                                                                   |
|   Michael Wormit, Adrian L. Dempwolff, Philipp H. P. Harbach,                |
|   Caroline Krauter, Dirk Rehn, Matthias Schneider, Jan Wenzel                |
|                                                                              |
| - adcman - 2.6-trunk                                                         |
|   Authors:                                                                   |
|   Michael Wormit, Adrian L. Dempwolff, Philipp H. P. Harbach,                |
|   Caroline Krauter, Daniel Lefrancois, Jan-Michael Mewes, Dirk Rehn,         |
|   Matthias Schneider, Jan Wenzel, Andreas Dreuw                              |
|                                                                              |
| Authors of earlier versions of ADCMAN:                                       |
| Andreas Dreuw, Jan Hendrik Starcke, Dirk Rehn, Michael Wormit                |
|                                                                              |
================================================================================

 
 Alpha MOs, Restricted
 -- Occupied --                  
-20.198 -11.183 -11.181  -0.988  -0.905  -0.728  -0.606  -0.513
  1 A1    2 A1    1 B1    3 A1    4 A1    2 B1    5 A1    6 A1                 
 -0.461  -0.323  -0.252  -0.108  -0.108
  3 B1    1 B2    7 A1    2 B2    4 B1                                         
 -- Virtual --                   
  0.097   0.108   0.109   0.121   0.121   0.128   0.163   0.195
  5 B1    8 A1    3 B2    1 A2    9 A1    6 B1   10 A1    2 A2                 
  0.250   0.261   0.265   0.280   0.285   0.288   0.321   0.361
  7 B1   11 A1    8 B1    9 B1    4 B2   12 A1   13 A1    3 A2                 
  0.379   0.397   0.405   0.443   0.443   0.455   0.561   0.585
 14 A1   15 A1   10 B1    5 B2   11 B1   16 A1   12 B1   17 A1                 
  0.605   0.796   0.884   0.919   0.946   0.983   0.984   1.033
 13 B1   18 A1   19 A1   20 A1   21 A1   14 B1    6 B2    4 A2                 
  1.045   1.086   1.122   1.168   1.172   1.269   1.269   1.323
 15 B1   22 A1   16 B1    7 B2   23 A1   17 B1    8 B2    5 A2                 
  1.323   1.338   1.338   1.367   1.402   1.545   1.664   1.669
 24 A1    9 B2    6 A2   18 B1   19 B1   25 A1   26 A1   20 B1                 
  1.729   1.729   1.759   1.910   1.971   1.974   1.994   2.062
 10 B2   21 B1   27 A1    7 A2   22 B1   28 A1   11 B2   29 A1                 
  2.071   2.113   2.227   2.371   2.379   2.379   2.466   2.502
 12 B2   30 A1    8 A2   23 B1   24 B1   13 B2    9 A2   31 A1                 
  2.538   2.621   2.624   2.853   2.859   3.038   3.296   3.394
 32 A1   25 B1   26 B1   33 A1   34 A1   35 A1   27 B1   28 B1                 
  3.930   3.930   3.959   3.959   4.406
 29 B1   14 B2   10 A2   36 A1   37 A1                                         
 
 Beta MOs, Restricted
 -- Occupied --                  
-20.198 -11.183 -11.181  -0.988  -0.905  -0.728  -0.606  -0.513
  1 A1    2 A1    1 B1    3 A1    4 A1    2 B1    5 A1    6 A1                 
 -0.461  -0.323  -0.252  -0.108  -0.108
  3 B1    1 B2    7 A1    2 B2    4 B1                                         
 -- Virtual --                   
  0.097   0.108   0.109   0.121   0.121   0.128   0.163   0.195
  5 B1    8 A1    3 B2    1 A2    9 A1    6 B1   10 A1    2 A2                 
  0.250   0.261   0.265   0.280   0.285   0.288   0.321   0.361
  7 B1   11 A1    8 B1    9 B1    4 B2   12 A1   13 A1    3 A2                 
  0.379   0.397   0.405   0.443   0.443   0.455   0.561   0.585
 14 A1   15 A1   10 B1    5 B2   11 B1   16 A1   12 B1   17 A1                 
  0.605   0.796   0.884   0.919   0.946   0.983   0.984   1.033
 13 B1   18 A1   19 A1   20 A1   21 A1   14 B1    6 B2    4 A2                 
  1.045   1.086   1.122   1.168   1.172   1.269   1.269   1.323
 15 B1   22 A1   16 B1    7 B2   23 A1   17 B1    8 B2    5 A2                 
  1.323   1.338   1.338   1.367   1.402   1.545   1.664   1.669
 24 A1    9 B2    6 A2   18 B1   19 B1   25 A1   26 A1   20 B1                 
  1.729   1.729   1.759   1.910   1.971   1.974   1.994   2.062
 10 B2   21 B1   27 A1    7 A2   22 B1   28 A1   11 B2   29 A1                 
  2.071   2.113   2.227   2.371   2.379   2.379   2.466   2.502
 12 B2   30 A1    8 A2   23 B1   24 B1   13 B2    9 A2   31 A1                 
  2.538   2.621   2.624   2.853   2.859   3.038   3.296   3.394
 32 A1   25 B1   26 B1   33 A1   34 A1   35 A1   27 B1   28 B1                 
  3.930   3.930   3.959   3.959   4.406
 29 B1   14 B2   10 A2   36 A1   37 A1                                         

--------------------------------------------------------------------------------
                                   HF Summary                                   
--------------------------------------------------------------------------------
  Energy:                                                 -153.4330110214 a.u.
  Dip. moment [a.u.]:                  [   0.000000,    0.000000,   11.482884]
  Total dipole [Debye]:                                              29.186585
  <r^2> [a.u.]:                        [  55.254338,   19.511815, 2265.799044]
  Total <r^2> [a.u.]:                                              2340.565196
--------------------------------------------------------------------------------

--------------------------------------------------------------------------------
                                 MP(2) Summary                                  
--------------------------------------------------------------------------------
  MP energy contribution:                                   -0.5238597101 a.u.
  Total energy:                                           -153.9568707315 a.u.
  Dip. moment [a.u.]:                  [  -0.000000,    0.000000,   11.521599]
  Total dipole [Debye]:                                              29.284990
  <r^2> [a.u.]:                        [  56.209447,   20.210916, 2267.441808]
  Total <r^2> [a.u.]:                                              2343.862171

  Density matrix analysis:
  ------------------------
  NOs
    Occupation of frontier NOs:
       0.0447   1.9372
    Number of electrons: 26.000000
    Number of unpaired electrons: n_u =  0.71274, n_u,nl =  0.08520
    NO participation ratio (PR_NO): 22.900404
  
  
  Mulliken Population Analysis
  Atom      Charge (e)              h+              e-           Del q
  --------------------------------------------------------------------
   1 C       -0.173212        0.088037       -0.102438       -0.014402
   2 C       -0.173212        0.088037       -0.102438       -0.014402
   3 H        0.097388        0.017429       -0.010264        0.007165
   4 H        0.097388        0.017429       -0.010264        0.007165
   5 H        0.075817        0.017767       -0.010536        0.007231
   6 H        0.075817        0.017767       -0.010536        0.007231
   7 O       -1.023547        0.281929       -0.269746        0.012184
   8 H        0.023562        0.017751       -0.029924       -0.012173
  --------------------------------------------------------------------
  Sum:       -1.000000        0.546145       -0.546145        0.000000
  
  Multipole moment analysis of the density matrix
    Molecular charge:                      -1.000000
    Number of electrons:                   26.000000
      Center of electronic charge [Ang]: [  0.000000,  -0.000000,  -0.234499]
    Total nuclear charge:                  25.000000
      Center of nuclear charge [Ang]:    [ -0.000000,  -0.000000,   0.000000]
    Dipole moment [D]:                     29.284981
      Cartesian components [D]:          [ -0.000000,   0.000000,  29.284981]
    RMS size of the density [Ang]:         5.018882
      Cartesian components [Ang]:        [  0.778071,   0.466560,   4.936203]
  
  Exciton analysis of the difference density matrix
    <r_h> [Ang]:                  [  0.000000,  -0.000000,  -1.860599]
    <r_e> [Ang]:                  [  0.000000,  -0.000000,  -1.898112]
    |<r_e - r_h>| [Ang]:            0.037513
    Hole size [Ang]:                5.150738
      Cartesian components [Ang]: [  0.823846,   0.712482,   5.034258]
    Electron size [Ang]:            5.299017
      Cartesian components [Ang]: [  1.080945,   0.930637,   5.103436]
--------------------------------------------------------------------------------
  Starting Davidson for singlet states of irrep A1 ... 
--------------------------------------------------------------------------------
   It NVec Conv  Avg. Norm  Max. Norm  Conv. states           Remark
--------------------------------------------------------------------------------
       100    0  1.579e-01  5.301e-01  0.2271 n n n n n n n n Guess.
    1  110    0  1.659e-02  6.046e-02  0.0474 n n n n n n n n 
    2  120    0  2.432e-03  1.152e-02  0.0460 n n n n n n n n 
    3  130    0  1.417e-02  1.411e-01  0.0459 n n n n n n n n 
    4  140    0  2.367e-03  2.352e-02  0.0459 n n n n n n n n 
    5  150    3  1.203e-04  8.790e-04  0.0459 y y y n n n n n 
    6  160    6  1.430e-05  9.735e-05  0.0459 y y y y n y n n 
    7  170    8  2.964e-06  2.043e-05  0.0459 y y y y y y y n 
    8  180   10  5.929e-07  4.631e-06  0.0459 y y y y y y y y Converged.
--------------------------------------------------------------------------------
  Davidson Summary: 
 ------------------------------------------------------------
  State  0: excitation energy =   0.0459 a.u.   (converged)
  State  1: excitation energy =   0.0557 a.u.   (converged)
  State  2: excitation energy =   0.0699 a.u.   (converged)
  State  3: excitation energy =   0.1881 a.u.   (converged)
  State  4: excitation energy =   0.2034 a.u.   (converged)
  State  5: excitation energy =   0.2086 a.u.   (converged)
  State  6: excitation energy =   0.2165 a.u.   (converged)
  State  7: excitation energy =   0.2212 a.u.   (converged)
  State  8: excitation energy =   0.2220 a.u.   (converged)
  State  9: excitation energy =   0.2463 a.u.   (converged)
 ------------------------------------------------------------


--------------------------------------------------------------------------------
                   State-averaged natural transition orbitals
--------------------------------------------------------------------------------
--------------------------------------------------------------------------------

--------------------------------------------------------------------------------
                             Excited State Summary
--------------------------------------------------------------------------------
--------------------------------------------------------------------------------

  Excited state 1 (singlet, A1)                                    [converged]
  ----------------------------------------------------------------------------
  Term symbol:  2 (1) A1                                    R^2 =  3.97323e-09

  Total energy:                                           -153.9109260412 a.u.
  Excitation energy:                                               1.250219 eV

  Osc. strength:                                                      0.000001
  Trans. dip. moment [a.u.]:           [  -0.000000,    0.000000,   -0.006466]
  <i|r^2|0> [a.u.]:                    [   0.041221,    0.013450,   -0.193777]

  Dip. moment [a.u.]:                  [  -0.000000,   -0.000000,   -8.130473]
  Total dipole [Debye]:                                              20.665606
  <r^2> [a.u.]:                        [ 100.666876,   32.827952, 2186.059950]
  Total <r^2> [a.u.]:                                              2319.554778

  V1^2 = 0.8529, V2^2 = 0.1471

  Important amplitudes:
      occ i      occ j       vir a       vir b          v   
    ---------------------------------------------------------
     4 (B1) A               5 (B1) A                  0.6298
     4 (B1) A               6 (B1) A                  0.1706
    ---------------------------------------------------------

  Density matrix analysis:
  ------------------------
  NOs
    Occupation of frontier NOs:
       0.9563   0.9970
    Number of electrons: 26.000000
    Number of unpaired electrons: n_u =  2.75871, n_u,nl =  2.12235
    NO participation ratio (PR_NO):  3.919192
  
  
  Mulliken Population Analysis
  Atom      Charge (e)              h+              e-           Del q
  --------------------------------------------------------------------
   1 C       -0.642867        0.009100       -0.478755       -0.469655
   2 C       -0.642867        0.009100       -0.478755       -0.469655
   3 H        0.078816        0.000227       -0.018799       -0.018572
   4 H        0.078816        0.000227       -0.018799       -0.018572
   5 H        0.064049        0.007195       -0.018962       -0.011768
   6 H        0.064049        0.007195       -0.018962       -0.011768
   7 O       -0.139675        1.421857       -0.537985        0.883872
   8 H        0.139680        0.141770       -0.025652        0.116118
  --------------------------------------------------------------------
  Sum:       -1.000000        1.596671       -1.596671        0.000000
  
  Multipole moment analysis of the density matrix
    Molecular charge:                      -1.000000
    Number of electrons:                   26.000000
      Center of electronic charge [Ang]: [  0.000000,   0.000000,   0.165479]
    Total nuclear charge:                  25.000000
      Center of nuclear charge [Ang]:    [ -0.000000,  -0.000000,   0.000000]
    Dipole moment [D]:                     20.665599
      Cartesian components [D]:          [ -0.000000,  -0.000000, -20.665599]
    RMS size of the density [Ang]:         4.995496
      Cartesian components [Ang]:        [  1.041257,   0.594616,   4.849453]
  
  Exciton analysis of the difference density matrix
    <r_h> [Ang]:                  [  0.000000,   0.000000,  -6.228826]
    <r_e> [Ang]:                  [  0.000000,   0.000000,   0.284368]
    |<r_e - r_h>| [Ang]:            6.513194
    Hole size [Ang]:                2.052060
      Cartesian components [Ang]: [  0.915395,   0.804350,   1.651067]
    Electron size [Ang]:            6.218140
      Cartesian components [Ang]: [  2.938539,   1.691091,   5.212529]

  Transition density matrix analysis:
  -----------------------------------
  
  CT numbers (Mulliken)
    omega =     0.8386
    <Phe> =    -0.0000
  
  Exciton analysis of the transition density matrix
    Trans. dipole moment [D]:             0.008217
      Cartesian components [D]:         [ -0.000000,   0.000000,  -0.008217]
    <r_h> [Ang]:                        [  0.000000,  -0.000000,  -6.397399]
    <r_e> [Ang]:                        [  0.000000,   0.000000,   3.945845]
    |<r_e - r_h>| [Ang]:                 10.343243
    Hole size [Ang]:                      1.092033
      Cartesian components [Ang]:       [  0.842287,   0.486293,   0.496596]
    Electron size [Ang]:                  4.674412
      Cartesian components [Ang]:       [  3.666033,   2.038066,   2.063156]
    RMS electron-hole separation [Ang]:  11.402780
      Cartesian components [Ang]:       [  3.761092,   2.095265,  10.558762]
    Covariance(r_h, r_e) [Ang^2]:         0.000973
    Correlation coefficient:              0.000191
    Center-of-mass size [Ang]:            2.400240
      Cartesian components [Ang]:       [  1.881003,   1.047646,   1.060857]

  Decomposition into state-averaged NTOs
    H- 0 -> L+ 5: -0.5125 ( 52.5%)
    H- 0 -> L+ 0: -0.3075 ( 18.9%)
    H- 0 -> L+ 8:  0.2478 ( 12.3%)
                   omega =  83.9%
  ----------------------------------------------------------------------------


  Excited state 2 (singlet, A1)                                    [converged]
  ----------------------------------------------------------------------------
  Term symbol:  3 (1) A1                                    R^2 =  5.46629e-09

  Total energy:                                           -153.9011207747 a.u.
  Excitation energy:                                               1.517033 eV

  Osc. strength:                                                      0.000010
  Trans. dip. moment [a.u.]:           [  -0.000000,    0.000000,    0.016247]
  <i|r^2|0> [a.u.]:                    [  -0.014816,   -0.047072,    0.122709]

  Dip. moment [a.u.]:                  [  -0.000000,   -0.000000,   -7.552295]
  Total dipole [Debye]:                                              19.196022
  <r^2> [a.u.]:                        [  69.261622,   60.480223, 2177.196947]
  Total <r^2> [a.u.]:                                              2306.938792

  V1^2 = 0.8542, V2^2 = 0.1458

  Important amplitudes:
      occ i      occ j       vir a       vir b          v   
    ---------------------------------------------------------
     2 (B2) A               3 (B2) A                 -0.6533
     2 (B2) A   2 (B2) B    3 (B2) A    5 (B2) B     -0.0668
    ---------------------------------------------------------

  Density matrix analysis:
  ------------------------
  NOs
    Occupation of frontier NOs:
       0.9563   0.9987
    Number of electrons: 26.000000
    Number of unpaired electrons: n_u =  2.75474, n_u,nl =  2.12130
    NO participation ratio (PR_NO):  3.901334
  
  
  Mulliken Population Analysis
  Atom      Charge (e)              h+              e-           Del q
  --------------------------------------------------------------------
   1 C       -0.657043        0.014934       -0.498764       -0.483830
   2 C       -0.657043        0.014934       -0.498764       -0.483830
   3 H        0.084141       -0.000779       -0.012468       -0.013247
   4 H        0.084141       -0.000779       -0.012468       -0.013247
   5 H        0.072898       -0.000301       -0.002617       -0.002918
   6 H        0.072898       -0.000301       -0.002617       -0.002918
   7 O       -0.139645        1.422946       -0.539044        0.883902
   8 H        0.139651        0.141731       -0.025642        0.116089
  --------------------------------------------------------------------
  Sum:       -1.000000        1.592385       -1.592385       -0.000000
  
  Multipole moment analysis of the density matrix
    Molecular charge:                      -1.000000
    Number of electrons:                   26.000000
      Center of electronic charge [Ang]: [  0.000000,   0.000000,   0.153712]
    Total nuclear charge:                  25.000000
      Center of nuclear charge [Ang]:    [ -0.000000,  -0.000000,   0.000000]
    Dipole moment [D]:                     19.196016
      Cartesian components [D]:          [ -0.000000,  -0.000000, -19.196016]
    RMS size of the density [Ang]:         4.982254
      Cartesian components [Ang]:        [  0.863696,   0.807088,   4.839989]
  
  Exciton analysis of the difference density matrix
    <r_h> [Ang]:                  [  0.000000,   0.000000,  -6.266503]
    <r_e> [Ang]:                  [  0.000000,   0.000000,   0.072085]
    |<r_e - r_h>| [Ang]:            6.338588
    Hole size [Ang]:                1.945136
      Cartesian components [Ang]: [  0.812262,   0.903615,   1.518968]
    Electron size [Ang]:            6.046012
      Cartesian components [Ang]: [  1.719028,   2.810351,   5.069628]

  Transition density matrix analysis:
  -----------------------------------
  
  CT numbers (Mulliken)
    omega =     0.8397
    <Phe> =     0.0000
  
  Exciton analysis of the transition density matrix
    Trans. dipole moment [D]:             0.020648
      Cartesian components [D]:         [  0.000000,   0.000000,   0.020648]
    <r_h> [Ang]:                        [  0.000000,   0.000000,  -6.397333]
    <r_e> [Ang]:                        [  0.000000,   0.000000,   3.638455]
    |<r_e - r_h>| [Ang]:                 10.035788
    Hole size [Ang]:                      1.092349
      Cartesian components [Ang]:       [  0.486274,   0.842241,   0.497386]
    Electron size [Ang]:                  4.539542
      Cartesian components [Ang]:       [  2.063651,   3.501420,   2.022089]
    RMS electron-hole separation [Ang]:  11.068875
      Cartesian components [Ang]:       [  2.120153,   3.601154,  10.249714]
    Covariance(r_h, r_e) [Ang^2]:        -0.001145
    Correlation coefficient:             -0.000231
    Center-of-mass size [Ang]:            2.334437
      Cartesian components [Ang]:       [  1.060092,   1.800716,   1.040778]

  Decomposition into state-averaged NTOs
    H- 1 -> L+ 3:  0.6063 ( 73.5%)
    H- 1 -> L+ 7:  0.2285 ( 10.4%)
                   omega =  84.0%
  ----------------------------------------------------------------------------


  Excited state 3 (singlet, A1)                                    [converged]
  ----------------------------------------------------------------------------
  Term symbol:  4 (1) A1                                    R^2 =  7.34122e-09

  Total energy:                                           -153.8869453530 a.u.
  Excitation energy:                                               1.902766 eV

  Osc. strength:                                                      0.000104
  Trans. dip. moment [a.u.]:           [   0.000000,   -0.000000,    0.047135]
  <i|r^2|0> [a.u.]:                    [  -0.150203,   -0.043186,    0.430921]

  Dip. moment [a.u.]:                  [   0.000000,   -0.000000,   -7.014586]
  Total dipole [Debye]:                                              17.829302
  <r^2> [a.u.]:                        [  94.313447,   31.391184, 2196.006303]
  Total <r^2> [a.u.]:                                              2321.710934

  V1^2 = 0.8558, V2^2 = 0.1442

  Important amplitudes:
      occ i      occ j       vir a       vir b          v   
    ---------------------------------------------------------
     4 (B1) A               6 (B1) A                 -0.6314
     4 (B1) A               5 (B1) A                  0.1687
    ---------------------------------------------------------

  Density matrix analysis:
  ------------------------
  NOs
    Occupation of frontier NOs:
       0.9555   1.0001
    Number of electrons: 26.000000
    Number of unpaired electrons: n_u =  2.75346, n_u,nl =  2.12048
    NO participation ratio (PR_NO):  3.896770
  
  
  Mulliken Population Analysis
  Atom      Charge (e)              h+              e-           Del q
  --------------------------------------------------------------------
   1 C       -0.628568        0.000771       -0.456127       -0.455356
   2 C       -0.628568        0.000771       -0.456127       -0.455356
   3 H        0.067115        0.000917       -0.031190       -0.030273
   4 H        0.067115        0.000917       -0.031190       -0.030273
   5 H        0.061491        0.005882       -0.020208       -0.014326
   6 H        0.061491        0.005882       -0.020208       -0.014326
   7 O       -0.138936        1.422586       -0.537975        0.884611
   8 H        0.138860        0.140694       -0.025396        0.115298
  --------------------------------------------------------------------
  Sum:       -1.000000        1.578420       -1.578420        0.000000
  
  Multipole moment analysis of the density matrix
    Molecular charge:                      -1.000000
    Number of electrons:                   26.000000
      Center of electronic charge [Ang]: [ -0.000000,   0.000000,   0.142768]
    Total nuclear charge:                  25.000000
      Center of nuclear charge [Ang]:    [ -0.000000,  -0.000000,   0.000000]
    Dipole moment [D]:                     17.829297
      Cartesian components [D]:          [  0.000000,  -0.000000, -17.829297]
    RMS size of the density [Ang]:         4.998520
      Cartesian components [Ang]:        [  1.007862,   0.581458,   4.861206]
  
  Exciton analysis of the difference density matrix
    <r_h> [Ang]:                  [  0.000000,   0.000000,  -6.338808]
    <r_e> [Ang]:                  [ -0.000000,   0.000000,  -0.124412]
    |<r_e - r_h>| [Ang]:            6.214396
    Hole size [Ang]:                1.765059
      Cartesian components [Ang]: [  0.908414,   0.805417,   1.281219]
    Electron size [Ang]:            6.273003
      Cartesian components [Ang]: [  2.754137,   1.622404,   5.397509]

  Transition density matrix analysis:
  -----------------------------------
  
  CT numbers (Mulliken)
    omega =     0.8415
    <Phe> =     0.0000
  
  Exciton analysis of the transition density matrix
    Trans. dipole moment [D]:             0.059902
      Cartesian components [D]:         [ -0.000000,  -0.000000,   0.059902]
    <r_h> [Ang]:                        [  0.000000,  -0.000000,  -6.397402]
    <r_e> [Ang]:                        [ -0.000000,   0.000000,   3.341325]
    |<r_e - r_h>| [Ang]:                  9.738728
    Hole size [Ang]:                      1.091578
      Cartesian components [Ang]:       [  0.842096,   0.486186,   0.496026]
    Electron size [Ang]:                  5.170506
      Cartesian components [Ang]:       [  3.413298,   1.937350,   3.366038]
    RMS electron-hole separation [Ang]:  11.079974
      Cartesian components [Ang]:       [  3.515160,   1.997423,  10.315996]
    Covariance(r_h, r_e) [Ang^2]:         0.001334
    Correlation coefficient:              0.000236
    Center-of-mass size [Ang]:            2.642364
      Cartesian components [Ang]:       [  1.758060,   0.998712,   1.701142]

  Decomposition into state-averaged NTOs
    H- 0 -> L+ 0:  0.5094 ( 51.9%)
    H- 0 -> L+ 5: -0.2759 ( 15.2%)
    H- 0 -> L+ 6: -0.2726 ( 14.9%)
    H- 0 -> L+ 4:  0.0986 (  1.9%)
                   omega =  84.1%
  ----------------------------------------------------------------------------


  Excited state 4 (singlet, A1)                                    [converged]
  ----------------------------------------------------------------------------
  Term symbol:  5 (1) A1                                    R^2 =  1.12919e-07

  Total energy:                                           -153.7687667640 a.u.
  Excitation energy:                                               5.118569 eV

  Osc. strength:                                                      0.000004
  Trans. dip. moment [a.u.]:           [  -0.000000,    0.000000,   -0.005931]
  <i|r^2|0> [a.u.]:                    [   0.064352,    0.012569,   -0.186429]

  Dip. moment [a.u.]:                  [   0.000000,    0.000000,   -7.625753]
  Total dipole [Debye]:                                              19.382733
  <r^2> [a.u.]:                        [  86.397674,   28.931717, 2174.096598]
  Total <r^2> [a.u.]:                                              2289.425990

  V1^2 = 0.8493, V2^2 = 0.1507

  Important amplitudes:
      occ i      occ j       vir a       vir b          v   
    ---------------------------------------------------------
     4 (B1) A               7 (B1) A                 -0.6384
     4 (B1) A               9 (B1) A                 -0.1035
    ---------------------------------------------------------

  Density matrix analysis:
  ------------------------
  NOs
    Occupation of frontier NOs:
       0.9563   0.9916
    Number of electrons: 26.000000
    Number of unpaired electrons: n_u =  2.76728, n_u,nl =  2.12504
    NO participation ratio (PR_NO):  3.963479
  
  
  Mulliken Population Analysis
  Atom      Charge (e)              h+              e-           Del q
  --------------------------------------------------------------------
   1 C       -0.761205        0.031988       -0.619980       -0.587992
   2 C       -0.761205        0.031988       -0.619980       -0.587992
   3 H        0.129127        0.001428        0.030311        0.031739
   4 H        0.129127        0.001428        0.030311        0.031739
   5 H        0.132120        0.003610        0.052693        0.056303
   6 H        0.132120        0.003610        0.052693        0.056303
   7 O       -0.138338        1.414528       -0.529319        0.885209
   8 H        0.138253        0.139874       -0.025183        0.114691
  --------------------------------------------------------------------
  Sum:       -1.000000        1.628453       -1.628453        0.000000
  
  Multipole moment analysis of the density matrix
    Molecular charge:                      -1.000000
    Number of electrons:                   26.000000
      Center of electronic charge [Ang]: [ -0.000000,  -0.000000,   0.155207]
    Total nuclear charge:                  25.000000
      Center of nuclear charge [Ang]:    [ -0.000000,  -0.000000,   0.000000]
    Dipole moment [D]:                     19.382728
      Cartesian components [D]:          [  0.000000,   0.000000, -19.382728]
    RMS size of the density [Ang]:         4.963243
      Cartesian components [Ang]:        [  0.964640,   0.558215,   4.836491]
  
  Exciton analysis of the difference density matrix
    <r_h> [Ang]:                  [ -0.000000,   0.000000,  -5.983246]
    <r_e> [Ang]:                  [ -0.000000,  -0.000000,   0.238819]
    |<r_e - r_h>| [Ang]:            6.222065
    Hole size [Ang]:                2.542199
      Cartesian components [Ang]: [  0.919409,   0.800307,   2.230913]
    Electron size [Ang]:            5.730981
      Cartesian components [Ang]: [  2.456924,   1.462914,   4.966643]

  Transition density matrix analysis:
  -----------------------------------
  
  CT numbers (Mulliken)
    omega =     0.8343
    <Phe> =    -0.0000
  
  Exciton analysis of the transition density matrix
    Trans. dipole moment [D]:             0.007537
      Cartesian components [D]:         [  0.000000,   0.000000,  -0.007537]
    <r_h> [Ang]:                        [  0.000000,  -0.000000,  -6.397143]
    <r_e> [Ang]:                        [ -0.000000,  -0.000000,   3.677108]
    |<r_e - r_h>| [Ang]:                 10.074251
    Hole size [Ang]:                      1.092441
      Cartesian components [Ang]:       [  0.841826,   0.486025,   0.498535]
    Electron size [Ang]:                  3.918447
      Cartesian components [Ang]:       [  3.074532,   1.741783,   1.693420]
    RMS electron-hole separation [Ang]:  10.864704
      Cartesian components [Ang]:       [  3.187362,   1.808311,  10.228027]
    Covariance(r_h, r_e) [Ang^2]:        -0.001806
    Correlation coefficient:             -0.000422
    Center-of-mass size [Ang]:            2.033719
      Cartesian components [Ang]:       [  1.594017,   0.904167,   0.881819]

  Decomposition into state-averaged NTOs
    H- 0 -> L+ 8: -0.4971 ( 49.4%)
    H- 0 -> L+ 6: -0.2812 ( 15.8%)
    H- 0 -> L+ 0: -0.2109 (  8.9%)
    H- 0 -> L+ 4:  0.1904 (  7.3%)
    H- 0 -> L+ 5: -0.1010 (  2.0%)
                   omega =  83.4%
  ----------------------------------------------------------------------------


  Excited state 5 (singlet, A1)                                    [converged]
  ----------------------------------------------------------------------------
  Term symbol:  6 (1) A1                                    R^2 =  1.13231e-06

  Total energy:                                           -153.7534941571 a.u.
  Excitation energy:                                               5.534158 eV

  Osc. strength:                                                      0.000190
  Trans. dip. moment [a.u.]:           [   0.000000,   -0.000000,    0.037479]
  <i|r^2|0> [a.u.]:                    [  -0.016313,   -0.015998,    0.651481]

  Dip. moment [a.u.]:                  [   0.000000,    0.000000,   -7.635329]
  Total dipole [Debye]:                                              19.407075
  <r^2> [a.u.]:                        [  69.576911,   32.283014, 2205.789541]
  Total <r^2> [a.u.]:                                              2307.649466

  V1^2 = 0.8593, V2^2 = 0.1407

  Important amplitudes:
      occ i      occ j       vir a       vir b          v   
    ---------------------------------------------------------
     7 (A1) A               8 (A1) A                  0.6495
     7 (A1) A              10 (A1) A                 -0.0662
    ---------------------------------------------------------

  Density matrix analysis:
  ------------------------
  NOs
    Occupation of frontier NOs:
       0.9727   0.9993
    Number of electrons: 26.000000
    Number of unpaired electrons: n_u =  2.80293, n_u,nl =  2.13891
    NO participation ratio (PR_NO):  3.963640
  
  
  Mulliken Population Analysis
  Atom      Charge (e)              h+              e-           Del q
  --------------------------------------------------------------------
   1 C       -0.638222        0.007080       -0.472090       -0.465010
   2 C       -0.638222        0.007080       -0.472090       -0.465010
   3 H        0.074220        0.000575       -0.023743       -0.023168
   4 H        0.074220        0.000575       -0.023743       -0.023168
   5 H        0.064576        0.007290       -0.018531       -0.011240
   6 H        0.064576        0.007290       -0.018531       -0.011240
   7 O       -0.323185        1.245471       -0.545109        0.700362
   8 H        0.322037        0.316748       -0.018273        0.298475
  --------------------------------------------------------------------
  Sum:       -1.000000        1.592109       -1.592109       -0.000000
  
  Multipole moment analysis of the density matrix
    Molecular charge:                      -1.000000
    Number of electrons:                   26.000000
      Center of electronic charge [Ang]: [  0.000000,  -0.000000,   0.155402]
    Total nuclear charge:                  25.000000
      Center of nuclear charge [Ang]:    [ -0.000000,  -0.000000,   0.000000]
    Dipole moment [D]:                     19.407069
      Cartesian components [D]:          [ -0.000000,   0.000000, -19.407069]
    RMS size of the density [Ang]:         4.982970
      Cartesian components [Ang]:        [  0.865659,   0.589660,   4.871645]
  
  Exciton analysis of the difference density matrix
    <r_h> [Ang]:                  [  0.000000,   0.000000,  -6.247614]
    <r_e> [Ang]:                  [  0.000000,  -0.000000,   0.119671]
    |<r_e - r_h>| [Ang]:            6.367285
    Hole size [Ang]:                2.002581
      Cartesian components [Ang]: [  0.791533,   0.783953,   1.664098]
    Electron size [Ang]:            6.054702
      Cartesian components [Ang]: [  1.725591,   1.654656,   5.562721]

  Transition density matrix analysis:
  -----------------------------------
  
  CT numbers (Mulliken)
    omega =     0.8428
    <Phe> =    -0.0000
  
  Exciton analysis of the transition density matrix
    Trans. dipole moment [D]:             0.047631
      Cartesian components [D]:         [  0.000000,  -0.000000,   0.047631]
    <r_h> [Ang]:                        [  0.000000,   0.000000,  -6.442650]
    <r_e> [Ang]:                        [  0.000000,  -0.000000,   3.682471]
    |<r_e - r_h>| [Ang]:                 10.125121
    Hole size [Ang]:                      1.006233
      Cartesian components [Ang]:       [  0.420647,   0.420627,   0.811562]
    Electron size [Ang]:                  4.512815
      Cartesian components [Ang]:       [  2.073766,   1.987557,   3.480604]
    RMS electron-hole separation [Ang]:  11.131054
      Cartesian components [Ang]:       [  2.116224,   2.031580,  10.737534]
    Covariance(r_h, r_e) [Ang^2]:        -0.002144
    Correlation coefficient:             -0.000472
    Center-of-mass size [Ang]:            2.311586
      Cartesian components [Ang]:       [  1.057887,   1.015789,   1.786751]

  Decomposition into state-averaged NTOs
    H- 2 -> L+ 1: -0.6491 ( 84.3%)
                   omega =  84.3%
  ----------------------------------------------------------------------------


  Excited state 6 (singlet, A1)                                    [converged]
  ----------------------------------------------------------------------------
  Term symbol:  7 (1) A1                                    R^2 =  1.37649e-07

  Total energy:                                           -153.7482284895 a.u.
  Excitation energy:                                               5.677444 eV

  Osc. strength:                                                      0.000001
  Trans. dip. moment [a.u.]:           [  -0.000000,   -0.000000,    0.002971]
  <i|r^2|0> [a.u.]:                    [  -0.008908,   -0.003661,    0.025590]

  Dip. moment [a.u.]:                  [  -0.000000,   -0.000000,   -7.906715]
  Total dipole [Debye]:                                              20.096868
  <r^2> [a.u.]:                        [  76.217673,   29.465364, 2177.907381]
  Total <r^2> [a.u.]:                                              2283.590417

  V1^2 = 0.8520, V2^2 = 0.1480

  Important amplitudes:
      occ i      occ j       vir a       vir b          v   
    ---------------------------------------------------------
     4 (B1) A               8 (B1) A                  0.6208
     4 (B1) A               9 (B1) A                 -0.1733
    ---------------------------------------------------------

  Density matrix analysis:
  ------------------------
  NOs
    Occupation of frontier NOs:
       0.9565   0.9951
    Number of electrons: 26.000000
    Number of unpaired electrons: n_u =  2.76118, n_u,nl =  2.12292
    NO participation ratio (PR_NO):  3.932701
  
  
  Mulliken Population Analysis
  Atom      Charge (e)              h+              e-           Del q
  --------------------------------------------------------------------
   1 C       -0.706867        0.019204       -0.552858       -0.533654
   2 C       -0.706867        0.019204       -0.552858       -0.533654
   3 H        0.089725        0.000170       -0.007834       -0.007664
   4 H        0.089725        0.000170       -0.007834       -0.007664
   5 H        0.117146        0.003638        0.037691        0.041329
   6 H        0.117146        0.003638        0.037691        0.041329
   7 O       -0.138959        1.419297       -0.534709        0.884588
   8 H        0.138951        0.140801       -0.025412        0.115389
  --------------------------------------------------------------------
  Sum:       -1.000000        1.606122       -1.606122        0.000000
  
  Multipole moment analysis of the density matrix
    Molecular charge:                      -1.000000
    Number of electrons:                   26.000000
      Center of electronic charge [Ang]: [  0.000000,   0.000000,   0.160925]
    Total nuclear charge:                  25.000000
      Center of nuclear charge [Ang]:    [ -0.000000,  -0.000000,   0.000000]
    Dipole moment [D]:                     20.096862
      Cartesian components [D]:          [ -0.000000,  -0.000000, -20.096862]
    RMS size of the density [Ang]:         4.956725
      Cartesian components [Ang]:        [  0.906029,   0.563340,   4.840545]
  
  Exciton analysis of the difference density matrix
    <r_h> [Ang]:                  [ -0.000000,   0.000000,  -6.150681]
    <r_e> [Ang]:                  [  0.000000,   0.000000,   0.250465]
    |<r_e - r_h>| [Ang]:            6.401146
    Hole size [Ang]:                2.220924
      Cartesian components [Ang]: [  0.915003,   0.807115,   1.855758]
    Electron size [Ang]:            5.673819
      Cartesian components [Ang]: [  2.079827,   1.504977,   5.059802]

  Transition density matrix analysis:
  -----------------------------------
  
  CT numbers (Mulliken)
    omega =     0.8375
    <Phe> =    -0.0000
  
  Exciton analysis of the transition density matrix
    Trans. dipole moment [D]:             0.003776
      Cartesian components [D]:         [  0.000000,  -0.000000,   0.003776]
    <r_h> [Ang]:                        [  0.000000,  -0.000000,  -6.397339]
    <r_e> [Ang]:                        [  0.000000,   0.000000,   3.836904]
    |<r_e - r_h>| [Ang]:                 10.234243
    Hole size [Ang]:                      1.091940
      Cartesian components [Ang]:       [  0.842066,   0.486170,   0.496888]
    Electron size [Ang]:                  3.549930
      Cartesian components [Ang]:       [  2.559929,   1.788636,   1.688061]
    RMS electron-hole separation [Ang]:  10.887235
      Cartesian components [Ang]:       [  2.694068,   1.853524,  10.384524]
    Covariance(r_h, r_e) [Ang^2]:         0.001092
    Correlation coefficient:              0.000282
    Center-of-mass size [Ang]:            1.857183
      Cartesian components [Ang]:       [  1.347833,   0.926769,   0.879531]

  Decomposition into state-averaged NTOs
    H- 0 -> L+ 4: -0.5173 ( 53.5%)
    H- 0 -> L+ 8: -0.2747 ( 15.1%)
    H- 0 -> L+ 5: -0.2126 (  9.0%)
    H- 0 -> L+ 6:  0.1523 (  4.6%)
    H- 0 -> L+ 0:  0.0854 (  1.5%)
                   omega =  83.7%
  ----------------------------------------------------------------------------


  Excited state 7 (singlet, A1)                                    [converged]
  ----------------------------------------------------------------------------
  Term symbol:  8 (1) A1                                    R^2 =  1.24263e-06

  Total energy:                                           -153.7403368935 a.u.
  Excitation energy:                                               5.892185 eV

  Osc. strength:                                                      0.000127
  Trans. dip. moment [a.u.]:           [   0.000000,    0.000000,    0.029632]
  <i|r^2|0> [a.u.]:                    [  -0.260746,    0.000920,    0.336899]

  Dip. moment [a.u.]:                  [  -0.000000,    0.000000,   -7.022916]
  Total dipole [Debye]:                                              17.850475
  <r^2> [a.u.]:                        [  77.598767,   27.522619, 2180.933556]
  Total <r^2> [a.u.]:                                              2286.054943

  V1^2 = 0.8524, V2^2 = 0.1476

  Important amplitudes:
      occ i      occ j       vir a       vir b          v   
    ---------------------------------------------------------
     4 (B1) A               9 (B1) A                  0.6195
     4 (B1) A               8 (B1) A                  0.1848
    ---------------------------------------------------------

  Density matrix analysis:
  ------------------------
  NOs
    Occupation of frontier NOs:
       0.9534   0.9980
    Number of electrons: 26.000000
    Number of unpaired electrons: n_u =  2.76067, n_u,nl =  2.12225
    NO participation ratio (PR_NO):  3.931550
  
  
  Mulliken Population Analysis
  Atom      Charge (e)              h+              e-           Del q
  --------------------------------------------------------------------
   1 C       -1.005409        0.013687       -0.845883       -0.832196
   2 C       -1.005409        0.013687       -0.845883       -0.832196
   3 H        0.286706        0.002323        0.186994        0.189318
   4 H        0.286706        0.002323        0.186994        0.189318
   5 H        0.220119        0.002768        0.141534        0.144302
   6 H        0.220119        0.002768        0.141534        0.144302
   7 O       -0.140801        1.416426       -0.533680        0.882746
   8 H        0.137968        0.139513       -0.025106        0.114406
  --------------------------------------------------------------------
  Sum:       -1.000000        1.593495       -1.593495        0.000000
  
  Multipole moment analysis of the density matrix
    Molecular charge:                      -1.000000
    Number of electrons:                   26.000000
      Center of electronic charge [Ang]: [  0.000000,  -0.000000,   0.142937]
    Total nuclear charge:                  25.000000
      Center of nuclear charge [Ang]:    [ -0.000000,  -0.000000,   0.000000]
    Dipole moment [D]:                     17.850470
      Cartesian components [D]:          [ -0.000000,   0.000000, -17.850470]
    RMS size of the density [Ang]:         4.959953
      Cartesian components [Ang]:        [  0.914201,   0.544452,   4.844475]
  
  Exciton analysis of the difference density matrix
    <r_h> [Ang]:                  [  0.000000,   0.000000,  -6.203159]
    <r_e> [Ang]:                  [  0.000000,  -0.000000,  -0.044788]
    |<r_e - r_h>| [Ang]:            6.158371
    Hole size [Ang]:                2.094071
      Cartesian components [Ang]: [  0.910841,   0.806710,   1.704324]
    Electron size [Ang]:            5.718717
      Cartesian components [Ang]: [  2.142061,   1.391289,   5.116601]

  Transition density matrix analysis:
  -----------------------------------
  
  CT numbers (Mulliken)
    omega =     0.8371
    <Phe> =     0.0000
  
  Exciton analysis of the transition density matrix
    Trans. dipole moment [D]:             0.037658
      Cartesian components [D]:         [  0.000000,   0.000000,   0.037658]
    <r_h> [Ang]:                        [  0.000000,  -0.000000,  -6.397215]
    <r_e> [Ang]:                        [  0.000000,  -0.000000,   3.338108]
    |<r_e - r_h>| [Ang]:                  9.735323
    Hole size [Ang]:                      1.092009
      Cartesian components [Ang]:       [  0.841708,   0.486208,   0.497607]
    Electron size [Ang]:                  4.083533
      Cartesian components [Ang]:       [  2.636457,   1.627368,   2.660076]
    RMS electron-hole separation [Ang]:  10.613508
      Cartesian components [Ang]:       [  2.767281,   1.698449,  10.104652]
    Covariance(r_h, r_e) [Ang^2]:        -0.001160
    Correlation coefficient:             -0.000260
    Center-of-mass size [Ang]:            2.113374
      Cartesian components [Ang]:       [  1.383918,   0.849223,   1.352753]

  Decomposition into state-averaged NTOs
    H- 0 -> L+ 6:  0.4911 ( 48.2%)
    H- 0 -> L+ 4:  0.3246 ( 21.1%)
    H- 0 -> L+ 8: -0.1744 (  6.1%)
    H- 0 -> L+ 5: -0.1582 (  5.0%)
    H- 0 -> L+ 0:  0.1275 (  3.3%)
                   omega =  83.7%
  ----------------------------------------------------------------------------


  Excited state 8 (singlet, A1)                                    [converged]
  ----------------------------------------------------------------------------
  Term symbol:  9 (1) A1                                    R^2 =  3.28444e-06

  Total energy:                                           -153.7356473299 a.u.
  Excitation energy:                                               6.019795 eV

  Osc. strength:                                                      0.000014
  Trans. dip. moment [a.u.]:           [  -0.000000,   -0.000000,   -0.009601]
  <i|r^2|0> [a.u.]:                    [  -0.003065,    0.086982,   -0.104169]

  Dip. moment [a.u.]:                  [  -0.000000,    0.000000,   -7.544860]
  Total dipole [Debye]:                                              19.177125
  <r^2> [a.u.]:                        [  63.177378,   42.442967, 2171.570738]
  Total <r^2> [a.u.]:                                              2277.191083

  V1^2 = 0.8493, V2^2 = 0.1507

  Important amplitudes:
      occ i      occ j       vir a       vir b          v   
    ---------------------------------------------------------
     2 (B2) A               4 (B2) A                 -0.6511
     2 (B2) A   2 (B2) B    4 (B2) A    5 (B2) B     -0.0656
    ---------------------------------------------------------

  Density matrix analysis:
  ------------------------
  NOs
    Occupation of frontier NOs:
       0.9564   0.9934
    Number of electrons: 26.000000
    Number of unpaired electrons: n_u =  2.76225, n_u,nl =  2.12368
    NO participation ratio (PR_NO):  3.942736
  
  
  Mulliken Population Analysis
  Atom      Charge (e)              h+              e-           Del q
  --------------------------------------------------------------------
   1 C       -0.620802        0.052132       -0.499722       -0.447590
   2 C       -0.620802        0.052132       -0.499722       -0.447590
   3 H        0.066424       -0.001297       -0.029667       -0.030964
   4 H        0.066424       -0.001297       -0.029667       -0.030964
   5 H        0.054538       -0.001071       -0.020208       -0.021279
   6 H        0.054538       -0.001071       -0.020208       -0.021279
   7 O       -0.138381        1.413997       -0.528832        0.885166
   8 H        0.138062        0.139617       -0.025117        0.114500
  --------------------------------------------------------------------
  Sum:       -1.000000        1.653141       -1.653141       -0.000000
  
  Multipole moment analysis of the density matrix
    Molecular charge:                      -1.000000
    Number of electrons:                   26.000000
      Center of electronic charge [Ang]: [  0.000000,  -0.000000,   0.153560]
    Total nuclear charge:                  25.000000
      Center of nuclear charge [Ang]:    [ -0.000000,  -0.000000,   0.000000]
    Dipole moment [D]:                     19.177120
      Cartesian components [D]:          [ -0.000000,   0.000000, -19.177120]
    RMS size of the density [Ang]:         4.950001
      Cartesian components [Ang]:        [  0.824889,   0.676110,   4.833730]
  
  Exciton analysis of the difference density matrix
    <r_h> [Ang]:                  [  0.000000,   0.000000,  -5.834959]
    <r_e> [Ang]:                  [  0.000000,  -0.000000,   0.268293]
    |<r_e - r_h>| [Ang]:            6.103252
    Hole size [Ang]:                2.790258
      Cartesian components [Ang]: [  0.820776,   0.897241,   2.511339]
    Electron size [Ang]:            5.519671
      Cartesian components [Ang]: [  1.361611,   2.137982,   4.903246]

  Transition density matrix analysis:
  -----------------------------------
  
  CT numbers (Mulliken)
    omega =     0.8335
    <Phe> =     0.0002
  
  Exciton analysis of the transition density matrix
    Trans. dipole moment [D]:             0.012202
      Cartesian components [D]:         [ -0.000000,  -0.000000,  -0.012202]
    <r_h> [Ang]:                        [  0.000000,   0.000000,  -6.396181]
    <r_e> [Ang]:                        [  0.000000,  -0.000000,   3.633700]
    |<r_e - r_h>| [Ang]:                 10.029881
    Hole size [Ang]:                      1.096848
      Cartesian components [Ang]:       [  0.486052,   0.841723,   0.508262]
    Electron size [Ang]:                  3.478236
      Cartesian components [Ang]:       [  1.564582,   2.683098,   1.565629]
    RMS electron-hole separation [Ang]:  10.673527
      Cartesian components [Ang]:       [  1.638328,   2.811811,  10.165322]
    Covariance(r_h, r_e) [Ang^2]:        -0.012230
    Correlation coefficient:             -0.003206
    Center-of-mass size [Ang]:            1.821863
      Cartesian components [Ang]:       [  0.819178,   1.406124,   0.819113]

  Decomposition into state-averaged NTOs
    H- 1 -> L+ 7:  0.6032 ( 72.8%)
    H- 1 -> L+ 3: -0.2297 ( 10.6%)
                   omega =  83.3%
  ----------------------------------------------------------------------------


  Excited state 9 (singlet, A1)                                    [converged]
  ----------------------------------------------------------------------------
  Term symbol:  10 (1) A1                                   R^2 =  4.63087e-06

  Total energy:                                           -153.7348771970 a.u.
  Excitation energy:                                               6.040751 eV

  Osc. strength:                                                      0.000008
  Trans. dip. moment [a.u.]:           [   0.000000,    0.000000,    0.007156]
  <i|r^2|0> [a.u.]:                    [  -0.000460,   -0.000826,    0.128786]

  Dip. moment [a.u.]:                  [   0.000000,    0.000000,   -7.556616]
  Total dipole [Debye]:                                              19.207005
  <r^2> [a.u.]:                        [ 115.652542,   29.606302, 2172.700057]
  Total <r^2> [a.u.]:                                              2317.958901

  V1^2 = 0.8570, V2^2 = 0.1430

  Important amplitudes:
      occ i      occ j       vir a       vir b          v   
    ---------------------------------------------------------
     7 (A1) A               9 (A1) A                 -0.6511
     7 (A1) A   4 (B1) B    9 (A1) A   11 (B1) B     -0.0560
    ---------------------------------------------------------

  Density matrix analysis:
  ------------------------
  NOs
    Occupation of frontier NOs:
       0.9736   0.9976
    Number of electrons: 26.000000
    Number of unpaired electrons: n_u =  2.80672, n_u,nl =  2.14072
    NO participation ratio (PR_NO):  3.976615
  
  
  Mulliken Population Analysis
  Atom      Charge (e)              h+              e-           Del q
  --------------------------------------------------------------------
   1 C       -0.697052        0.009884       -0.533724       -0.523840
   2 C       -0.697052        0.009884       -0.533724       -0.523840
   3 H        0.104082        0.000266        0.006427        0.006693
   4 H        0.104082        0.000266        0.006427        0.006693
   5 H        0.092993        0.005502        0.011674        0.017176
   6 H        0.092993        0.005502        0.011674        0.017176
   7 O       -0.323234        1.247981       -0.547669        0.700313
   8 H        0.323189        0.318060       -0.018432        0.299628
  --------------------------------------------------------------------
  Sum:       -1.000000        1.597347       -1.597347        0.000000
  
  Multipole moment analysis of the density matrix
    Molecular charge:                      -1.000000
    Number of electrons:                   26.000000
      Center of electronic charge [Ang]: [ -0.000000,  -0.000000,   0.153800]
    Total nuclear charge:                  25.000000
      Center of nuclear charge [Ang]:    [ -0.000000,  -0.000000,   0.000000]
    Dipole moment [D]:                     19.206999
      Cartesian components [D]:          [  0.000000,   0.000000, -19.206999]
    RMS size of the density [Ang]:         4.994149
      Cartesian components [Ang]:        [  1.116072,   0.564685,   4.834981]
  
  Exciton analysis of the difference density matrix
    <r_h> [Ang]:                  [  0.000000,   0.000000,  -6.245469]
    <r_e> [Ang]:                  [ -0.000000,  -0.000000,   0.074860]
    |<r_e - r_h>| [Ang]:            6.320329
    Hole size [Ang]:                2.002183
      Cartesian components [Ang]: [  0.800559,   0.783381,   1.659566]
    Electron size [Ang]:            6.202254
      Cartesian components [Ang]: [  3.325925,   1.503588,   5.014519]

  Transition density matrix analysis:
  -----------------------------------
  
  CT numbers (Mulliken)
    omega =     0.8407
    <Phe> =    -0.0000
  
  Exciton analysis of the transition density matrix
    Trans. dipole moment [D]:             0.009095
      Cartesian components [D]:         [ -0.000000,   0.000000,   0.009095]
    <r_h> [Ang]:                        [  0.000000,   0.000000,  -6.443464]
    <r_e> [Ang]:                        [ -0.000000,  -0.000000,   3.639234]
    |<r_e - r_h>| [Ang]:                 10.082698
    Hole size [Ang]:                      1.006411
      Cartesian components [Ang]:       [  0.420755,   0.420757,   0.811660]
    Electron size [Ang]:                  4.861365
      Cartesian components [Ang]:       [  4.154788,   1.789666,   1.779804]
    RMS electron-hole separation [Ang]:  11.238825
      Cartesian components [Ang]:       [  4.176509,   1.838503,  10.270729]
    Covariance(r_h, r_e) [Ang^2]:        -0.002326
    Correlation coefficient:             -0.000476
    Center-of-mass size [Ang]:            2.481989
      Cartesian components [Ang]:       [  2.087784,   0.919210,   0.977998]

  Decomposition into state-averaged NTOs
    H- 2 -> L+ 2:  0.6483 ( 84.1%)
                   omega =  84.1%
  ----------------------------------------------------------------------------


  Excited state 10 (singlet, A1)                                    [converged]
  ----------------------------------------------------------------------------
  Term symbol:  11 (1) A1                                   R^2 =  2.54680e-07

  Total energy:                                           -153.7106028397 a.u.
  Excitation energy:                                               6.701290 eV

  Osc. strength:                                                      0.000001
  Trans. dip. moment [a.u.]:           [   0.000000,    0.000000,    0.001969]
  <i|r^2|0> [a.u.]:                    [   2.233400,   -2.256692,    0.025584]

  Dip. moment [a.u.]:                  [  -0.000000,    0.000000,   11.287427]
  Total dipole [Debye]:                                              28.689783
  <r^2> [a.u.]:                        [  61.561720,   25.552011, 2264.862459]
  Total <r^2> [a.u.]:                                              2351.976190

  V1^2 = 0.9221, V2^2 = 0.0779

  Important amplitudes:
      occ i      occ j       vir a       vir b          v   
    ---------------------------------------------------------
     2 (B2) A               5 (B2) A                 -0.4803
     4 (B1) A              11 (B1) A                  0.4785
    ---------------------------------------------------------

  Density matrix analysis:
  ------------------------
  NOs
    Occupation of frontier NOs:
       0.5198   1.4609
    Number of electrons: 26.000000
    Number of unpaired electrons: n_u =  2.70624, n_u,nl =  2.48326
    NO participation ratio (PR_NO):  6.459238
  
  
  Mulliken Population Analysis
  Atom      Charge (e)              h+              e-           Del q
  --------------------------------------------------------------------
   1 C       -0.175204        0.000346       -0.002338       -0.001991
   2 C       -0.175204        0.000346       -0.002338       -0.001991
   3 H        0.097704       -0.000046        0.000362        0.000316
   4 H        0.097704       -0.000046        0.000362        0.000316
   5 H        0.076100        0.000013        0.000270        0.000284
   6 H        0.076100        0.000013        0.000270        0.000284
   7 O       -1.114699        1.147479       -1.238631       -0.091152
   8 H        0.117496        0.113662       -0.019727        0.093935
  --------------------------------------------------------------------
  Sum:       -1.000000        1.261768       -1.261768       -0.000000
  
  Multipole moment analysis of the density matrix
    Molecular charge:                      -1.000000
    Number of electrons:                   26.000000
      Center of electronic charge [Ang]: [  0.000000,  -0.000000,  -0.229733]
    Total nuclear charge:                  25.000000
      Center of nuclear charge [Ang]:    [ -0.000000,  -0.000000,   0.000000]
    Dipole moment [D]:                     28.689774
      Cartesian components [D]:          [ -0.000000,   0.000000,  28.689774]
    RMS size of the density [Ang]:         5.027800
      Cartesian components [Ang]:        [  0.814273,   0.524598,   4.933613]
  
  Exciton analysis of the difference density matrix
    <r_h> [Ang]:                  [  0.000000,   0.000000,  -6.442125]
    <r_e> [Ang]:                  [  0.000000,  -0.000000,  -6.343915]
    |<r_e - r_h>| [Ang]:            0.098210
    Hole size [Ang]:                1.279669
      Cartesian components [Ang]: [  0.745643,   0.745128,   0.725502]
    Electron size [Ang]:            2.166575
      Cartesian components [Ang]: [  1.320542,   1.319312,   1.099832]

  Transition density matrix analysis:
  -----------------------------------
  
  CT numbers (Mulliken)
    omega =     0.8991
    <Phe> =     0.0348
  
  Exciton analysis of the transition density matrix
    Trans. dipole moment [D]:             0.002503
      Cartesian components [D]:         [ -0.000000,   0.000000,   0.002503]
    <r_h> [Ang]:                        [  0.000000,   0.000000,  -6.396476]
    <r_e> [Ang]:                        [  0.000000,  -0.000000,  -6.336522]
    |<r_e - r_h>| [Ang]:                  0.059954
    Hole size [Ang]:                      1.069634
      Cartesian components [Ang]:       [  0.673379,   0.674196,   0.485940]
    Electron size [Ang]:                  2.386388
      Cartesian components [Ang]:       [  1.473161,   1.472698,   1.164389]
    RMS electron-hole separation [Ang]:   2.614377
      Cartesian components [Ang]:       [  1.618638,   1.618503,   1.263101]
    Covariance(r_h, r_e) [Ang^2]:         0.003795
    Correlation coefficient:              0.001487
    Center-of-mass size [Ang]:            1.308296
      Cartesian components [Ang]:       [  0.810446,   0.810433,   0.630882]

  Decomposition into state-averaged NTOs
    H- 1 -> L+ 9:  0.4745 ( 45.0%)
    H- 0 -> L+10: -0.4731 ( 44.8%)
                   omega =  89.9%
  ----------------------------------------------------------------------------


--------------------------------------------------------------------------------
  Time of ADC calculation:  CPU 219.49 s  wall 58.44 s
================================================================================
 
 --------------------------------------------------------------
             Orbital Energies (a.u.) and Symmetries
 --------------------------------------------------------------
 
 Alpha MOs, Restricted
 -- Occupied --                  
-20.198 -11.183 -11.181  -0.988  -0.905  -0.728  -0.606  -0.513
  1 A1    2 A1    1 B1    3 A1    4 A1    2 B1    5 A1    6 A1                 
 -0.461  -0.323  -0.252  -0.108  -0.108
  3 B1    1 B2    7 A1    2 B2    4 B1                                         
 -- Virtual --                   
  0.097   0.108   0.109   0.121   0.121   0.128   0.163   0.195
  5 B1    8 A1    3 B2    1 A2    9 A1    6 B1   10 A1    2 A2                 
  0.250   0.261   0.265   0.280   0.285   0.288   0.321   0.361
  7 B1   11 A1    8 B1    9 B1    4 B2   12 A1   13 A1    3 A2                 
  0.379   0.397   0.405   0.443   0.443   0.455   0.561   0.585
 14 A1   15 A1   10 B1    5 B2   11 B1   16 A1   12 B1   17 A1                 
  0.605   0.796   0.884   0.919   0.946   0.983   0.984   1.033
 13 B1   18 A1   19 A1   20 A1   21 A1   14 B1    6 B2    4 A2                 
  1.045   1.086   1.122   1.168   1.172   1.269   1.269   1.323
 15 B1   22 A1   16 B1    7 B2   23 A1   17 B1    8 B2    5 A2                 
  1.323   1.338   1.338   1.367   1.402   1.545   1.664   1.669
 24 A1    9 B2    6 A2   18 B1   19 B1   25 A1   26 A1   20 B1                 
  1.729   1.729   1.759   1.910   1.971   1.974   1.994   2.062
 10 B2   21 B1   27 A1    7 A2   22 B1   28 A1   11 B2   29 A1                 
  2.071   2.113   2.227   2.371   2.379   2.379   2.466   2.502
 12 B2   30 A1    8 A2   23 B1   24 B1   13 B2    9 A2   31 A1                 
  2.538   2.621   2.624   2.853   2.859   3.038   3.296   3.394
 32 A1   25 B1   26 B1   33 A1   34 A1   35 A1   27 B1   28 B1                 
  3.930   3.930   3.959   3.959   4.406
 29 B1   14 B2   10 A2   36 A1   37 A1                                         
 
 Beta MOs, Restricted
 -- Occupied --                  
-20.198 -11.183 -11.181  -0.988  -0.905  -0.728  -0.606  -0.513
  1 A1    2 A1    1 B1    3 A1    4 A1    2 B1    5 A1    6 A1                 
 -0.461  -0.323  -0.252  -0.108  -0.108
  3 B1    1 B2    7 A1    2 B2    4 B1                                         
 -- Virtual --                   
  0.097   0.108   0.109   0.121   0.121   0.128   0.163   0.195
  5 B1    8 A1    3 B2    1 A2    9 A1    6 B1   10 A1    2 A2                 
  0.250   0.261   0.265   0.280   0.285   0.288   0.321   0.361
  7 B1   11 A1    8 B1    9 B1    4 B2   12 A1   13 A1    3 A2                 
  0.379   0.397   0.405   0.443   0.443   0.455   0.561   0.585
 14 A1   15 A1   10 B1    5 B2   11 B1   16 A1   12 B1   17 A1                 
  0.605   0.796   0.884   0.919   0.946   0.983   0.984   1.033
 13 B1   18 A1   19 A1   20 A1   21 A1   14 B1    6 B2    4 A2                 
  1.045   1.086   1.122   1.168   1.172   1.269   1.269   1.323
 15 B1   22 A1   16 B1    7 B2   23 A1   17 B1    8 B2    5 A2                 
  1.323   1.338   1.338   1.367   1.402   1.545   1.664   1.669
 24 A1    9 B2    6 A2   18 B1   19 B1   25 A1   26 A1   20 B1                 
  1.729   1.729   1.759   1.910   1.971   1.974   1.994   2.062
 10 B2   21 B1   27 A1    7 A2   22 B1   28 A1   11 B2   29 A1                 
  2.071   2.113   2.227   2.371   2.379   2.379   2.466   2.502
 12 B2   30 A1    8 A2   23 B1   24 B1   13 B2    9 A2   31 A1                 
  2.538   2.621   2.624   2.853   2.859   3.038   3.296   3.394
 32 A1   25 B1   26 B1   33 A1   34 A1   35 A1   27 B1   28 B1                 
  3.930   3.930   3.959   3.959   4.406
 29 B1   14 B2   10 A2   36 A1   37 A1                                         
 --------------------------------------------------------------
 
          Ground-State Mulliken Net Atomic Charges

     Atom                 Charge (a.u.)
  ----------------------------------------
      1 C                    -0.158811
      2 C                    -0.158811
      3 H                     0.090223
      4 H                     0.090223
      5 H                     0.068586
      6 H                     0.068586
      7 O                    -1.035730
      8 H                     0.035735
  ----------------------------------------
  Sum of atomic charges =    -1.000000

 -----------------------------------------------------------------
                    Cartesian Multipole Moments
 -----------------------------------------------------------------
    Charge (ESU x 10^10)
                -4.8032
    Dipole Moment (Debye)
         X      -0.0000      Y       0.0000      Z      29.1866
       Tot      29.1866
    Quadrupole Moments (Debye-Ang)
        XX     -23.0564     XY      -0.0000     YY     -26.2441
        XZ      -0.0000     YZ       0.0000     ZZ    -199.3653
    Octopole Moments (Debye-Ang^2)
       XXX      -0.0000    XXY       0.0000    XYY      -0.0000
       YYY       0.0000    XXZ      17.5407    XYZ       0.0000
       YYZ       6.1428    XZZ      -0.0000    YZZ       0.0000
       ZZZ    1093.5074
    Hexadecapole Moments (Debye-Ang^3)
      XXXX     -84.2252   XXXY      -0.0000   XXYY     -20.8849
      XYYY      -0.0000   YYYY     -37.4007   XXXZ      -0.0000
      XXYZ       0.0000   XYYZ      -0.0000   YYYZ       0.0000
      XXZZ    -607.6040   XYZZ      -0.0000   YYZZ    -644.0286
      XZZZ      -0.0000   YZZZ      -0.0000   ZZZZ   -9444.2182
 -----------------------------------------------------------------
 Total job time:  167.21s(wall), 268.19s(cpu) 
 Tue Mar  1 22:41:21 2022

        *************************************************************
        *                                                           *
        *  Thank you very much for using Q-Chem.  Have a nice day.  *
        *                                                           *
        *************************************************************


