/src/tsommerfeld/qchem/exe/qcprog.exe .input1.654545.18618.qcin.1 /src/jdavis/qchem.scratch/qchem18618/

                  Welcome to Q-Chem
     A Quantum Leap Into The Future Of Chemistry


 Q-Chem 5.4 (devel), Q-Chem, Inc., Pleasanton, CA (2021)

 E. Epifanovsky,  A. T. B. Gilbert,  Xintian Feng,  Joonho Lee,  Yuezhi Mao,  
 N. Mardirossian,  P. Pokhilko,  A. White,  M. Wormit,  M. P. Coons,  
 A. L. Dempwolff,  Zhengting Gan,  D. Hait,  P. R. Horn,  L. D. Jacobson,  
 I. Kaliman,  J. Kussmann,  A. W. Lange,  Ka Un Lao,  D. S. Levine,  Jie Liu,  
 S. C. McKenzie,  A. F. Morrison,  K. Nanda,  F. Plasser,  D. R. Rehn,  
 M. L. Vidal,  Zhi-Qiang You,  Ying Zhu,  B. Alam,  B. Albrecht,  
 A. Aldossary,  E. Alguire,  J. H. Andersen,  D. Barton,  K. Begam,  A. Behn,  
 Y. A. Bernard,  E. J. Berquist,  H. Burton,  A. Carreras,  K. Carter-Fenk,  
 R. Chakraborty,  A. D. Chien,  K. D. Closser,  V. Cofer-Shabica,  
 S. Dasgupta,  Jia Deng,  M. de Wergifosse,  M. Diedenhofen,  Hainam Do,  
 S. Ehlert,  Po-Tung Fang,  S. Fatehi,  Qingguo Feng,  T. Friedhoff,  
 J. Gayvert,  Qinghui Ge,  G. Gidofalvi,  M. Goldey,  J. Gomes,  
 C. Gonzalez-Espinoza,  S. Gulania,  A. Gunina,  M. W. D. Hanson-Heine,  
 P. H. P. Harbach,  A. W. Hauser,  M. F. Herbst,  M. Hernandez Vera,  
 M. Hodecker,  Z. C. Holden,  S. Houck,  Xunkun Huang,  Kerwin Hui,  
 B. C. Huynh,  M. Ivanov,  Hyunjun Ji,  Hanjie Jiang,  B. Kaduk,  S. Kaehler,  
 K. Khistyaev,  Jaehoon Kim,  P. Klunzinger,  Z. Koczor-Benda,  
 Joong Hoon Koh,  D. Kosenkov,  L. Koulias,  T. Kowalczyk,  C. M. Krauter,  
 K. Kue,  A. Kunitsa,  T. Kus,  A. Landau,  K. V. Lawler,  D. Lefrancois,  
 S. Lehtola,  Rain Li,  Yi-Pei Li,  Jiashu Liang,  M. Liebenthal,  
 Hung-Hsuan Lin,  You-Sheng Lin,  Fenglai Liu,  Kuan-Yu Liu,  
 M. Loipersberger,  A. Luenser,  A. Manjanath,  P. Manohar,  E. Mansoor,  
 S. F. Manzer,  Shan-Ping Mao,  A. V. Marenich,  T. Markovich,  S. Mason,  
 S. A. Maurer,  P. F. McLaughlin,  M. F. S. J. Menger,  J.-M. Mewes,  
 S. A. Mewes,  P. Morgante,  J. W. Mullinax,  K. J. Oosterbaan,  G. Paran,  
 Alexander C. Paul,  Suranjan K. Paul,  F. Pavosevic,  Zheng Pei,  S. Prager,  
 E. I. Proynov,  E. Ramos,  B. Rana,  A. E. Rask,  A. Rettig,  R. M. Richard,  
 F. Rob,  E. Rossomme,  T. Scheele,  M. Scheurer,  M. Schneider,  
 N. Sergueev,  S. M. Sharada,  W. Skomorowski,  D. W. Small,  C. J. Stein,  
 Yu-Chuan Su,  E. J. Sundstrom,  Zhen Tao,  J. Thirman,  T. Tsuchimochi,  
 N. M. Tubman,  S. P. Veccham,  O. Vydrov,  J. Wenzel,  J. Witte,  A. Yamada,  
 Kun Yao,  S. Yeganeh,  S. R. Yost,  A. Zech,  Igor Ying Zhang,  Xing Zhang,  
 Yu Zhang,  D. Zuev,  A. Aspuru-Guzik,  A. T. Bell,  N. A. Besley,  
 K. B. Bravaya,  B. R. Brooks,  D. Casanova,  Jeng-Da Chai,  S. Coriani,  
 C. J. Cramer,  A. E. DePrince, III,  R. A. DiStasio Jr.,  A. Dreuw,  
 B. D. Dunietz,  T. R. Furlani,  W. A. Goddard III,  S. Grimme,  
 S. Hammes-Schiffer,  T. Head-Gordon,  W. J. Hehre,  Chao-Ping Hsu,  
 T.-C. Jagau,  Yousung Jung,  A. Klamt,  Jing Kong,  D. S. Lambrecht,  
 WanZhen Liang,  N. J. Mayhall,  C. W. McCurdy,  J. B. Neaton,  
 C. Ochsenfeld,  J. A. Parkhill,  R. Peverati,  V. A. Rassolov,  Yihan Shao,  
 L. V. Slipchenko,  T. Stauch,  R. P. Steele,  J. E. Subotnik,  
 A. J. W. Thom,  A. Tkatchenko,  D. G. Truhlar,  T. Van Voorhis,  
 T. A. Wesolowski,  K. B. Whaley,  H. L. Woodcock III,  P. M. Zimmerman,  
 S. Faraji,  P. M. W. Gill,  M. Head-Gordon,  J. M. Herbert,  A. I. Krylov

 Additional authors for Version 5.4.1: 
 S. Kotaru,  Shaozhi Li,  Xiangyuan Li,  F. Matz,  A. Molle,  Haisheng Ren,  
 Yingli Su,  Hung-Yi Tsai,  C. Utku,  Fang Wang

 Contributors to earlier versions of Q-Chem not listed above: 
 R. D. Adamson,  B. Austin,  R. Baer,  J. Baker,  G. J. O. Beran,  
 K. Brandhorst,  S. T. Brown,  E. F. C. Byrd,  A. K. Chakraborty,  
 G. K. L. Chan,  Chun-Min Chang,  Yunqing Chen,  C.-L. Cheng,  
 Siu Hung Chien,  D. M. Chipman,  D. L. Crittenden,  H. Dachsel,  
 R. J. Doerksen,  A. D. Dutoi,  R. G. Edgar,  J. Fosso-Tande,  
 L. Fusti-Molnar,  D. Ghosh,  A. Ghysels,  A. Golubeva-Zadorozhnaya,  
 J. Gonthier,  M. S. Gordon,  S. R. Gwaltney,  G. Hawkins,  J. E. Herr,  
 A. Heyden,  S. Hirata,  E. G. Hohenstein,  G. Kedziora,  F. J. Keil,  
 C. Kelley,  Jihan Kim,  R. A. King,  R. Z. Khaliullin,  P. P. Korambath,  
 W. Kurlancheek,  A. Laurent,  A. M. Lee,  M. S. Lee,  S. V. Levchenko,  
 Ching Yeh Lin,  D. Liotard,  E. Livshits,  R. C. Lochan,  I. Lotan,  
 L. A. Martinez-Martinez,  P. E. Maslen,  N. Nair,  D. P. O'Neill,  
 D. Neuhauser,  E. Neuscamman,  C. M. Oana,  R. Olivares-Amaya,  R. Olson,  
 T. M. Perrine,  B. Peters,  P. A. Pieniazek,  A. Prociuk,  Y. M. Rhee,  
 J. Ritchie,  M. A. Rohrdanz,  E. Rosta,  N. J. Russ,  H. F. Schaefer III,  
 M. W. Schmidt,  N. E. Schultz,  S. Sharma,  N. Shenvi,  C. D. Sherrill,  
 A. C. Simmonett,  A. Sodt,  T. Stein,  D. Stuck,  K. S. Thanthiriwatte,  
 V. Vanovschi,  L. Vogt,  Tao Wang,  A. Warshel,  M. A. Watson,  
 C. F. Williams,  Q. Wu,  X. Xu,  Jun Yang,  W. Zhang,  Yan Zhao

 Please cite Q-Chem as follows:
 Y. Shao et al., Mol. Phys. 113, 184-215 (2015)
 DOI: 10.1080/00268976.2014.952696

 Q-Chem 5.4.1 for Intel X86 EM64T Linux

 Parts of Q-Chem use Armadillo 9.900.5 (Nocturnal Misbehaviour).
 http://arma.sourceforge.net/

 Q-Chem begins on Tue Mar  1 23:14:20 2022  

 Host: node01
0

     Scratch files written to /src/jdavis/qchem.scratch/qchem18618//
 Processing $rem in /src/tsommerfeld/qchem/config/preferences:
 Processing $rem in /home/jdavis/.qchemrc:

 Checking the input file for inconsistencies... 	...done.

--------------------------------------------------------------
User input:
--------------------------------------------------------------
$molecule
-1 1
C        -0.6645000000    0.0000000000    3.6357614391
C         0.6645000000    0.0000000000    3.6357614391
H        -1.1590800000    0.0000000000    2.6734124391
H         1.1590800000    0.0000000000    2.6734124391
H        -1.1590800000    0.0000000000    4.5981094391
H         1.1590800000    0.0000000000    4.5981094391
O         0.0000000000    0.0000000000   -6.3644435413
H         0.0000000000    0.0000000000   -7.3299440706
$end
$rem
   METHOD adc(2)
   BASIS gen
   PURECART 11
   EE_STATES [10,0,0,0]
   scf_convergence 8
   ADC_DAVIDSON_MAXITER 120
   ADC_DAVIDSON_MAXSUBSPACE 200
   adc_nguess_singles 100
   THRESH 14
   S2THRESH 14
   adc_davidson_conv 5
   adc_davidson_thresh 14
   THREADS 10
   MEM_TOTAL 95000
   STATE_ANALYSIS TRUE
$end
$basis
C 1
S   9   1.00
      6.665000D+03           6.920000D-04
      1.000000D+03           5.329000D-03
      2.280000D+02           2.707700D-02
      6.471000D+01           1.017180D-01
      2.106000D+01           2.747400D-01
      7.495000D+00           4.485640D-01
      2.797000D+00           2.850740D-01
      5.215000D-01           1.520400D-02
      1.596000D-01          -3.191000D-03
S   9   1.00
      6.665000D+03          -1.460000D-04
      1.000000D+03          -1.154000D-03
      2.280000D+02          -5.725000D-03
      6.471000D+01          -2.331200D-02
      2.106000D+01          -6.395500D-02
      7.495000D+00          -1.499810D-01
      2.797000D+00          -1.272620D-01
      5.215000D-01           5.445290D-01
      1.596000D-01           5.804960D-01
S   1   1.00
      1.596000D-01           1.000000D+00
S   1   1.00
      0.0469000              1.0000000
P   4   1.00
      9.439000D+00           3.810900D-02
      2.002000D+00           2.094800D-01
      5.456000D-01           5.085570D-01
      1.517000D-01           4.688420D-01
P   1   1.00
      1.517000D-01           1.000000D+00
P   1   1.00
      0.0717127      1.0000000
P   1   1.00
      0.0358564      1.0000000
D   1   1.00
      5.500000D-01           1.0000000
****
C 2
S   9   1.00
      6.665000D+03           6.920000D-04
      1.000000D+03           5.329000D-03
      2.280000D+02           2.707700D-02
      6.471000D+01           1.017180D-01
      2.106000D+01           2.747400D-01
      7.495000D+00           4.485640D-01
      2.797000D+00           2.850740D-01
      5.215000D-01           1.520400D-02
      1.596000D-01          -3.191000D-03
S   9   1.00
      6.665000D+03          -1.460000D-04
      1.000000D+03          -1.154000D-03
      2.280000D+02          -5.725000D-03
      6.471000D+01          -2.331200D-02
      2.106000D+01          -6.395500D-02
      7.495000D+00          -1.499810D-01
      2.797000D+00          -1.272620D-01
      5.215000D-01           5.445290D-01
      1.596000D-01           5.804960D-01
S   1   1.00
      1.596000D-01           1.000000D+00
S   1   1.00
      0.0469000              1.0000000
P   4   1.00
      9.439000D+00           3.810900D-02
      2.002000D+00           2.094800D-01
      5.456000D-01           5.085570D-01
      1.517000D-01           4.688420D-01
P   1   1.00
      1.517000D-01           1.000000D+00
P   1   1.00
      0.0717127      1.0000000
P   1   1.00
      0.0358564      1.0000000
D   1   1.00
      5.500000D-01           1.0000000
****
H 3
cc-pVDZ
****
H 4
cc-pVDZ
****
H 5
cc-pVDZ
****
H 6
cc-pVDZ
****
O 7
aug-cc-pVDZ
****
H 8
cc-pVDZ
****
$end
--------------------------------------------------------------
 ----------------------------------------------------------------
             Standard Nuclear Orientation (Angstroms)
    I     Atom           X                Y                Z
 ----------------------------------------------------------------
    1      C      -0.6645000000    -0.0000000000     3.6386938941
    2      C       0.6645000000     0.0000000000     3.6386938941
    3      H      -1.1590800000    -0.0000000000     2.6763448941
    4      H       1.1590800000     0.0000000000     2.6763448941
    5      H      -1.1590800000    -0.0000000000     4.6010418941
    6      H       1.1590800000     0.0000000000     4.6010418941
    7      O       0.0000000000    -0.0000000000    -6.3615110863
    8      H       0.0000000000    -0.0000000000    -7.3270116156
 ----------------------------------------------------------------
 Molecular Point Group                 C2v   NOp =  4
 Largest Abelian Subgroup              C2v   NOp =  4
 Nuclear Repulsion Energy =          45.51143008 hartrees
 There are       13 alpha and       13 beta electrons
 Requested basis set is non-standard
 There are 42 shells and 90 basis functions
 Total memory of 95000 MB is distributed as follows: 
   MEM_STATIC is set to 192 MB
   QALLOC/CCMAN JOB total memory use is  94808 MB
 Warning: actual memory use might exceed 95000 MB

 Total QAlloc Memory Limit  95000 MB
 Mega-Array Size       188 MB
 MEM_STATIC part       192 MB

                       Distance Matrix (Angstroms)
             C (  1)   C (  2)   H (  3)   H (  4)   H (  5)   H (  6)
   C (  2)  1.329000
   H (  3)  1.082000  2.061931
   H (  4)  2.061931  1.082000  2.318160
   H (  5)  1.082000  2.061931  1.924697  3.013026
   H (  6)  2.061931  1.082000  3.013026  1.924697  2.318160
   O (  7) 10.022258 10.022258  9.111877  9.111877 11.023658 11.023658
   H (  8) 10.985821 10.985821 10.070283 10.070283 11.984237 11.984237
             O (  7)
   H (  8)  0.965501
 
 A cutoff of  1.0D-14 yielded    667 shell pairs
 There are      3043 function pairs (      3287 Cartesian)
 Smallest overlap matrix eigenvalue = 2.57E-04

 Scale SEOQF with 1.000000e-01/1.000000e-01/1.000000e-02

 Standard Electronic Orientation quadrupole field applied
 Nucleus-field energy     =    -0.0000000060 hartrees
 ================ Generating on-the-fly SAD Guess ================
Attempting to make child job directory: /src/jdavis/qchem.scratch/qchem18618//Frg1/
Attempting to make child job directory: /src/jdavis/qchem.scratch/qchem18618//Frg2/
Attempting to make child job directory: /src/jdavis/qchem.scratch/qchem18618//Frg3/
Creating input file /src/jdavis/qchem.scratch/qchem18618/Frg1.input
using default PutDataFrgm: nothing
calling putenv with: QCSCRATCH=/src/jdavis/qchem.scratch/qchem18618/ 
Spawning Job For Fragment 0
Done Job For Fragment 0
calling putenv with: QCSCRATCH=/src/jdavis/qchem.scratch 
calling putenv with: QCTHREADS=1 
Creating input file /src/jdavis/qchem.scratch/qchem18618/Frg2.input
using default PutDataFrgm: nothing
calling putenv with: QCSCRATCH=/src/jdavis/qchem.scratch/qchem18618/ 
Spawning Job For Fragment 1
Done Job For Fragment 1
calling putenv with: QCSCRATCH=/src/jdavis/qchem.scratch 
calling putenv with: QCTHREADS=1 
Creating input file /src/jdavis/qchem.scratch/qchem18618/Frg3.input
using default PutDataFrgm: nothing
calling putenv with: QCSCRATCH=/src/jdavis/qchem.scratch/qchem18618/ 
Spawning Job For Fragment 2
Done Job For Fragment 2
calling putenv with: QCSCRATCH=/src/jdavis/qchem.scratch 
calling putenv with: QCTHREADS=1 
 Time for running child jobs:  CPU 1.77 s  wall 80.46 s
 ============= Method Specific SAD Guess Constructed =============
 Guess from on-the-fly superposition of atomic densities
 Warning: Energy on first SCF cycle will be non-variational
 A restricted Hartree-Fock SCF calculation will be
 performed using Pulay DIIS extrapolation
 SCF converges when DIIS error is below 1.0E-08
 using 10 threads for integral computing
 -------------------------------------------------------
 OpenMP Integral computing Module                
 Release: version 1.0, May 2013, Q-Chem Inc. Pittsburgh 
 -------------------------------------------------------
 ---------------------------------------
  Cycle       Energy         DIIS Error
 ---------------------------------------
    1    -153.5139524512      5.94E-02
    2    -153.2825964523      1.22E-02
    3    -153.3445944049      1.06E-02
    4    -153.4323052383      6.43E-04
    5    -153.4330435791      1.83E-04
    6    -153.4330910184      3.81E-05
    7    -153.4330936434      9.16E-06
    8    -153.4330939217      2.60E-06
    9    -153.4330939433      4.48E-07
   10    -153.4330939438      5.49E-08
   11    -153.4330939438      9.12E-09 Convergence criterion met
 ---------------------------------------
 SCF time:  CPU 11.11 s  wall 1.12 s
 SCF   energy in the final basis set = -153.43309394
 Total energy in the final basis set = -153.43309394
================================================================================
|                                                                              |
|                                 A D C  M A N                                 |
|                                                                              |
 ------------------------------------------------------------------------------ 
|                                                                              |
| Components:                                                                  |
|                                                                              |
| - libvmm - 1.3-trunk                                                         |
|   Authors:                                                                   |
|   Evgeny Epifanovsky, Ilya Kaliman                                           |
|                                                                              |
| - libtensor - 2.5-trunk                                                      |
|   Authors:                                                                   |
|   Evgeny Epifanovsky, Michael Wormit, Dmitry Zuev, Sam Manzer,               |
|   Ilya Kaliman                                                               |
|                                                                              |
| - libwfa - 1.1-trunk                                                         |
|   Authors:                                                                   |
|   Felix Plasser, Stefanie Mewes (Baeppler), Benjamin Thomitzni,              |
|   Michael Wormit, Feng Chen, Anna I. Krylov, Pavel Pokhilko                  |
|                                                                              |
| - libadc - 1.1-trunk                                                         |
|   Authors:                                                                   |
|   Michael Wormit, Adrian L. Dempwolff, Philipp H. P. Harbach,                |
|   Caroline Krauter, Dirk Rehn, Matthias Schneider, Jan Wenzel                |
|                                                                              |
| - adcman - 2.6-trunk                                                         |
|   Authors:                                                                   |
|   Michael Wormit, Adrian L. Dempwolff, Philipp H. P. Harbach,                |
|   Caroline Krauter, Daniel Lefrancois, Jan-Michael Mewes, Dirk Rehn,         |
|   Matthias Schneider, Jan Wenzel, Andreas Dreuw                              |
|                                                                              |
| Authors of earlier versions of ADCMAN:                                       |
| Andreas Dreuw, Jan Hendrik Starcke, Dirk Rehn, Michael Wormit                |
|                                                                              |
================================================================================

 
 Alpha MOs, Restricted
 -- Occupied --                  
-20.198 -11.183 -11.181  -0.988  -0.905  -0.728  -0.606  -0.513
  1 A1    2 A1    1 B1    3 A1    4 A1    2 B1    5 A1    6 A1                 
 -0.461  -0.323  -0.252  -0.108  -0.108
  3 B1    1 B2    7 A1    2 B2    4 B1                                         
 -- Virtual --                   
  0.113   0.129   0.136   0.137   0.143   0.157   0.184   0.224
  5 B1    8 A1    3 B2    9 A1    1 A2    6 B1   10 A1    2 A2                 
  0.256   0.316   0.349   0.358   0.368   0.376   0.376   0.379
  7 B1   11 A1   12 A1    8 B1   13 A1    9 B1    4 B2   14 A1                 
  0.395   0.423   0.443   0.443   0.455   0.457   0.585   0.608
 15 A1   10 B1   11 B1    5 B2   16 A1    3 A2   17 A1   12 B1                 
  0.663   0.880   0.909   0.972   0.987   1.047   1.090   1.098
 13 B1   18 A1   19 A1   20 A1   14 B1   21 A1   15 B1   22 A1                 
  1.121   1.164   1.168   1.170   1.172   1.269   1.269   1.323
  6 B2    4 A2    7 B2   16 B1   23 A1   17 B1    8 B2    5 A2                 
  1.323   1.323   1.338   1.341   1.469   1.545   1.673   1.698
 24 A1   18 B1    6 A2    9 B2   19 B1   25 A1   26 A1   20 B1                 
  1.729   1.729   1.779   1.924   1.973   1.997   2.008   2.071
 10 B2   21 B1   27 A1    7 A2   28 A1   11 B2   22 B1   12 B2                 
  2.111   2.143   2.233   2.379   2.379   2.380   2.466   2.520
 29 A1   30 A1    8 A2   23 B1   13 B2   24 B1    9 A2   31 A1                 
  2.538   2.631   2.635   2.874   2.882   3.038   3.308   3.393
 32 A1   25 B1   26 B1   33 A1   34 A1   35 A1   27 B1   28 B1                 
  3.930   3.930   3.959   3.959   4.406
 29 B1   14 B2   10 A2   36 A1   37 A1                                         
 
 Beta MOs, Restricted
 -- Occupied --                  
-20.198 -11.183 -11.181  -0.988  -0.905  -0.728  -0.606  -0.513
  1 A1    2 A1    1 B1    3 A1    4 A1    2 B1    5 A1    6 A1                 
 -0.461  -0.323  -0.252  -0.108  -0.108
  3 B1    1 B2    7 A1    2 B2    4 B1                                         
 -- Virtual --                   
  0.113   0.129   0.136   0.137   0.143   0.157   0.184   0.224
  5 B1    8 A1    3 B2    9 A1    1 A2    6 B1   10 A1    2 A2                 
  0.256   0.316   0.349   0.358   0.368   0.376   0.376   0.379
  7 B1   11 A1   12 A1    8 B1   13 A1    9 B1    4 B2   14 A1                 
  0.395   0.423   0.443   0.443   0.455   0.457   0.585   0.608
 15 A1   10 B1   11 B1    5 B2   16 A1    3 A2   17 A1   12 B1                 
  0.663   0.880   0.909   0.972   0.987   1.047   1.090   1.098
 13 B1   18 A1   19 A1   20 A1   14 B1   21 A1   15 B1   22 A1                 
  1.121   1.164   1.168   1.170   1.172   1.269   1.269   1.323
  6 B2    4 A2    7 B2   16 B1   23 A1   17 B1    8 B2    5 A2                 
  1.323   1.323   1.338   1.341   1.469   1.545   1.673   1.698
 24 A1   18 B1    6 A2    9 B2   19 B1   25 A1   26 A1   20 B1                 
  1.729   1.729   1.779   1.924   1.973   1.997   2.008   2.071
 10 B2   21 B1   27 A1    7 A2   28 A1   11 B2   22 B1   12 B2                 
  2.111   2.143   2.233   2.379   2.379   2.380   2.466   2.520
 29 A1   30 A1    8 A2   23 B1   13 B2   24 B1    9 A2   31 A1                 
  2.538   2.631   2.635   2.874   2.882   3.038   3.308   3.393
 32 A1   25 B1   26 B1   33 A1   34 A1   35 A1   27 B1   28 B1                 
  3.930   3.930   3.959   3.959   4.406
 29 B1   14 B2   10 A2   36 A1   37 A1                                         

--------------------------------------------------------------------------------
                                   HF Summary                                   
--------------------------------------------------------------------------------
  Energy:                                                 -153.4330939438 a.u.
  Dip. moment [a.u.]:                  [   0.000000,    0.000000,   11.482585]
  Total dipole [Debye]:                                              29.185825
  <r^2> [a.u.]:                        [  55.249967,   19.521183, 2265.803691]
  Total <r^2> [a.u.]:                                              2340.574840
--------------------------------------------------------------------------------

--------------------------------------------------------------------------------
                                 MP(2) Summary                                  
--------------------------------------------------------------------------------
  MP energy contribution:                                   -0.5247494985 a.u.
  Total energy:                                           -153.9578434423 a.u.
  Dip. moment [a.u.]:                  [   0.000000,   -0.000000,   11.521307]
  Total dipole [Debye]:                                              29.284247
  <r^2> [a.u.]:                        [  56.205624,   20.219066, 2267.448446]
  Total <r^2> [a.u.]:                                              2343.873135

  Density matrix analysis:
  ------------------------
  NOs
    Occupation of frontier NOs:
       0.0447   1.9370
    Number of electrons: 26.000000
    Number of unpaired electrons: n_u =  0.71326, n_u,nl =  0.08529
    NO participation ratio (PR_NO): 22.906441
  
  
  Mulliken Population Analysis
  Atom      Charge (e)              h+              e-           Del q
  --------------------------------------------------------------------
   1 C       -0.199822        0.087669       -0.102555       -0.014887
   2 C       -0.199822        0.087669       -0.102555       -0.014887
   3 H        0.111130        0.017748       -0.010319        0.007429
   4 H        0.111130        0.017748       -0.010319        0.007429
   5 H        0.088691        0.018078       -0.010621        0.007457
   6 H        0.088691        0.018078       -0.010621        0.007457
   7 O       -1.023558        0.281909       -0.269750        0.012160
   8 H        0.023560        0.017758       -0.029917       -0.012159
  --------------------------------------------------------------------
  Sum:       -1.000000        0.546656       -0.546656       -0.000000
  
  Multipole moment analysis of the density matrix
    Molecular charge:                      -1.000000
    Number of electrons:                   26.000000
      Center of electronic charge [Ang]: [ -0.000000,   0.000000,  -0.234493]
    Total nuclear charge:                  25.000000
      Center of nuclear charge [Ang]:    [ -0.000000,  -0.000000,   0.000000]
    Dipole moment [D]:                     29.284238
      Cartesian components [D]:          [  0.000000,  -0.000000,  29.284238]
    RMS size of the density [Ang]:         5.018894
      Cartesian components [Ang]:        [  0.778044,   0.466654,   4.936211]
  
  Exciton analysis of the difference density matrix
    <r_h> [Ang]:                  [ -0.000000,  -0.000000,  -1.855108]
    <r_e> [Ang]:                  [ -0.000000,   0.000000,  -1.892592]
    |<r_e - r_h>| [Ang]:            0.037484
    Hole size [Ang]:                5.150473
      Cartesian components [Ang]: [  0.821231,   0.711576,   5.034542]
    Electron size [Ang]:            5.298724
      Cartesian components [Ang]: [  1.078871,   0.929428,   5.103790]
--------------------------------------------------------------------------------
  Starting Davidson for singlet states of irrep A1 ... 
--------------------------------------------------------------------------------
   It NVec Conv  Avg. Norm  Max. Norm  Conv. states           Remark
--------------------------------------------------------------------------------
       100    0  1.576e-01  5.309e-01  0.2413 n n n n n n n n Guess.
    1  110    0  1.753e-02  7.002e-02  0.0602 n n n n n n n n 
    2  120    0  5.099e-03  4.352e-02  0.0587 n n n n n n n n 
    3  130    0  2.147e-03  1.998e-02  0.0586 n n n n n n n n 
    4  140    0  5.286e-04  4.923e-03  0.0586 n n n n n n n n 
    5  150    3  1.349e-02  1.349e-01  0.0586 y y y n n n n n 
    6  160    5  4.520e-03  4.520e-02  0.0586 y y y n y n y n 
    7  170    8  3.300e-04  3.299e-03  0.0586 y y y y y y y y 
    8  180    8  3.600e-05  3.591e-04  0.0586 y y y y y y y y 
    9  190    9  5.122e-06  5.109e-05  0.0586 y y y y y y y y 
   10  200   10  2.528e-07  2.491e-06  0.0586 y y y y y y y y Converged.
--------------------------------------------------------------------------------
  Davidson Summary: 
 ------------------------------------------------------------
  State  0: excitation energy =   0.0586 a.u.   (converged)
  State  1: excitation energy =   0.0807 a.u.   (converged)
  State  2: excitation energy =   0.0993 a.u.   (converged)
  State  3: excitation energy =   0.1947 a.u.   (converged)
  State  4: excitation energy =   0.2245 a.u.   (converged)
  State  5: excitation energy =   0.2320 a.u.   (converged)
  State  6: excitation energy =   0.2462 a.u.   (converged)
  State  7: excitation energy =   0.2737 a.u.   (converged)
  State  8: excitation energy =   0.2812 a.u.   (converged)
  State  9: excitation energy =   0.2911 a.u.   (converged)
 ------------------------------------------------------------


--------------------------------------------------------------------------------
                   State-averaged natural transition orbitals
--------------------------------------------------------------------------------
--------------------------------------------------------------------------------

--------------------------------------------------------------------------------
                             Excited State Summary
--------------------------------------------------------------------------------
--------------------------------------------------------------------------------

  Excited state 1 (singlet, A1)                                    [converged]
  ----------------------------------------------------------------------------
  Term symbol:  2 (1) A1                                    R^2 =  7.58750e-11

  Total energy:                                           -153.8992043286 a.u.
  Excitation energy:                                               1.595651 eV

  Osc. strength:                                                      0.000001
  Trans. dip. moment [a.u.]:           [  -0.000000,    0.000000,   -0.004728]
  <i|r^2|0> [a.u.]:                    [   0.021788,    0.004289,   -0.078957]

  Dip. moment [a.u.]:                  [  -0.000000,    0.000000,   -7.783622]
  Total dipole [Debye]:                                              19.783997
  <r^2> [a.u.]:                        [  96.670040,   28.426445, 2176.897829]
  Total <r^2> [a.u.]:                                              2301.994314

  V1^2 = 0.8523, V2^2 = 0.1477

  Important amplitudes:
      occ i      occ j       vir a       vir b          v   
    ---------------------------------------------------------
     4 (B1) A               5 (B1) A                  0.6448
     4 (B1) A               6 (B1) A                  0.0974
    ---------------------------------------------------------

  Density matrix analysis:
  ------------------------
  NOs
    Occupation of frontier NOs:
       0.9564   0.9958
    Number of electrons: 26.000000
    Number of unpaired electrons: n_u =  2.76096, n_u,nl =  2.12291
    NO participation ratio (PR_NO):  3.929626
  
  
  Mulliken Population Analysis
  Atom      Charge (e)              h+              e-           Del q
  --------------------------------------------------------------------
   1 C       -0.657565        0.011937       -0.469680       -0.457743
   2 C       -0.657565        0.011937       -0.469680       -0.457743
   3 H        0.087253        0.000810       -0.024688       -0.023877
   4 H        0.087253        0.000810       -0.024688       -0.023877
   5 H        0.070312        0.007373       -0.025752       -0.018379
   6 H        0.070312        0.007373       -0.025752       -0.018379
   7 O       -0.139298        1.420349       -0.536089        0.884260
   8 H        0.139298        0.141271       -0.025533        0.115738
  --------------------------------------------------------------------
  Sum:       -1.000000        1.601860       -1.601860       -0.000000
  
  Multipole moment analysis of the density matrix
    Molecular charge:                      -1.000000
    Number of electrons:                   26.000000
      Center of electronic charge [Ang]: [  0.000000,  -0.000000,   0.158420]
    Total nuclear charge:                  25.000000
      Center of nuclear charge [Ang]:    [ -0.000000,  -0.000000,   0.000000]
    Dipole moment [D]:                     19.783991
      Cartesian components [D]:          [ -0.000000,   0.000000, -19.783991]
    RMS size of the density [Ang]:         4.976760
      Cartesian components [Ang]:        [  1.020376,   0.553319,   4.839505]
  
  Exciton analysis of the difference density matrix
    <r_h> [Ang]:                  [  0.000000,  -0.000000,  -6.185660]
    <r_e> [Ang]:                  [  0.000000,  -0.000000,   0.191755]
    |<r_e - r_h>| [Ang]:            6.377415
    Hole size [Ang]:                2.147308
      Cartesian components [Ang]: [  0.919010,   0.804307,   1.766194]
    Electron size [Ang]:            5.959490
      Cartesian components [Ang]: [  2.813956,   1.442803,   5.051286]

  Transition density matrix analysis:
  -----------------------------------
  
  CT numbers (Mulliken)
    omega =     0.8379
    <Phe> =    -0.0000
  
  Exciton analysis of the transition density matrix
    Trans. dipole moment [D]:             0.006009
      Cartesian components [D]:         [ -0.000000,   0.000000,  -0.006009]
    <r_h> [Ang]:                        [  0.000000,  -0.000000,  -6.397403]
    <r_e> [Ang]:                        [  0.000000,  -0.000000,   3.760962]
    |<r_e - r_h>| [Ang]:                 10.158365
    Hole size [Ang]:                      1.091849
      Cartesian components [Ang]:       [  0.842130,   0.486202,   0.496547]
    Electron size [Ang]:                  4.281403
      Cartesian components [Ang]:       [  3.511593,   1.705928,   1.757535]
    RMS electron-hole separation [Ang]:  11.077601
      Cartesian components [Ang]:       [  3.610649,   1.773850,  10.321333]
    Covariance(r_h, r_e) [Ang^2]:         0.000848
    Correlation coefficient:              0.000181
    Center-of-mass size [Ang]:            2.209312
      Cartesian components [Ang]:       [  1.805835,   0.886936,   0.912888]

  Decomposition into state-averaged NTOs
    H- 0 -> L+ 4:  0.3996 ( 31.9%)
    H- 0 -> L+ 0:  0.3646 ( 26.6%)
    H- 0 -> L+ 7:  0.2814 ( 15.8%)
    H- 0 -> L+ 5:  0.2168 (  9.4%)
                   omega =  83.8%
  ----------------------------------------------------------------------------


  Excited state 2 (singlet, A1)                                    [converged]
  ----------------------------------------------------------------------------
  Term symbol:  3 (1) A1                                    R^2 =  4.58805e-11

  Total energy:                                           -153.8771296239 a.u.
  Excitation energy:                                               2.196335 eV

  Osc. strength:                                                      0.000001
  Trans. dip. moment [a.u.]:           [   0.000000,   -0.000000,   -0.004978]
  <i|r^2|0> [a.u.]:                    [   0.003557,    0.011826,   -0.034904]

  Dip. moment [a.u.]:                  [   0.000000,   -0.000000,   -7.552067]
  Total dipole [Debye]:                                              19.195443
  <r^2> [a.u.]:                        [  65.414911,   48.844290, 2173.392397]
  Total <r^2> [a.u.]:                                              2287.651598

  V1^2 = 0.8534, V2^2 = 0.1466

  Important amplitudes:
      occ i      occ j       vir a       vir b          v   
    ---------------------------------------------------------
     2 (B2) A               3 (B2) A                  0.6530
     2 (B2) A   2 (B2) B    3 (B2) A    5 (B2) B     -0.0666
    ---------------------------------------------------------

  Density matrix analysis:
  ------------------------
  NOs
    Occupation of frontier NOs:
       0.9565   0.9976
    Number of electrons: 26.000000
    Number of unpaired electrons: n_u =  2.75619, n_u,nl =  2.12167
    NO participation ratio (PR_NO):  3.909066
  
  
  Mulliken Population Analysis
  Atom      Charge (e)              h+              e-           Del q
  --------------------------------------------------------------------
   1 C       -0.672890        0.022351       -0.495419       -0.473068
   2 C       -0.672890        0.022351       -0.495419       -0.473068
   3 H        0.092374       -0.001110       -0.017646       -0.018756
   4 H        0.092374       -0.001110       -0.017646       -0.018756
   5 H        0.080516       -0.001131       -0.007044       -0.008175
   6 H        0.080516       -0.001131       -0.007044       -0.008175
   7 O       -0.139240        1.421321       -0.537002        0.884319
   8 H        0.139240        0.141194       -0.025514        0.115680
  --------------------------------------------------------------------
  Sum:       -1.000000        1.602735       -1.602735        0.000000
  
  Multipole moment analysis of the density matrix
    Molecular charge:                      -1.000000
    Number of electrons:                   26.000000
      Center of electronic charge [Ang]: [ -0.000000,   0.000000,   0.153707]
    Total nuclear charge:                  25.000000
      Center of nuclear charge [Ang]:    [ -0.000000,  -0.000000,   0.000000]
    Dipole moment [D]:                     19.195438
      Cartesian components [D]:          [  0.000000,  -0.000000, -19.195438]
    RMS size of the density [Ang]:         4.961364
      Cartesian components [Ang]:        [  0.839369,   0.725306,   4.835755]
  
  Exciton analysis of the difference density matrix
    <r_h> [Ang]:                  [  0.000000,  -0.000000,  -6.189098]
    <r_e> [Ang]:                  [ -0.000000,   0.000000,   0.108383]
    |<r_e - r_h>| [Ang]:            6.297481
    Hole size [Ang]:                2.126082
      Cartesian components [Ang]: [  0.813515,   0.901193,   1.745357]
    Electron size [Ang]:            5.743730
      Cartesian components [Ang]: [  1.506932,   2.411125,   4.990598]

  Transition density matrix analysis:
  -----------------------------------
  
  CT numbers (Mulliken)
    omega =     0.8386
    <Phe> =     0.0001
  
  Exciton analysis of the transition density matrix
    Trans. dipole moment [D]:             0.006326
      Cartesian components [D]:         [  0.000000,  -0.000000,  -0.006326]
    <r_h> [Ang]:                        [ -0.000000,  -0.000000,  -6.397148]
    <r_e> [Ang]:                        [ -0.000000,   0.000000,   3.638336]
    |<r_e - r_h>| [Ang]:                 10.035484
    Hole size [Ang]:                      1.093019
      Cartesian components [Ang]:       [  0.486216,   0.842132,   0.499098]
    Electron size [Ang]:                  3.894150
      Cartesian components [Ang]:       [  1.778282,   2.999850,   1.732922]
    RMS electron-hole separation [Ang]:  10.820149
      Cartesian components [Ang]:       [  1.843540,   3.115600,  10.196569]
    Covariance(r_h, r_e) [Ang^2]:        -0.002793
    Correlation coefficient:             -0.000656
    Center-of-mass size [Ang]:            2.021973
      Cartesian components [Ang]:       [  0.921785,   1.558012,   0.900716]

  Decomposition into state-averaged NTOs
    H- 2 -> L+ 3: -0.6475 ( 83.9%)
                   omega =  83.9%
  ----------------------------------------------------------------------------


  Excited state 3 (singlet, A1)                                    [converged]
  ----------------------------------------------------------------------------
  Term symbol:  4 (1) A1                                    R^2 =  1.28164e-10

  Total energy:                                           -153.8585623642 a.u.
  Excitation energy:                                               2.701576 eV

  Osc. strength:                                                      0.000016
  Trans. dip. moment [a.u.]:           [   0.000000,   -0.000000,    0.015765]
  <i|r^2|0> [a.u.]:                    [  -0.041895,   -0.010490,    0.130457]

  Dip. moment [a.u.]:                  [   0.000000,   -0.000000,   -7.344377]
  Total dipole [Debye]:                                              18.667547
  <r^2> [a.u.]:                        [  82.637338,   27.242137, 2188.990161]
  Total <r^2> [a.u.]:                                              2298.869636

  V1^2 = 0.8547, V2^2 = 0.1453

  Important amplitudes:
      occ i      occ j       vir a       vir b          v   
    ---------------------------------------------------------
     4 (B1) A               6 (B1) A                 -0.6462
     4 (B1) A               5 (B1) A                  0.0962
    ---------------------------------------------------------

  Density matrix analysis:
  ------------------------
  NOs
    Occupation of frontier NOs:
       0.9565   0.9980
    Number of electrons: 26.000000
    Number of unpaired electrons: n_u =  2.75605, n_u,nl =  2.12123
    NO participation ratio (PR_NO):  3.907339
  
  
  Mulliken Population Analysis
  Atom      Charge (e)              h+              e-           Del q
  --------------------------------------------------------------------
   1 C       -0.583357        0.000178       -0.383713       -0.383535
   2 C       -0.583357        0.000178       -0.383713       -0.383535
   3 H        0.044917        0.002056       -0.068269       -0.066213
   4 H        0.044917        0.002056       -0.068269       -0.066213
   5 H        0.038447        0.009312       -0.059556       -0.050244
   6 H        0.038447        0.009312       -0.059556       -0.050244
   7 O       -0.138752        1.421585       -0.536778        0.884807
   8 H        0.138738        0.140536       -0.025359        0.115177
  --------------------------------------------------------------------
  Sum:       -1.000000        1.585213       -1.585213        0.000000
  
  Multipole moment analysis of the density matrix
    Molecular charge:                      -1.000000
    Number of electrons:                   26.000000
      Center of electronic charge [Ang]: [ -0.000000,   0.000000,   0.149480]
    Total nuclear charge:                  25.000000
      Center of nuclear charge [Ang]:    [ -0.000000,  -0.000000,   0.000000]
    Dipole moment [D]:                     18.667541
      Cartesian components [D]:          [  0.000000,  -0.000000, -18.667541]
    RMS size of the density [Ang]:         4.973654
      Cartesian components [Ang]:        [  0.943415,   0.541670,   4.853225]
  
  Exciton analysis of the difference density matrix
    <r_h> [Ang]:                  [  0.000000,  -0.000000,  -6.287815]
    <r_e> [Ang]:                  [ -0.000000,   0.000000,   0.009946]
    |<r_e - r_h>| [Ang]:            6.297761
    Hole size [Ang]:                1.905366
      Cartesian components [Ang]: [  0.909699,   0.806051,   1.467361]
    Electron size [Ang]:            5.934396
      Cartesian components [Ang]: [  2.344510,   1.374899,   5.275413]

  Transition density matrix analysis:
  -----------------------------------
  
  CT numbers (Mulliken)
    omega =     0.8402
    <Phe> =    -0.0000
  
  Exciton analysis of the transition density matrix
    Trans. dipole moment [D]:             0.020035
      Cartesian components [D]:         [  0.000000,  -0.000000,   0.020035]
    <r_h> [Ang]:                        [  0.000000,  -0.000000,  -6.397421]
    <r_e> [Ang]:                        [ -0.000000,   0.000000,   3.520217]
    |<r_e - r_h>| [Ang]:                  9.917638
    Hole size [Ang]:                      1.091504
      Cartesian components [Ang]:       [  0.842032,   0.486146,   0.496009]
    Electron size [Ang]:                  4.374527
      Cartesian components [Ang]:       [  2.895443,   1.606728,   2.858553]
    RMS electron-hole separation [Ang]:  10.894325
      Cartesian components [Ang]:       [  3.015020,   1.678664,  10.333347]
    Covariance(r_h, r_e) [Ang^2]:         0.000547
    Correlation coefficient:              0.000115
    Center-of-mass size [Ang]:            2.254383
      Cartesian components [Ang]:       [  1.507885,   0.839332,   1.450533]

  Decomposition into state-averaged NTOs
    H- 0 -> L+ 0: -0.5077 ( 51.6%)
    H- 0 -> L+ 4:  0.3410 ( 23.3%)
    H- 0 -> L+ 5:  0.2144 (  9.2%)
                   omega =  84.0%
  ----------------------------------------------------------------------------


  Excited state 4 (singlet, A1)                                    [converged]
  ----------------------------------------------------------------------------
  Term symbol:  5 (1) A1                                    R^2 =  1.02970e-09

  Total energy:                                           -153.7631456223 a.u.
  Excitation energy:                                               5.297997 eV

  Osc. strength:                                                      0.000003
  Trans. dip. moment [a.u.]:           [   0.000000,   -0.000000,   -0.004722]
  <i|r^2|0> [a.u.]:                    [   0.032583,    0.003324,   -0.057349]

  Dip. moment [a.u.]:                  [  -0.000000,   -0.000000,   -7.592921]
  Total dipole [Debye]:                                              19.299284
  <r^2> [a.u.]:                        [  82.035425,   29.479556, 2174.869764]
  Total <r^2> [a.u.]:                                              2286.384745

  V1^2 = 0.8502, V2^2 = 0.1498

  Important amplitudes:
      occ i      occ j       vir a       vir b          v   
    ---------------------------------------------------------
     4 (B1) A               7 (B1) A                 -0.6489
     4 (B1) A   4 (B1) B    7 (B1) A   11 (B1) B     -0.0656
    ---------------------------------------------------------

  Density matrix analysis:
  ------------------------
  NOs
    Occupation of frontier NOs:
       0.9566   0.9923
    Number of electrons: 26.000000
    Number of unpaired electrons: n_u =  2.76579, n_u,nl =  2.12430
    NO participation ratio (PR_NO):  3.956245
  
  
  Mulliken Population Analysis
  Atom      Charge (e)              h+              e-           Del q
  --------------------------------------------------------------------
   1 C       -0.685402        0.022431       -0.508011       -0.485580
   2 C       -0.685402        0.022431       -0.508011       -0.485580
   3 H        0.093598        0.000718       -0.018250       -0.017532
   4 H        0.093598        0.000718       -0.018250       -0.017532
   5 H        0.091815        0.002729        0.000395        0.003124
   6 H        0.091815        0.002729        0.000395        0.003124
   7 O       -0.138287        1.415622       -0.530351        0.885271
   8 H        0.138265        0.139899       -0.025194        0.114705
  --------------------------------------------------------------------
  Sum:       -1.000000        1.607278       -1.607278       -0.000000
  
  Multipole moment analysis of the density matrix
    Molecular charge:                      -1.000000
    Number of electrons:                   26.000000
      Center of electronic charge [Ang]: [  0.000000,   0.000000,   0.154538]
    Total nuclear charge:                  25.000000
      Center of nuclear charge [Ang]:    [ -0.000000,  -0.000000,   0.000000]
    Dipole moment [D]:                     19.299278
      Cartesian components [D]:          [ -0.000000,  -0.000000, -19.299278]
    RMS size of the density [Ang]:         4.959963
      Cartesian components [Ang]:        [  0.939973,   0.563475,   4.837373]
  
  Exciton analysis of the difference density matrix
    <r_h> [Ang]:                  [  0.000000,  -0.000000,  -6.115914]
    <r_e> [Ang]:                  [  0.000000,   0.000000,   0.177217]
    |<r_e - r_h>| [Ang]:            6.293131
    Hole size [Ang]:                2.288848
      Cartesian components [Ang]: [  0.913980,   0.805222,   1.937803]
    Electron size [Ang]:            5.709282
      Cartesian components [Ang]: [  2.309884,   1.503926,   4.999854]

  Transition density matrix analysis:
  -----------------------------------
  
  CT numbers (Mulliken)
    omega =     0.8353
    <Phe> =    -0.0000
  
  Exciton analysis of the transition density matrix
    Trans. dipole moment [D]:             0.006001
      Cartesian components [D]:         [  0.000000,  -0.000000,  -0.006001]
    <r_h> [Ang]:                        [  0.000000,  -0.000000,  -6.397181]
    <r_e> [Ang]:                        [  0.000000,   0.000000,   3.658524]
    |<r_e - r_h>| [Ang]:                 10.055705
    Hole size [Ang]:                      1.092328
      Cartesian components [Ang]:       [  0.841817,   0.486016,   0.498310]
    Electron size [Ang]:                  3.822220
      Cartesian components [Ang]:       [  2.861238,   1.786906,   1.797122]
    RMS electron-hole separation [Ang]:  10.813114
      Cartesian components [Ang]:       [  2.982148,   1.851814,  10.227464]
    Covariance(r_h, r_e) [Ang^2]:        -0.001848
    Correlation coefficient:             -0.000443
    Center-of-mass size [Ang]:            1.987388
      Cartesian components [Ang]:       [  1.491431,   0.925915,   0.931679]

  Decomposition into state-averaged NTOs
    H- 0 -> L+ 5: -0.3974 ( 31.6%)
    H- 0 -> L+ 4:  0.3778 ( 28.5%)
    H- 0 -> L+ 7: -0.3314 ( 22.0%)
    H- 0 -> L+ 0:  0.0821 (  1.3%)
                   omega =  83.5%
  ----------------------------------------------------------------------------


  Excited state 5 (singlet, A1)                                    [converged]
  ----------------------------------------------------------------------------
  Term symbol:  6 (1) A1                                    R^2 =  3.01390e-09

  Total energy:                                           -153.7333001677 a.u.
  Excitation energy:                                               6.110133 eV

  Osc. strength:                                                      0.000042
  Trans. dip. moment [a.u.]:           [  -0.000000,   -0.000000,   -0.016695]
  <i|r^2|0> [a.u.]:                    [   0.001722,    0.001149,   -0.219803]

  Dip. moment [a.u.]:                  [   0.000000,   -0.000000,   -7.931853]
  Total dipole [Debye]:                                              20.160762
  <r^2> [a.u.]:                        [  65.918412,   28.349249, 2197.581107]
  Total <r^2> [a.u.]:                                              2291.848767

  V1^2 = 0.8577, V2^2 = 0.1423

  Important amplitudes:
      occ i      occ j       vir a       vir b          v   
    ---------------------------------------------------------
     7 (A1) A               8 (A1) A                 -0.6048
     7 (A1) A               9 (A1) A                 -0.2395
    ---------------------------------------------------------

  Density matrix analysis:
  ------------------------
  NOs
    Occupation of frontier NOs:
       0.9736   0.9970
    Number of electrons: 26.000000
    Number of unpaired electrons: n_u =  2.80558, n_u,nl =  2.13970
    NO participation ratio (PR_NO):  3.976278
  
  
  Mulliken Population Analysis
  Atom      Charge (e)              h+              e-           Del q
  --------------------------------------------------------------------
   1 C       -0.656999        0.013383       -0.470560       -0.457178
   2 C       -0.656999        0.013383       -0.470560       -0.457178
   3 H        0.080792        0.000743       -0.031080       -0.030338
   4 H        0.080792        0.000743       -0.031080       -0.030338
   5 H        0.076412        0.009233       -0.021512       -0.012279
   6 H        0.076412        0.009233       -0.021512       -0.012279
   7 O       -0.322803        1.244068       -0.543312        0.700756
   8 H        0.322393        0.316967       -0.018134        0.298833
  --------------------------------------------------------------------
  Sum:       -1.000000        1.607751       -1.607751        0.000000
  
  Multipole moment analysis of the density matrix
    Molecular charge:                      -1.000000
    Number of electrons:                   26.000000
      Center of electronic charge [Ang]: [  0.000000,   0.000000,   0.161437]
    Total nuclear charge:                  25.000000
      Center of nuclear charge [Ang]:    [ -0.000000,  -0.000000,   0.000000]
    Dipole moment [D]:                     20.160756
      Cartesian components [D]:          [ -0.000000,  -0.000000, -20.160756]
    RMS size of the density [Ang]:         4.965672
      Cartesian components [Ang]:        [  0.842593,   0.552567,   4.862366]
  
  Exciton analysis of the difference density matrix
    <r_h> [Ang]:                  [  0.000000,  -0.000000,  -6.142812]
    <r_e> [Ang]:                  [  0.000000,   0.000000,   0.260024]
    |<r_e - r_h>| [Ang]:            6.402836
    Hole size [Ang]:                2.245002
      Cartesian components [Ang]: [  0.794457,   0.784197,   1.947795]
    Electron size [Ang]:            5.800454
      Cartesian components [Ang]: [  1.524099,   1.425143,   5.412149]

  Transition density matrix analysis:
  -----------------------------------
  
  CT numbers (Mulliken)
    omega =     0.8410
    <Phe> =    -0.0000
  
  Exciton analysis of the transition density matrix
    Trans. dipole moment [D]:             0.021217
      Cartesian components [D]:         [ -0.000000,  -0.000000,  -0.021217]
    <r_h> [Ang]:                        [  0.000000,   0.000000,  -6.442887]
    <r_e> [Ang]:                        [  0.000000,   0.000000,   3.846449]
    |<r_e - r_h>| [Ang]:                 10.289336
    Hole size [Ang]:                      1.006592
      Cartesian components [Ang]:       [  0.420621,   0.420609,   0.812030]
    Electron size [Ang]:                  3.838066
      Cartesian components [Ang]:       [  1.804816,   1.683745,   2.939115]
    RMS electron-hole separation [Ang]:  11.028123
      Cartesian components [Ang]:       [  1.853314,   1.735480,  10.731860]
    Covariance(r_h, r_e) [Ang^2]:        -0.002536
    Correlation coefficient:             -0.000656
    Center-of-mass size [Ang]:            1.983615
      Cartesian components [Ang]:       [  0.926524,   0.867745,   1.524237]

  Decomposition into state-averaged NTOs
    H- 1 -> L+ 1:  0.6025 ( 72.6%)
    H- 1 -> L+ 6: -0.2312 ( 10.7%)
                   omega =  84.1%
  ----------------------------------------------------------------------------


  Excited state 6 (singlet, A1)                                    [converged]
  ----------------------------------------------------------------------------
  Term symbol:  7 (1) A1                                    R^2 =  4.25908e-09

  Total energy:                                           -153.7258579118 a.u.
  Excitation energy:                                               6.312647 eV

  Osc. strength:                                                      0.000000
  Trans. dip. moment [a.u.]:           [   0.000000,    0.000000,   -0.000673]
  <i|r^2|0> [a.u.]:                    [  -0.000496,   -0.000102,   -0.017692]

  Dip. moment [a.u.]:                  [   0.000000,    0.000000,   -7.244308]
  Total dipole [Debye]:                                              18.413199
  <r^2> [a.u.]:                        [  93.513745,   26.682535, 2164.774799]
  Total <r^2> [a.u.]:                                              2284.971079

  V1^2 = 0.8553, V2^2 = 0.1447

  Important amplitudes:
      occ i      occ j       vir a       vir b          v   
    ---------------------------------------------------------
     7 (A1) A               9 (A1) A                 -0.5983
     7 (A1) A               8 (A1) A                  0.2440
    ---------------------------------------------------------

  Density matrix analysis:
  ------------------------
  NOs
    Occupation of frontier NOs:
       0.9737   0.9946
    Number of electrons: 26.000000
    Number of unpaired electrons: n_u =  2.81060, n_u,nl =  2.14149
    NO participation ratio (PR_NO):  3.999216
  
  
  Mulliken Population Analysis
  Atom      Charge (e)              h+              e-           Del q
  --------------------------------------------------------------------
   1 C       -0.760576        0.020721       -0.581475       -0.560755
   2 C       -0.760576        0.020721       -0.581475       -0.560755
   3 H        0.138922        0.000207        0.027585        0.027792
   4 H        0.138922        0.000207        0.027585        0.027792
   5 H        0.121655        0.001706        0.031258        0.032964
   6 H        0.121655        0.001706        0.031258        0.032964
   7 O       -0.322877        1.242866       -0.542184        0.700682
   8 H        0.322875        0.317568       -0.018253        0.299315
  --------------------------------------------------------------------
  Sum:       -1.000000        1.605701       -1.605701       -0.000000
  
  Multipole moment analysis of the density matrix
    Molecular charge:                      -1.000000
    Number of electrons:                   26.000000
      Center of electronic charge [Ang]: [ -0.000000,  -0.000000,   0.147443]
    Total nuclear charge:                  25.000000
      Center of nuclear charge [Ang]:    [ -0.000000,  -0.000000,   0.000000]
    Dipole moment [D]:                     18.413193
      Cartesian components [D]:          [  0.000000,   0.000000, -18.413193]
    RMS size of the density [Ang]:         4.958644
      Cartesian components [Ang]:        [  1.003580,   0.536078,   4.826344]
  
  Exciton analysis of the difference density matrix
    <r_h> [Ang]:                  [  0.000000,  -0.000000,  -6.161894]
    <r_e> [Ang]:                  [ -0.000000,  -0.000000,   0.022531]
    |<r_e - r_h>| [Ang]:            6.184425
    Hole size [Ang]:                2.185347
      Cartesian components [Ang]: [  0.799028,   0.785820,   1.876109]
    Electron size [Ang]:            5.698409
      Cartesian components [Ang]: [  2.672985,   1.320878,   4.856160]

  Transition density matrix analysis:
  -----------------------------------
  
  CT numbers (Mulliken)
    omega =     0.8384
    <Phe> =    -0.0000
  
  Exciton analysis of the transition density matrix
    Trans. dipole moment [D]:             0.000855
      Cartesian components [D]:         [  0.000000,   0.000000,  -0.000855]
    <r_h> [Ang]:                        [  0.000000,   0.000000,  -6.443445]
    <r_e> [Ang]:                        [ -0.000000,  -0.000000,   3.463875]
    |<r_e - r_h>| [Ang]:                  9.907320
    Hole size [Ang]:                      1.006646
      Cartesian components [Ang]:       [  0.420634,   0.420615,   0.812087]
    Electron size [Ang]:                  3.937419
      Cartesian components [Ang]:       [  3.325395,   1.536000,   1.444201]
    RMS electron-hole separation [Ang]:  10.708667
      Cartesian components [Ang]:       [  3.352021,   1.592575,  10.045058]
    Covariance(r_h, r_e) [Ang^2]:        -0.001971
    Correlation coefficient:             -0.000497
    Center-of-mass size [Ang]:            2.031789
      Cartesian components [Ang]:       [  1.675882,   0.796261,   0.827980]

  Decomposition into state-averaged NTOs
    H- 1 -> L+ 2: -0.5088 ( 51.8%)
    H- 1 -> L+ 6:  0.3885 ( 30.2%)
    H- 1 -> L+ 1:  0.0966 (  1.9%)
                   omega =  83.8%
  ----------------------------------------------------------------------------


  Excited state 7 (singlet, A1)                                    [converged]
  ----------------------------------------------------------------------------
  Term symbol:  8 (1) A1                                    R^2 =  4.87361e-10

  Total energy:                                           -153.7116829658 a.u.
  Excitation energy:                                               6.698367 eV

  Osc. strength:                                                      0.000000
  Trans. dip. moment [a.u.]:           [  -0.000000,   -0.000000,   -0.000071]
  <i|r^2|0> [a.u.]:                    [   2.250267,   -2.248998,   -0.000261]

  Dip. moment [a.u.]:                  [   0.000000,    0.000000,   11.338034]
  Total dipole [Debye]:                                              28.818414
  <r^2> [a.u.]:                        [  61.518513,   25.529585, 2265.076673]
  Total <r^2> [a.u.]:                                              2352.124771

  V1^2 = 0.9223, V2^2 = 0.0777

  Important amplitudes:
      occ i      occ j       vir a       vir b          v   
    ---------------------------------------------------------
     4 (B1) A              11 (B1) A                  0.4798
     2 (B2) A               5 (B2) A                  0.4798
    ---------------------------------------------------------

  Density matrix analysis:
  ------------------------
  NOs
    Occupation of frontier NOs:
       0.5188   1.4619
    Number of electrons: 26.000000
    Number of unpaired electrons: n_u =  2.70632, n_u,nl =  2.48317
    NO participation ratio (PR_NO):  6.460150
  
  
  Mulliken Population Analysis
  Atom      Charge (e)              h+              e-           Del q
  --------------------------------------------------------------------
   1 C       -0.199883        0.000092       -0.000153       -0.000061
   2 C       -0.199883        0.000092       -0.000153       -0.000061
   3 H        0.111047       -0.000010       -0.000073       -0.000083
   4 H        0.111047       -0.000010       -0.000073       -0.000083
   5 H        0.088781        0.000053        0.000037        0.000090
   6 H        0.088781        0.000053        0.000037        0.000090
   7 O       -1.117304        1.147159       -1.240905       -0.093746
   8 H        0.117414        0.113566       -0.019713        0.093854
  --------------------------------------------------------------------
  Sum:       -1.000000        1.260996       -1.260996        0.000000
  
  Multipole moment analysis of the density matrix
    Molecular charge:                      -1.000000
    Number of electrons:                   26.000000
      Center of electronic charge [Ang]: [ -0.000000,  -0.000000,  -0.230763]
    Total nuclear charge:                  25.000000
      Center of nuclear charge [Ang]:    [ -0.000000,  -0.000000,   0.000000]
    Dipole moment [D]:                     28.818406
      Cartesian components [D]:          [  0.000000,   0.000000,  28.818406]
    RMS size of the density [Ang]:         5.027912
      Cartesian components [Ang]:        [  0.813987,   0.524368,   4.933798]
  
  Exciton analysis of the difference density matrix
    <r_h> [Ang]:                  [  0.000000,  -0.000000,  -6.444590]
    <r_e> [Ang]:                  [  0.000000,  -0.000000,  -6.367680]
    |<r_e - r_h>| [Ang]:            0.076910
    Hole size [Ang]:                1.268210
      Cartesian components [Ang]: [  0.743999,   0.743721,   0.708309]
    Electron size [Ang]:            2.103851
      Cartesian components [Ang]: [  1.316573,   1.316216,   0.979999]

  Transition density matrix analysis:
  -----------------------------------
  
  CT numbers (Mulliken)
    omega =     0.8993
    <Phe> =     0.0349
  
  Exciton analysis of the transition density matrix
    Trans. dipole moment [D]:             0.000091
      Cartesian components [D]:         [ -0.000000,  -0.000000,  -0.000091]
    <r_h> [Ang]:                        [  0.000000,  -0.000000,  -6.396497]
    <r_e> [Ang]:                        [  0.000000,  -0.000000,  -6.361506]
    |<r_e - r_h>| [Ang]:                  0.034991
    Hole size [Ang]:                      1.069486
      Cartesian components [Ang]:       [  0.673803,   0.673666,   0.485761]
    Electron size [Ang]:                  2.326398
      Cartesian components [Ang]:       [  1.469876,   1.469584,   1.044948]
    RMS electron-hole separation [Ang]:   2.559199
      Cartesian components [Ang]:       [  1.615796,   1.615476,   1.152797]
    Covariance(r_h, r_e) [Ang^2]:         0.003827
    Correlation coefficient:              0.001538
    Center-of-mass size [Ang]:            1.280975
      Cartesian components [Ang]:       [  0.809058,   0.808895,   0.576204]

  Decomposition into state-averaged NTOs
    H- 2 -> L+ 9: -0.4736 ( 44.9%)
    H- 0 -> L+ 8: -0.4732 ( 44.8%)
                   omega =  89.9%
  ----------------------------------------------------------------------------


  Excited state 8 (singlet, A1)                                    [converged]
  ----------------------------------------------------------------------------
  Term symbol:  9 (1) A1                                    R^2 =  2.65487e-08

  Total energy:                                           -153.6841823075 a.u.
  Excitation energy:                                               7.446698 eV

  Osc. strength:                                                      0.000000
  Trans. dip. moment [a.u.]:           [   0.000000,    0.000000,    0.000011]
  <i|r^2|0> [a.u.]:                    [  -0.043687,   -0.043219,    0.021429]

  Dip. moment [a.u.]:                  [  -0.000000,   -0.000000,   -7.480912]
  Total dipole [Debye]:                                              19.014585
  <r^2> [a.u.]:                        [  70.051161,   31.020008, 2171.644980]
  Total <r^2> [a.u.]:                                              2272.716150

  V1^2 = 0.8547, V2^2 = 0.1453

  Important amplitudes:
      occ i      occ j       vir a       vir b          v   
    ---------------------------------------------------------
     7 (A1) A              10 (A1) A                  0.6421
     7 (A1) A               9 (A1) A                  0.1041
    ---------------------------------------------------------

  Density matrix analysis:
  ------------------------
  NOs
    Occupation of frontier NOs:
       0.9735   0.9941
    Number of electrons: 26.000000
    Number of unpaired electrons: n_u =  2.81169, n_u,nl =  2.14110
    NO participation ratio (PR_NO):  4.005058
  
  
  Mulliken Population Analysis
  Atom      Charge (e)              h+              e-           Del q
  --------------------------------------------------------------------
   1 C       -0.746746        0.038676       -0.585600       -0.546924
   2 C       -0.746746        0.038676       -0.585600       -0.546924
   3 H        0.128719        0.000159        0.017431        0.017589
   4 H        0.128719        0.000159        0.017431        0.017589
   5 H        0.118161        0.001135        0.028336        0.029471
   6 H        0.118161        0.001135        0.028336        0.029471
   7 O       -0.322912        1.239283       -0.538637        0.700646
   8 H        0.322642        0.317141       -0.018058        0.299082
  --------------------------------------------------------------------
  Sum:       -1.000000        1.636362       -1.636362       -0.000000
  
  Multipole moment analysis of the density matrix
    Molecular charge:                      -1.000000
    Number of electrons:                   26.000000
      Center of electronic charge [Ang]: [ -0.000000,   0.000000,   0.152259]
    Total nuclear charge:                  25.000000
      Center of nuclear charge [Ang]:    [ -0.000000,  -0.000000,   0.000000]
    Dipole moment [D]:                     19.014579
      Cartesian components [D]:          [  0.000000,  -0.000000, -19.014579]
    RMS size of the density [Ang]:         4.945171
      Cartesian components [Ang]:        [  0.868605,   0.578010,   4.833854]
  
  Exciton analysis of the difference density matrix
    <r_h> [Ang]:                  [ -0.000000,  -0.000000,  -5.952718]
    <r_e> [Ang]:                  [ -0.000000,   0.000000,   0.192342]
    |<r_e - r_h>| [Ang]:            6.145060
    Hole size [Ang]:                2.595506
      Cartesian components [Ang]: [  0.800062,   0.788957,   2.339679]
    Electron size [Ang]:            5.473345
      Cartesian components [Ang]: [  1.734782,   1.571879,   4.947447]

  Transition density matrix analysis:
  -----------------------------------
  
  CT numbers (Mulliken)
    omega =     0.8376
    <Phe> =    -0.0000
  
  Exciton analysis of the transition density matrix
    Trans. dipole moment [D]:             0.000014
      Cartesian components [D]:         [ -0.000000,   0.000000,   0.000014]
    <r_h> [Ang]:                        [  0.000000,   0.000000,  -6.443400]
    <r_e> [Ang]:                        [ -0.000000,   0.000000,   3.593434]
    |<r_e - r_h>| [Ang]:                 10.036834
    Hole size [Ang]:                      1.006563
      Cartesian components [Ang]:       [  0.420597,   0.420581,   0.812022]
    Electron size [Ang]:                  3.319560
      Cartesian components [Ang]:       [  2.088859,   1.885881,   1.760568]
    RMS electron-hole separation [Ang]:  10.619579
      Cartesian components [Ang]:       [  2.130903,   1.932159,  10.222596]
    Covariance(r_h, r_e) [Ang^2]:        -0.002385
    Correlation coefficient:             -0.000714
    Center-of-mass size [Ang]:            1.734062
      Cartesian components [Ang]:       [  1.065331,   0.966131,   0.968830]

  Decomposition into state-averaged NTOs
    H- 1 -> L+ 6:  0.4612 ( 42.5%)
    H- 1 -> L+ 2:  0.3967 ( 31.5%)
    H- 1 -> L+ 1:  0.2206 (  9.7%)
                   omega =  83.8%
  ----------------------------------------------------------------------------


  Excited state 9 (singlet, A1)                                    [converged]
  ----------------------------------------------------------------------------
  Term symbol:  10 (1) A1                                   R^2 =  4.31998e-07

  Total energy:                                           -153.6765980744 a.u.
  Excitation energy:                                               7.653076 eV

  Osc. strength:                                                      0.012401
  Trans. dip. moment [a.u.]:           [   0.000000,    0.000000,   -0.257177]
  <i|r^2|0> [a.u.]:                    [   3.615942,    3.617236,   -5.608398]

  Dip. moment [a.u.]:                  [   0.000000,    0.000000,   11.539615]
  Total dipole [Debye]:                                              29.330781
  <r^2> [a.u.]:                        [  60.774191,   24.788013, 2270.782924]
  Total <r^2> [a.u.]:                                              2356.345129

  V1^2 = 0.8896, V2^2 = 0.1104

  Important amplitudes:
      occ i      occ j       vir a       vir b          v   
    ---------------------------------------------------------
     2 (B2) A               5 (B2) A                 -0.4347
     4 (B1) A              11 (B1) A                  0.4342
    ---------------------------------------------------------

  Density matrix analysis:
  ------------------------
  NOs
    Occupation of frontier NOs:
       0.4469   1.5306
    Number of electrons: 26.000000
    Number of unpaired electrons: n_u =  2.70021, n_u,nl =  2.23666
    NO participation ratio (PR_NO):  8.014791
  
  
  Mulliken Population Analysis
  Atom      Charge (e)              h+              e-           Del q
  --------------------------------------------------------------------
   1 C       -0.200378        0.000236       -0.000793       -0.000557
   2 C       -0.200378        0.000236       -0.000793       -0.000557
   3 H        0.111136       -0.000018        0.000025        0.000006
   4 H        0.111136       -0.000018        0.000025        0.000006
   5 H        0.088861        0.000080        0.000090        0.000170
   6 H        0.088861        0.000080        0.000090        0.000170
   7 O       -1.164892        1.201235       -1.342569       -0.141334
   8 H        0.165655        0.132953        0.009142        0.142095
  --------------------------------------------------------------------
  Sum:       -1.000000        1.334783       -1.334783        0.000000
  
  Multipole moment analysis of the density matrix
    Molecular charge:                      -1.000000
    Number of electrons:                   26.000000
      Center of electronic charge [Ang]: [ -0.000000,  -0.000000,  -0.234865]
    Total nuclear charge:                  25.000000
      Center of nuclear charge [Ang]:    [ -0.000000,  -0.000000,   0.000000]
    Dipole moment [D]:                     29.330773
      Cartesian components [D]:          [  0.000000,   0.000000,  29.330773]
    RMS size of the density [Ang]:         5.032241
      Cartesian components [Ang]:        [  0.809048,   0.516696,   4.939829]
  
  Exciton analysis of the difference density matrix
    <r_h> [Ang]:                  [ -0.000000,  -0.000000,  -6.423352]
    <r_e> [Ang]:                  [ -0.000000,  -0.000000,  -6.430611]
    |<r_e - r_h>| [Ang]:            0.007258
    Hole size [Ang]:                1.399498
      Cartesian components [Ang]: [  0.843656,   0.843428,   0.731757]
    Electron size [Ang]:            2.117035
      Cartesian components [Ang]: [  1.292366,   1.292248,   1.068513]

  Transition density matrix analysis:
  -----------------------------------
  
  CT numbers (Mulliken)
    omega =     0.8913
    <Phe> =    -0.0697
  
  Exciton analysis of the transition density matrix
    Trans. dipole moment [D]:             0.326839
      Cartesian components [D]:         [ -0.000000,   0.000000,  -0.326839]
    <r_h> [Ang]:                        [  0.000000,  -0.000000,  -6.409712]
    <r_e> [Ang]:                        [ -0.000000,  -0.000000,  -6.467397]
    |<r_e - r_h>| [Ang]:                  0.057685
    Hole size [Ang]:                      1.091734
      Cartesian components [Ang]:       [  0.664452,   0.664524,   0.555693]
    Electron size [Ang]:                  2.337081
      Cartesian components [Ang]:       [  1.430031,   1.430115,   1.171208]
    RMS electron-hole separation [Ang]:   2.548973
      Cartesian components [Ang]:       [  1.556049,   1.556138,   1.286239]
    Covariance(r_h, r_e) [Ang^2]:         0.079946
    Correlation coefficient:              0.031333
    Center-of-mass size [Ang]:            1.305155
      Cartesian components [Ang]:       [  0.798699,   0.798761,   0.653828]

  Decomposition into state-averaged NTOs
    H- 2 -> L+ 9:  0.4358 ( 38.0%)
    H- 0 -> L+ 8: -0.4349 ( 37.8%)
    H- 1 -> L+10:  0.2469 ( 12.2%)
                   omega =  89.1%
  ----------------------------------------------------------------------------


  Excited state 10 (singlet, A1)                                    [converged]
  ----------------------------------------------------------------------------
  Term symbol:  11 (1) A1                                   R^2 =  2.49072e-06

  Total energy:                                           -153.6667176827 a.u.
  Excitation energy:                                               7.921935 eV

  Osc. strength:                                                      0.000001
  Trans. dip. moment [a.u.]:           [   0.000000,    0.000000,   -0.001960]
  <i|r^2|0> [a.u.]:                    [   0.026322,    0.020095,   -0.019173]

  Dip. moment [a.u.]:                  [   0.000000,   -0.000000,   -7.530551]
  Total dipole [Debye]:                                              19.140755
  <r^2> [a.u.]:                        [  70.641768,   23.666250, 2170.463898]
  Total <r^2> [a.u.]:                                              2264.771916

  V1^2 = 0.8486, V2^2 = 0.1514

  Important amplitudes:
      occ i      occ j       vir a       vir b          v   
    ---------------------------------------------------------
     4 (B1) A               8 (B1) A                  0.6492
     4 (B1) A   4 (B1) B    8 (B1) A   11 (B1) B      0.0652
    ---------------------------------------------------------

  Density matrix analysis:
  ------------------------
  NOs
    Occupation of frontier NOs:
       0.9566   0.9901
    Number of electrons: 26.000000
    Number of unpaired electrons: n_u =  2.76980, n_u,nl =  2.12538
    NO participation ratio (PR_NO):  3.975385
  
  
  Mulliken Population Analysis
  Atom      Charge (e)              h+              e-           Del q
  --------------------------------------------------------------------
   1 C       -0.871632        0.037247       -0.709057       -0.671810
   2 C       -0.871632        0.037247       -0.709057       -0.671810
   3 H        0.189887        0.004335        0.074423        0.078758
   4 H        0.189887        0.004335        0.074423        0.078758
   5 H        0.181771        0.005257        0.087824        0.093080
   6 H        0.181771        0.005257        0.087824        0.093080
   7 O       -0.137606        1.411915       -0.525962        0.885953
   8 H        0.137551        0.138945       -0.024954        0.113991
  --------------------------------------------------------------------
  Sum:       -1.000000        1.644537       -1.644537       -0.000000
  
  Multipole moment analysis of the density matrix
    Molecular charge:                      -1.000000
    Number of electrons:                   26.000000
      Center of electronic charge [Ang]: [ -0.000000,   0.000000,   0.153269]
    Total nuclear charge:                  25.000000
      Center of nuclear charge [Ang]:    [ -0.000000,  -0.000000,   0.000000]
    Dipole moment [D]:                     19.140750
      Cartesian components [D]:          [  0.000000,  -0.000000, -19.140750]
    RMS size of the density [Ang]:         4.936481
      Cartesian components [Ang]:        [  0.872259,   0.504870,   4.832506]
  
  Exciton analysis of the difference density matrix
    <r_h> [Ang]:                  [ -0.000000,  -0.000000,  -5.866951]
    <r_e> [Ang]:                  [ -0.000000,  -0.000000,   0.263536]
    |<r_e - r_h>| [Ang]:            6.130486
    Hole size [Ang]:                2.744002
      Cartesian components [Ang]: [  0.924428,   0.803024,   2.455633]
    Electron size [Ang]:            5.330291
      Cartesian components [Ang]: [  1.820089,   1.109877,   4.885433]

  Transition density matrix analysis:
  -----------------------------------
  
  CT numbers (Mulliken)
    omega =     0.8335
    <Phe> =    -0.0000
  
  Exciton analysis of the transition density matrix
    Trans. dipole moment [D]:             0.002491
      Cartesian components [D]:         [ -0.000000,   0.000000,  -0.002491]
    <r_h> [Ang]:                        [  0.000000,  -0.000000,  -6.397439]
    <r_e> [Ang]:                        [ -0.000000,  -0.000000,   3.624681]
    |<r_e - r_h>| [Ang]:                 10.022120
    Hole size [Ang]:                      1.090701
      Cartesian components [Ang]:       [  0.841541,   0.485873,   0.495343]
    Electron size [Ang]:                  2.947796
      Cartesian components [Ang]:       [  2.233218,   1.235031,   1.475446]
    RMS electron-hole separation [Ang]:  10.503394
      Cartesian components [Ang]:       [  2.386324,   1.327160,  10.142257]
    Covariance(r_h, r_e) [Ang^2]:         0.000366
    Correlation coefficient:              0.000114
    Center-of-mass size [Ang]:            1.571613
      Cartesian components [Ang]:       [  1.193353,   0.663588,   0.778156]

  Decomposition into state-averaged NTOs
    H- 0 -> L+ 7:  0.4753 ( 45.2%)
    H- 0 -> L+ 5: -0.4078 ( 33.3%)
    H- 0 -> L+ 0: -0.1533 (  4.7%)
                   omega =  83.3%
  ----------------------------------------------------------------------------


--------------------------------------------------------------------------------
  Time of ADC calculation:  CPU 288.28 s  wall 75.08 s
================================================================================
 
 --------------------------------------------------------------
             Orbital Energies (a.u.) and Symmetries
 --------------------------------------------------------------
 
 Alpha MOs, Restricted
 -- Occupied --                  
-20.198 -11.183 -11.181  -0.988  -0.905  -0.728  -0.606  -0.513
  1 A1    2 A1    1 B1    3 A1    4 A1    2 B1    5 A1    6 A1                 
 -0.461  -0.323  -0.252  -0.108  -0.108
  3 B1    1 B2    7 A1    2 B2    4 B1                                         
 -- Virtual --                   
  0.113   0.129   0.136   0.137   0.143   0.157   0.184   0.224
  5 B1    8 A1    3 B2    9 A1    1 A2    6 B1   10 A1    2 A2                 
  0.256   0.316   0.349   0.358   0.368   0.376   0.376   0.379
  7 B1   11 A1   12 A1    8 B1   13 A1    9 B1    4 B2   14 A1                 
  0.395   0.423   0.443   0.443   0.455   0.457   0.585   0.608
 15 A1   10 B1   11 B1    5 B2   16 A1    3 A2   17 A1   12 B1                 
  0.663   0.880   0.909   0.972   0.987   1.047   1.090   1.098
 13 B1   18 A1   19 A1   20 A1   14 B1   21 A1   15 B1   22 A1                 
  1.121   1.164   1.168   1.170   1.172   1.269   1.269   1.323
  6 B2    4 A2    7 B2   16 B1   23 A1   17 B1    8 B2    5 A2                 
  1.323   1.323   1.338   1.341   1.469   1.545   1.673   1.698
 24 A1   18 B1    6 A2    9 B2   19 B1   25 A1   26 A1   20 B1                 
  1.729   1.729   1.779   1.924   1.973   1.997   2.008   2.071
 10 B2   21 B1   27 A1    7 A2   28 A1   11 B2   22 B1   12 B2                 
  2.111   2.143   2.233   2.379   2.379   2.380   2.466   2.520
 29 A1   30 A1    8 A2   23 B1   13 B2   24 B1    9 A2   31 A1                 
  2.538   2.631   2.635   2.874   2.882   3.038   3.308   3.393
 32 A1   25 B1   26 B1   33 A1   34 A1   35 A1   27 B1   28 B1                 
  3.930   3.930   3.959   3.959   4.406
 29 B1   14 B2   10 A2   36 A1   37 A1                                         
 
 Beta MOs, Restricted
 -- Occupied --                  
-20.198 -11.183 -11.181  -0.988  -0.905  -0.728  -0.606  -0.513
  1 A1    2 A1    1 B1    3 A1    4 A1    2 B1    5 A1    6 A1                 
 -0.461  -0.323  -0.252  -0.108  -0.108
  3 B1    1 B2    7 A1    2 B2    4 B1                                         
 -- Virtual --                   
  0.113   0.129   0.136   0.137   0.143   0.157   0.184   0.224
  5 B1    8 A1    3 B2    9 A1    1 A2    6 B1   10 A1    2 A2                 
  0.256   0.316   0.349   0.358   0.368   0.376   0.376   0.379
  7 B1   11 A1   12 A1    8 B1   13 A1    9 B1    4 B2   14 A1                 
  0.395   0.423   0.443   0.443   0.455   0.457   0.585   0.608
 15 A1   10 B1   11 B1    5 B2   16 A1    3 A2   17 A1   12 B1                 
  0.663   0.880   0.909   0.972   0.987   1.047   1.090   1.098
 13 B1   18 A1   19 A1   20 A1   14 B1   21 A1   15 B1   22 A1                 
  1.121   1.164   1.168   1.170   1.172   1.269   1.269   1.323
  6 B2    4 A2    7 B2   16 B1   23 A1   17 B1    8 B2    5 A2                 
  1.323   1.323   1.338   1.341   1.469   1.545   1.673   1.698
 24 A1   18 B1    6 A2    9 B2   19 B1   25 A1   26 A1   20 B1                 
  1.729   1.729   1.779   1.924   1.973   1.997   2.008   2.071
 10 B2   21 B1   27 A1    7 A2   28 A1   11 B2   22 B1   12 B2                 
  2.111   2.143   2.233   2.379   2.379   2.380   2.466   2.520
 29 A1   30 A1    8 A2   23 B1   13 B2   24 B1    9 A2   31 A1                 
  2.538   2.631   2.635   2.874   2.882   3.038   3.308   3.393
 32 A1   25 B1   26 B1   33 A1   34 A1   35 A1   27 B1   28 B1                 
  3.930   3.930   3.959   3.959   4.406
 29 B1   14 B2   10 A2   36 A1   37 A1                                         
 --------------------------------------------------------------
 
          Ground-State Mulliken Net Atomic Charges

     Atom                 Charge (a.u.)
  ----------------------------------------
      1 C                    -0.184935
      2 C                    -0.184935
      3 H                     0.103701
      4 H                     0.103701
      5 H                     0.081234
      6 H                     0.081234
      7 O                    -1.035718
      8 H                     0.035719
  ----------------------------------------
  Sum of atomic charges =    -1.000000

 -----------------------------------------------------------------
                    Cartesian Multipole Moments
 -----------------------------------------------------------------
    Charge (ESU x 10^10)
                -4.8032
    Dipole Moment (Debye)
         X       0.0000      Y       0.0000      Z      29.1858
       Tot      29.1858
    Quadrupole Moments (Debye-Ang)
        XX     -23.0505     XY       0.0000     YY     -26.2567
        XZ       0.0000     YZ      -0.0000     ZZ    -199.3716
    Octopole Moments (Debye-Ang^2)
       XXX       0.0000    XXY       0.0000    XYY      -0.0000
       YYY      -0.0000    XXZ      17.5592    XYZ       0.0000
       YYZ       6.0965    XZZ       0.0000    YZZ       0.0000
       ZZZ    1093.4812
    Hexadecapole Moments (Debye-Ang^3)
      XXXX     -84.2506   XXXY      -0.0000   XXYY     -20.9681
      XYYY       0.0000   YYYY     -37.7487   XXXZ       0.0000
      XXYZ      -0.0000   XYYZ      -0.0000   YYYZ      -0.0000
      XXZZ    -607.5344   XYZZ       0.0000   YYZZ    -644.2835
      XZZZ       0.0000   YZZZ      -0.0000   ZZZZ   -9444.4819
 -----------------------------------------------------------------
 Total job time:  183.86s(wall), 338.14s(cpu) 
 Tue Mar  1 23:17:24 2022

        *************************************************************
        *                                                           *
        *  Thank you very much for using Q-Chem.  Have a nice day.  *
        *                                                           *
        *************************************************************


