/src/tsommerfeld/qchem/exe/qcprog.exe .input0.933333.17287.qcin.1 /src/jdavis/qchem.scratch/qchem17287/

                  Welcome to Q-Chem
     A Quantum Leap Into The Future Of Chemistry


 Q-Chem 5.4 (devel), Q-Chem, Inc., Pleasanton, CA (2021)

 E. Epifanovsky,  A. T. B. Gilbert,  Xintian Feng,  Joonho Lee,  Yuezhi Mao,  
 N. Mardirossian,  P. Pokhilko,  A. White,  M. Wormit,  M. P. Coons,  
 A. L. Dempwolff,  Zhengting Gan,  D. Hait,  P. R. Horn,  L. D. Jacobson,  
 I. Kaliman,  J. Kussmann,  A. W. Lange,  Ka Un Lao,  D. S. Levine,  Jie Liu,  
 S. C. McKenzie,  A. F. Morrison,  K. Nanda,  F. Plasser,  D. R. Rehn,  
 M. L. Vidal,  Zhi-Qiang You,  Ying Zhu,  B. Alam,  B. Albrecht,  
 A. Aldossary,  E. Alguire,  J. H. Andersen,  D. Barton,  K. Begam,  A. Behn,  
 Y. A. Bernard,  E. J. Berquist,  H. Burton,  A. Carreras,  K. Carter-Fenk,  
 R. Chakraborty,  A. D. Chien,  K. D. Closser,  V. Cofer-Shabica,  
 S. Dasgupta,  Jia Deng,  M. de Wergifosse,  M. Diedenhofen,  Hainam Do,  
 S. Ehlert,  Po-Tung Fang,  S. Fatehi,  Qingguo Feng,  T. Friedhoff,  
 J. Gayvert,  Qinghui Ge,  G. Gidofalvi,  M. Goldey,  J. Gomes,  
 C. Gonzalez-Espinoza,  S. Gulania,  A. Gunina,  M. W. D. Hanson-Heine,  
 P. H. P. Harbach,  A. W. Hauser,  M. F. Herbst,  M. Hernandez Vera,  
 M. Hodecker,  Z. C. Holden,  S. Houck,  Xunkun Huang,  Kerwin Hui,  
 B. C. Huynh,  M. Ivanov,  Hyunjun Ji,  Hanjie Jiang,  B. Kaduk,  S. Kaehler,  
 K. Khistyaev,  Jaehoon Kim,  P. Klunzinger,  Z. Koczor-Benda,  
 Joong Hoon Koh,  D. Kosenkov,  L. Koulias,  T. Kowalczyk,  C. M. Krauter,  
 K. Kue,  A. Kunitsa,  T. Kus,  A. Landau,  K. V. Lawler,  D. Lefrancois,  
 S. Lehtola,  Rain Li,  Yi-Pei Li,  Jiashu Liang,  M. Liebenthal,  
 Hung-Hsuan Lin,  You-Sheng Lin,  Fenglai Liu,  Kuan-Yu Liu,  
 M. Loipersberger,  A. Luenser,  A. Manjanath,  P. Manohar,  E. Mansoor,  
 S. F. Manzer,  Shan-Ping Mao,  A. V. Marenich,  T. Markovich,  S. Mason,  
 S. A. Maurer,  P. F. McLaughlin,  M. F. S. J. Menger,  J.-M. Mewes,  
 S. A. Mewes,  P. Morgante,  J. W. Mullinax,  K. J. Oosterbaan,  G. Paran,  
 Alexander C. Paul,  Suranjan K. Paul,  F. Pavosevic,  Zheng Pei,  S. Prager,  
 E. I. Proynov,  E. Ramos,  B. Rana,  A. E. Rask,  A. Rettig,  R. M. Richard,  
 F. Rob,  E. Rossomme,  T. Scheele,  M. Scheurer,  M. Schneider,  
 N. Sergueev,  S. M. Sharada,  W. Skomorowski,  D. W. Small,  C. J. Stein,  
 Yu-Chuan Su,  E. J. Sundstrom,  Zhen Tao,  J. Thirman,  T. Tsuchimochi,  
 N. M. Tubman,  S. P. Veccham,  O. Vydrov,  J. Wenzel,  J. Witte,  A. Yamada,  
 Kun Yao,  S. Yeganeh,  S. R. Yost,  A. Zech,  Igor Ying Zhang,  Xing Zhang,  
 Yu Zhang,  D. Zuev,  A. Aspuru-Guzik,  A. T. Bell,  N. A. Besley,  
 K. B. Bravaya,  B. R. Brooks,  D. Casanova,  Jeng-Da Chai,  S. Coriani,  
 C. J. Cramer,  A. E. DePrince, III,  R. A. DiStasio Jr.,  A. Dreuw,  
 B. D. Dunietz,  T. R. Furlani,  W. A. Goddard III,  S. Grimme,  
 S. Hammes-Schiffer,  T. Head-Gordon,  W. J. Hehre,  Chao-Ping Hsu,  
 T.-C. Jagau,  Yousung Jung,  A. Klamt,  Jing Kong,  D. S. Lambrecht,  
 WanZhen Liang,  N. J. Mayhall,  C. W. McCurdy,  J. B. Neaton,  
 C. Ochsenfeld,  J. A. Parkhill,  R. Peverati,  V. A. Rassolov,  Yihan Shao,  
 L. V. Slipchenko,  T. Stauch,  R. P. Steele,  J. E. Subotnik,  
 A. J. W. Thom,  A. Tkatchenko,  D. G. Truhlar,  T. Van Voorhis,  
 T. A. Wesolowski,  K. B. Whaley,  H. L. Woodcock III,  P. M. Zimmerman,  
 S. Faraji,  P. M. W. Gill,  M. Head-Gordon,  J. M. Herbert,  A. I. Krylov

 Additional authors for Version 5.4.1: 
 S. Kotaru,  Shaozhi Li,  Xiangyuan Li,  F. Matz,  A. Molle,  Haisheng Ren,  
 Yingli Su,  Hung-Yi Tsai,  C. Utku,  Fang Wang

 Contributors to earlier versions of Q-Chem not listed above: 
 R. D. Adamson,  B. Austin,  R. Baer,  J. Baker,  G. J. O. Beran,  
 K. Brandhorst,  S. T. Brown,  E. F. C. Byrd,  A. K. Chakraborty,  
 G. K. L. Chan,  Chun-Min Chang,  Yunqing Chen,  C.-L. Cheng,  
 Siu Hung Chien,  D. M. Chipman,  D. L. Crittenden,  H. Dachsel,  
 R. J. Doerksen,  A. D. Dutoi,  R. G. Edgar,  J. Fosso-Tande,  
 L. Fusti-Molnar,  D. Ghosh,  A. Ghysels,  A. Golubeva-Zadorozhnaya,  
 J. Gonthier,  M. S. Gordon,  S. R. Gwaltney,  G. Hawkins,  J. E. Herr,  
 A. Heyden,  S. Hirata,  E. G. Hohenstein,  G. Kedziora,  F. J. Keil,  
 C. Kelley,  Jihan Kim,  R. A. King,  R. Z. Khaliullin,  P. P. Korambath,  
 W. Kurlancheek,  A. Laurent,  A. M. Lee,  M. S. Lee,  S. V. Levchenko,  
 Ching Yeh Lin,  D. Liotard,  E. Livshits,  R. C. Lochan,  I. Lotan,  
 L. A. Martinez-Martinez,  P. E. Maslen,  N. Nair,  D. P. O'Neill,  
 D. Neuhauser,  E. Neuscamman,  C. M. Oana,  R. Olivares-Amaya,  R. Olson,  
 T. M. Perrine,  B. Peters,  P. A. Pieniazek,  A. Prociuk,  Y. M. Rhee,  
 J. Ritchie,  M. A. Rohrdanz,  E. Rosta,  N. J. Russ,  H. F. Schaefer III,  
 M. W. Schmidt,  N. E. Schultz,  S. Sharma,  N. Shenvi,  C. D. Sherrill,  
 A. C. Simmonett,  A. Sodt,  T. Stein,  D. Stuck,  K. S. Thanthiriwatte,  
 V. Vanovschi,  L. Vogt,  Tao Wang,  A. Warshel,  M. A. Watson,  
 C. F. Williams,  Q. Wu,  X. Xu,  Jun Yang,  W. Zhang,  Yan Zhao

 Please cite Q-Chem as follows:
 Y. Shao et al., Mol. Phys. 113, 184-215 (2015)
 DOI: 10.1080/00268976.2014.952696

 Q-Chem 5.4.1 for Intel X86 EM64T Linux

 Parts of Q-Chem use Armadillo 9.900.5 (Nocturnal Misbehaviour).
 http://arma.sourceforge.net/

 Q-Chem begins on Tue Mar  1 22:23:33 2022  

 Host: node01
0

     Scratch files written to /src/jdavis/qchem.scratch/qchem17287//
 Processing $rem in /src/tsommerfeld/qchem/config/preferences:
 Processing $rem in /home/jdavis/.qchemrc:

 Checking the input file for inconsistencies... 	...done.

--------------------------------------------------------------
User input:
--------------------------------------------------------------
$molecule
-1 1
C        -0.6645000000    0.0000000000    3.6357614391
C         0.6645000000    0.0000000000    3.6357614391
H        -1.1590800000    0.0000000000    2.6734124391
H         1.1590800000    0.0000000000    2.6734124391
H        -1.1590800000    0.0000000000    4.5981094391
H         1.1590800000    0.0000000000    4.5981094391
O         0.0000000000    0.0000000000   -6.3644435413
H         0.0000000000    0.0000000000   -7.3299440706
$end
$rem
   METHOD adc(2)
   BASIS gen
   PURECART 11
   EE_STATES [10,0,0,0]
   scf_convergence 8
   ADC_DAVIDSON_MAXITER 120
   ADC_DAVIDSON_MAXSUBSPACE 200
   adc_nguess_singles 100
   THRESH 14
   S2THRESH 14
   adc_davidson_conv 5
   adc_davidson_thresh 14
   THREADS 10
   MEM_TOTAL 95000
   STATE_ANALYSIS TRUE
$end
$basis
C 1
S   9   1.00
      6.665000D+03           6.920000D-04
      1.000000D+03           5.329000D-03
      2.280000D+02           2.707700D-02
      6.471000D+01           1.017180D-01
      2.106000D+01           2.747400D-01
      7.495000D+00           4.485640D-01
      2.797000D+00           2.850740D-01
      5.215000D-01           1.520400D-02
      1.596000D-01          -3.191000D-03
S   9   1.00
      6.665000D+03          -1.460000D-04
      1.000000D+03          -1.154000D-03
      2.280000D+02          -5.725000D-03
      6.471000D+01          -2.331200D-02
      2.106000D+01          -6.395500D-02
      7.495000D+00          -1.499810D-01
      2.797000D+00          -1.272620D-01
      5.215000D-01           5.445290D-01
      1.596000D-01           5.804960D-01
S   1   1.00
      1.596000D-01           1.000000D+00
S   1   1.00
      0.0469000              1.0000000
P   4   1.00
      9.439000D+00           3.810900D-02
      2.002000D+00           2.094800D-01
      5.456000D-01           5.085570D-01
      1.517000D-01           4.688420D-01
P   1   1.00
      1.517000D-01           1.000000D+00
P   1   1.00
      0.0404533      1.0000000
P   1   1.00
      0.0202267      1.0000000
D   1   1.00
      5.500000D-01           1.0000000
****
C 2
S   9   1.00
      6.665000D+03           6.920000D-04
      1.000000D+03           5.329000D-03
      2.280000D+02           2.707700D-02
      6.471000D+01           1.017180D-01
      2.106000D+01           2.747400D-01
      7.495000D+00           4.485640D-01
      2.797000D+00           2.850740D-01
      5.215000D-01           1.520400D-02
      1.596000D-01          -3.191000D-03
S   9   1.00
      6.665000D+03          -1.460000D-04
      1.000000D+03          -1.154000D-03
      2.280000D+02          -5.725000D-03
      6.471000D+01          -2.331200D-02
      2.106000D+01          -6.395500D-02
      7.495000D+00          -1.499810D-01
      2.797000D+00          -1.272620D-01
      5.215000D-01           5.445290D-01
      1.596000D-01           5.804960D-01
S   1   1.00
      1.596000D-01           1.000000D+00
S   1   1.00
      0.0469000              1.0000000
P   4   1.00
      9.439000D+00           3.810900D-02
      2.002000D+00           2.094800D-01
      5.456000D-01           5.085570D-01
      1.517000D-01           4.688420D-01
P   1   1.00
      1.517000D-01           1.000000D+00
P   1   1.00
      0.0404533      1.0000000
P   1   1.00
      0.0202267      1.0000000
D   1   1.00
      5.500000D-01           1.0000000
****
H 3
cc-pVDZ
****
H 4
cc-pVDZ
****
H 5
cc-pVDZ
****
H 6
cc-pVDZ
****
O 7
aug-cc-pVDZ
****
H 8
cc-pVDZ
****
$end
--------------------------------------------------------------
 ----------------------------------------------------------------
             Standard Nuclear Orientation (Angstroms)
    I     Atom           X                Y                Z
 ----------------------------------------------------------------
    1      C      -0.6645000000    -0.0000000000     3.6386938941
    2      C       0.6645000000     0.0000000000     3.6386938941
    3      H      -1.1590800000    -0.0000000000     2.6763448941
    4      H       1.1590800000     0.0000000000     2.6763448941
    5      H      -1.1590800000    -0.0000000000     4.6010418941
    6      H       1.1590800000     0.0000000000     4.6010418941
    7      O       0.0000000000    -0.0000000000    -6.3615110863
    8      H       0.0000000000    -0.0000000000    -7.3270116156
 ----------------------------------------------------------------
 Molecular Point Group                 C2v   NOp =  4
 Largest Abelian Subgroup              C2v   NOp =  4
 Nuclear Repulsion Energy =          45.51143008 hartrees
 There are       13 alpha and       13 beta electrons
 Requested basis set is non-standard
 There are 42 shells and 90 basis functions
 Total memory of 95000 MB is distributed as follows: 
   MEM_STATIC is set to 192 MB
   QALLOC/CCMAN JOB total memory use is  94808 MB
 Warning: actual memory use might exceed 95000 MB

 Total QAlloc Memory Limit  95000 MB
 Mega-Array Size       188 MB
 MEM_STATIC part       192 MB

                       Distance Matrix (Angstroms)
             C (  1)   C (  2)   H (  3)   H (  4)   H (  5)   H (  6)
   C (  2)  1.329000
   H (  3)  1.082000  2.061931
   H (  4)  2.061931  1.082000  2.318160
   H (  5)  1.082000  2.061931  1.924697  3.013026
   H (  6)  2.061931  1.082000  3.013026  1.924697  2.318160
   O (  7) 10.022258 10.022258  9.111877  9.111877 11.023658 11.023658
   H (  8) 10.985821 10.985821 10.070283 10.070283 11.984237 11.984237
             O (  7)
   H (  8)  0.965501
 
 A cutoff of  1.0D-14 yielded    667 shell pairs
 There are      3043 function pairs (      3287 Cartesian)
 Smallest overlap matrix eigenvalue = 2.77E-04

 Scale SEOQF with 1.000000e-01/1.000000e-01/1.000000e-02

 Standard Electronic Orientation quadrupole field applied
 Nucleus-field energy     =    -0.0000000060 hartrees
 ================ Generating on-the-fly SAD Guess ================
Attempting to make child job directory: /src/jdavis/qchem.scratch/qchem17287//Frg1/
Attempting to make child job directory: /src/jdavis/qchem.scratch/qchem17287//Frg2/
Attempting to make child job directory: /src/jdavis/qchem.scratch/qchem17287//Frg3/
Creating input file /src/jdavis/qchem.scratch/qchem17287/Frg1.input
using default PutDataFrgm: nothing
calling putenv with: QCSCRATCH=/src/jdavis/qchem.scratch/qchem17287/ 
Spawning Job For Fragment 0
Done Job For Fragment 0
calling putenv with: QCSCRATCH=/src/jdavis/qchem.scratch 
calling putenv with: QCTHREADS=1 
Creating input file /src/jdavis/qchem.scratch/qchem17287/Frg2.input
using default PutDataFrgm: nothing
calling putenv with: QCSCRATCH=/src/jdavis/qchem.scratch/qchem17287/ 
Spawning Job For Fragment 1
Done Job For Fragment 1
calling putenv with: QCSCRATCH=/src/jdavis/qchem.scratch 
calling putenv with: QCTHREADS=1 
Creating input file /src/jdavis/qchem.scratch/qchem17287/Frg3.input
using default PutDataFrgm: nothing
calling putenv with: QCSCRATCH=/src/jdavis/qchem.scratch/qchem17287/ 
Spawning Job For Fragment 2
Done Job For Fragment 2
calling putenv with: QCSCRATCH=/src/jdavis/qchem.scratch 
calling putenv with: QCTHREADS=1 
 Time for running child jobs:  CPU 1.77 s  wall 80.39 s
 ============= Method Specific SAD Guess Constructed =============
 Guess from on-the-fly superposition of atomic densities
 Warning: Energy on first SCF cycle will be non-variational
 A restricted Hartree-Fock SCF calculation will be
 performed using Pulay DIIS extrapolation
 SCF converges when DIIS error is below 1.0E-08
 using 10 threads for integral computing
 -------------------------------------------------------
 OpenMP Integral computing Module                
 Release: version 1.0, May 2013, Q-Chem Inc. Pittsburgh 
 -------------------------------------------------------
 ---------------------------------------
  Cycle       Energy         DIIS Error
 ---------------------------------------
    1    -153.5131221015      5.94E-02
    2    -153.2824763767      1.22E-02
    3    -153.3444531568      1.06E-02
    4    -153.4322291026      6.43E-04
    5    -153.4329655552      1.83E-04
    6    -153.4330127290      3.79E-05
    7    -153.4330153113      9.04E-06
    8    -153.4330155789      2.55E-06
    9    -153.4330155995      4.36E-07
   10    -153.4330156000      5.30E-08
   11    -153.4330156000      8.86E-09 Convergence criterion met
 ---------------------------------------
 SCF time:  CPU 11.22 s  wall 1.13 s
 SCF   energy in the final basis set = -153.43301560
 Total energy in the final basis set = -153.43301560
================================================================================
|                                                                              |
|                                 A D C  M A N                                 |
|                                                                              |
 ------------------------------------------------------------------------------ 
|                                                                              |
| Components:                                                                  |
|                                                                              |
| - libvmm - 1.3-trunk                                                         |
|   Authors:                                                                   |
|   Evgeny Epifanovsky, Ilya Kaliman                                           |
|                                                                              |
| - libtensor - 2.5-trunk                                                      |
|   Authors:                                                                   |
|   Evgeny Epifanovsky, Michael Wormit, Dmitry Zuev, Sam Manzer,               |
|   Ilya Kaliman                                                               |
|                                                                              |
| - libwfa - 1.1-trunk                                                         |
|   Authors:                                                                   |
|   Felix Plasser, Stefanie Mewes (Baeppler), Benjamin Thomitzni,              |
|   Michael Wormit, Feng Chen, Anna I. Krylov, Pavel Pokhilko                  |
|                                                                              |
| - libadc - 1.1-trunk                                                         |
|   Authors:                                                                   |
|   Michael Wormit, Adrian L. Dempwolff, Philipp H. P. Harbach,                |
|   Caroline Krauter, Dirk Rehn, Matthias Schneider, Jan Wenzel                |
|                                                                              |
| - adcman - 2.6-trunk                                                         |
|   Authors:                                                                   |
|   Michael Wormit, Adrian L. Dempwolff, Philipp H. P. Harbach,                |
|   Caroline Krauter, Daniel Lefrancois, Jan-Michael Mewes, Dirk Rehn,         |
|   Matthias Schneider, Jan Wenzel, Andreas Dreuw                              |
|                                                                              |
| Authors of earlier versions of ADCMAN:                                       |
| Andreas Dreuw, Jan Hendrik Starcke, Dirk Rehn, Michael Wormit                |
|                                                                              |
================================================================================

 
 Alpha MOs, Restricted
 -- Occupied --                  
-20.198 -11.183 -11.181  -0.988  -0.905  -0.728  -0.607  -0.513
  1 A1    2 A1    1 B1    3 A1    4 A1    2 B1    5 A1    6 A1                 
 -0.461  -0.323  -0.252  -0.108  -0.108
  3 B1    1 B2    7 A1    2 B2    4 B1                                         
 -- Virtual --                   
  0.085   0.098   0.099   0.109   0.114   0.117   0.153   0.182
  5 B1    3 B2    8 A1    1 A2    9 A1    6 B1   10 A1    2 A2                 
  0.186   0.224   0.240   0.244   0.257   0.320   0.320   0.339
  7 B1   11 A1    8 B1    4 B2   12 A1   13 A1    3 A2    9 B1                 
  0.379   0.394   0.402   0.443   0.444   0.456   0.521   0.560
 14 A1   15 A1   10 B1    5 B2   11 B1   16 A1   12 B1   13 B1                 
  0.585   0.744   0.830   0.914   0.926   0.952   0.982   0.986
 17 A1   18 A1   19 A1   20 A1    6 B2   21 A1    4 A2   14 B1                 
  1.036   1.081   1.102   1.168   1.173   1.269   1.269   1.323
 15 B1   22 A1   16 B1    7 B2   23 A1    8 B2   17 B1    5 A2                 
  1.323   1.337   1.338   1.385   1.400   1.545   1.660   1.669
 24 A1    9 B2    6 A2   18 B1   19 B1   25 A1   26 A1   20 B1                 
  1.729   1.729   1.752   1.903   1.968   1.974   1.992   2.038
 10 B2   21 B1   27 A1    7 A2   22 B1   28 A1   11 B2   29 A1                 
  2.071   2.095   2.225   2.337   2.379   2.379   2.466   2.496
 12 B2   30 A1    8 A2   23 B1   13 B2   24 B1    9 A2   31 A1                 
  2.538   2.602   2.626   2.852   2.856   3.038   3.315   3.394
 32 A1   25 B1   26 B1   33 A1   34 A1   35 A1   27 B1   28 B1                 
  3.930   3.930   3.959   3.959   4.406
 14 B2   29 B1   10 A2   36 A1   37 A1                                         
 
 Beta MOs, Restricted
 -- Occupied --                  
-20.198 -11.183 -11.181  -0.988  -0.905  -0.728  -0.607  -0.513
  1 A1    2 A1    1 B1    3 A1    4 A1    2 B1    5 A1    6 A1                 
 -0.461  -0.323  -0.252  -0.108  -0.108
  3 B1    1 B2    7 A1    2 B2    4 B1                                         
 -- Virtual --                   
  0.085   0.098   0.099   0.109   0.114   0.117   0.153   0.182
  5 B1    3 B2    8 A1    1 A2    9 A1    6 B1   10 A1    2 A2                 
  0.186   0.224   0.240   0.244   0.257   0.320   0.320   0.339
  7 B1   11 A1    8 B1    4 B2   12 A1   13 A1    3 A2    9 B1                 
  0.379   0.394   0.402   0.443   0.444   0.456   0.521   0.560
 14 A1   15 A1   10 B1    5 B2   11 B1   16 A1   12 B1   13 B1                 
  0.585   0.744   0.830   0.914   0.926   0.952   0.982   0.986
 17 A1   18 A1   19 A1   20 A1    6 B2   21 A1    4 A2   14 B1                 
  1.036   1.081   1.102   1.168   1.173   1.269   1.269   1.323
 15 B1   22 A1   16 B1    7 B2   23 A1    8 B2   17 B1    5 A2                 
  1.323   1.337   1.338   1.385   1.400   1.545   1.660   1.669
 24 A1    9 B2    6 A2   18 B1   19 B1   25 A1   26 A1   20 B1                 
  1.729   1.729   1.752   1.903   1.968   1.974   1.992   2.038
 10 B2   21 B1   27 A1    7 A2   22 B1   28 A1   11 B2   29 A1                 
  2.071   2.095   2.225   2.337   2.379   2.379   2.466   2.496
 12 B2   30 A1    8 A2   23 B1   13 B2   24 B1    9 A2   31 A1                 
  2.538   2.602   2.626   2.852   2.856   3.038   3.315   3.394
 32 A1   25 B1   26 B1   33 A1   34 A1   35 A1   27 B1   28 B1                 
  3.930   3.930   3.959   3.959   4.406
 14 B2   29 B1   10 A2   36 A1   37 A1                                         

--------------------------------------------------------------------------------
                                   HF Summary                                   
--------------------------------------------------------------------------------
  Energy:                                                 -153.4330156000 a.u.
  Dip. moment [a.u.]:                  [   0.000000,    0.000000,   11.483009]
  Total dipole [Debye]:                                              29.186904
  <r^2> [a.u.]:                        [  55.260908,   19.511666, 2265.794297]
  Total <r^2> [a.u.]:                                              2340.566871
--------------------------------------------------------------------------------

--------------------------------------------------------------------------------
                                 MP(2) Summary                                  
--------------------------------------------------------------------------------
  MP energy contribution:                                   -0.5235934886 a.u.
  Total energy:                                           -153.9566090886 a.u.
  Dip. moment [a.u.]:                  [   0.000000,   -0.000000,   11.521638]
  Total dipole [Debye]:                                              29.285089
  <r^2> [a.u.]:                        [  56.215693,   20.211485, 2267.433502]
  Total <r^2> [a.u.]:                                              2343.860680

  Density matrix analysis:
  ------------------------
  NOs
    Occupation of frontier NOs:
       0.0446   1.9372
    Number of electrons: 26.000000
    Number of unpaired electrons: n_u =  0.71246, n_u,nl =  0.08514
    NO participation ratio (PR_NO): 22.898349
  
  
  Mulliken Population Analysis
  Atom      Charge (e)              h+              e-           Del q
  --------------------------------------------------------------------
   1 C       -0.169820        0.087912       -0.102211       -0.014298
   2 C       -0.169820        0.087912       -0.102211       -0.014298
   3 H        0.095693        0.017426       -0.010306        0.007120
   4 H        0.095693        0.017426       -0.010306        0.007120
   5 H        0.074109        0.017740       -0.010577        0.007164
   6 H        0.074109        0.017740       -0.010577        0.007164
   7 O       -1.023549        0.281962       -0.269733        0.012229
   8 H        0.023586        0.017736       -0.029936       -0.012200
  --------------------------------------------------------------------
  Sum:       -1.000000        0.545855       -0.545855        0.000000
  
  Multipole moment analysis of the density matrix
    Molecular charge:                      -1.000000
    Number of electrons:                   26.000000
      Center of electronic charge [Ang]: [ -0.000000,   0.000000,  -0.234500]
    Total nuclear charge:                  25.000000
      Center of nuclear charge [Ang]:    [ -0.000000,  -0.000000,   0.000000]
    Dipole moment [D]:                     29.285080
      Cartesian components [D]:          [  0.000000,  -0.000000,  29.285080]
    RMS size of the density [Ang]:         5.018880
      Cartesian components [Ang]:        [  0.778114,   0.466567,   4.936194]
  
  Exciton analysis of the difference density matrix
    <r_h> [Ang]:                  [ -0.000000,  -0.000000,  -1.864129]
    <r_e> [Ang]:                  [ -0.000000,   0.000000,  -1.901578]
    |<r_e - r_h>| [Ang]:            0.037449
    Hole size [Ang]:                5.150591
      Cartesian components [Ang]: [  0.825036,   0.712942,   5.033848]
    Electron size [Ang]:            5.298804
      Cartesian components [Ang]: [  1.081895,   0.931290,   5.102894]
--------------------------------------------------------------------------------
  Starting Davidson for singlet states of irrep A1 ... 
--------------------------------------------------------------------------------
   It NVec Conv  Avg. Norm  Max. Norm  Conv. states           Remark
--------------------------------------------------------------------------------
       100    0  1.576e-01  5.349e-01  0.2159 n n n n n n n n Guess.
    1  110    0  1.639e-02  5.902e-02  0.0374 n n n n n n n n 
    2  120    0  1.803e-03  9.601e-03  0.0360 n n n n n n n n 
    3  130    0  4.221e-04  2.866e-03  0.0360 n n n n n n n n 
    4  140    0  1.314e-02  1.314e-01  0.0360 n n n n n n n n 
    5  150    3  9.124e-03  9.124e-02  0.0360 y y y n n n n n 
    6  160    6  1.522e-03  1.522e-02  0.0360 y y y y y y n n 
    7  170    7  3.141e-04  3.141e-03  0.0360 y y y y y y n n 
    8  180    9  7.194e-05  7.194e-04  0.0360 y y y y y y y y 
    9  190    9  1.062e-05  1.061e-04  0.0360 y y y y y y y y 
   10  200    9  1.117e-06  1.117e-05  0.0360 y y y y y y y y 
   11   20   10  2.058e-07  2.058e-06  0.0360 y y y y y y y y Converged.
--------------------------------------------------------------------------------
  Davidson Summary: 
 ------------------------------------------------------------
  State  0: excitation energy =   0.0360 a.u.   (converged)
  State  1: excitation energy =   0.0452 a.u.   (converged)
  State  2: excitation energy =   0.0583 a.u.   (converged)
  State  3: excitation energy =   0.1279 a.u.   (converged)
  State  4: excitation energy =   0.1804 a.u.   (converged)
  State  5: excitation energy =   0.1823 a.u.   (converged)
  State  6: excitation energy =   0.1947 a.u.   (converged)
  State  7: excitation energy =   0.2155 a.u.   (converged)
  State  8: excitation energy =   0.2434 a.u.   (converged)
  State  9: excitation energy =   0.2463 a.u.   (converged)
 ------------------------------------------------------------


--------------------------------------------------------------------------------
                   State-averaged natural transition orbitals
--------------------------------------------------------------------------------
--------------------------------------------------------------------------------

--------------------------------------------------------------------------------
                             Excited State Summary
--------------------------------------------------------------------------------
--------------------------------------------------------------------------------

  Excited state 1 (singlet, A1)                                    [converged]
  ----------------------------------------------------------------------------
  Term symbol:  2 (1) A1                                    R^2 =  1.14642e-11

  Total energy:                                           -153.9205824334 a.u.
  Excitation energy:                                               0.980335 eV

  Osc. strength:                                                      0.000005
  Trans. dip. moment [a.u.]:           [  -0.000000,    0.000000,    0.013934]
  <i|r^2|0> [a.u.]:                    [  -0.097303,   -0.036614,    0.359936]

  Dip. moment [a.u.]:                  [  -0.000000,   -0.000000,   -8.373061]
  Total dipole [Debye]:                                              21.282203
  <r^2> [a.u.]:                        [ 110.738666,   38.298615, 2194.434859]
  Total <r^2> [a.u.]:                                              2343.472139

  V1^2 = 0.8533, V2^2 = 0.1467

  Important amplitudes:
      occ i      occ j       vir a       vir b          v   
    ---------------------------------------------------------
     4 (B1) A               5 (B1) A                 -0.6259
     4 (B1) A               6 (B1) A                  0.1849
    ---------------------------------------------------------

  Density matrix analysis:
  ------------------------
  NOs
    Occupation of frontier NOs:
       0.9560   0.9982
    Number of electrons: 26.000000
    Number of unpaired electrons: n_u =  2.75696, n_u,nl =  2.12193
    NO participation ratio (PR_NO):  3.910506
  
  
  Mulliken Population Analysis
  Atom      Charge (e)              h+              e-           Del q
  --------------------------------------------------------------------
   1 C       -0.668084        0.007386       -0.505649       -0.498263
   2 C       -0.668084        0.007386       -0.505649       -0.498263
   3 H        0.089610       -0.000161       -0.005922       -0.006083
   4 H        0.089610       -0.000161       -0.005922       -0.006083
   5 H        0.078470        0.006801       -0.002440        0.004361
   6 H        0.078470        0.006801       -0.002440        0.004361
   7 O       -0.140101        1.423204       -0.539757        0.883448
   8 H        0.140109        0.142302       -0.025779        0.116523
  --------------------------------------------------------------------
  Sum:       -1.000000        1.593557       -1.593557        0.000000
  
  Multipole moment analysis of the density matrix
    Molecular charge:                      -1.000000
    Number of electrons:                   26.000000
      Center of electronic charge [Ang]: [  0.000000,   0.000000,   0.170417]
    Total nuclear charge:                  25.000000
      Center of nuclear charge [Ang]:    [ -0.000000,  -0.000000,   0.000000]
    Dipole moment [D]:                     21.282197
      Cartesian components [D]:          [ -0.000000,  -0.000000, -21.282197]
    RMS size of the density [Ang]:         5.021048
      Cartesian components [Ang]:        [  1.092104,   0.642253,   4.858574]
  
  Exciton analysis of the difference density matrix
    <r_h> [Ang]:                  [  0.000000,  -0.000000,  -6.259458]
    <r_e> [Ang]:                  [  0.000000,   0.000000,   0.347035]
    |<r_e - r_h>| [Ang]:            6.606493
    Hole size [Ang]:                1.980586
      Cartesian components [Ang]: [  0.912846,   0.804214,   1.562905]
    Electron size [Ang]:            6.550941
      Cartesian components [Ang]: [  3.227129,   1.955794,   5.354936]

  Transition density matrix analysis:
  -----------------------------------
  
  CT numbers (Mulliken)
    omega =     0.8391
    <Phe> =     0.0000
  
  Exciton analysis of the transition density matrix
    Trans. dipole moment [D]:             0.017709
      Cartesian components [D]:         [ -0.000000,   0.000000,   0.017709]
    <r_h> [Ang]:                        [  0.000000,  -0.000000,  -6.397365]
    <r_e> [Ang]:                        [  0.000000,   0.000000,   4.072638]
    |<r_e - r_h>| [Ang]:                 10.470003
    Hole size [Ang]:                      1.092312
      Cartesian components [Ang]:       [  0.842490,   0.486413,   0.496748]
    Electron size [Ang]:                  5.247248
      Cartesian components [Ang]:       [  4.031615,   2.385563,   2.364059]
    RMS electron-hole separation [Ang]:  11.762035
      Cartesian components [Ang]:       [  4.118307,   2.434633,  10.745118]
    Covariance(r_h, r_e) [Ang^2]:         0.001127
    Correlation coefficient:              0.000197
    Center-of-mass size [Ang]:            2.679973
      Cartesian components [Ang]:       [  2.059549,   1.217331,   1.207731]

  Decomposition into state-averaged NTOs
    H- 0 -> L+ 5: -0.3903 ( 30.5%)
    H- 0 -> L+ 4: -0.3265 ( 21.3%)
    H- 0 -> L+ 1: -0.3139 ( 19.7%)
    H- 0 -> L+ 7: -0.2491 ( 12.4%)
                   omega =  83.9%
  ----------------------------------------------------------------------------


  Excited state 2 (singlet, A1)                                    [converged]
  ----------------------------------------------------------------------------
  Term symbol:  3 (1) A1                                    R^2 =  1.09149e-11

  Total energy:                                           -153.9114521364 a.u.
  Excitation energy:                                               1.228783 eV

  Osc. strength:                                                      0.000022
  Trans. dip. moment [a.u.]:           [  -0.000000,   -0.000000,    0.027321]
  <i|r^2|0> [a.u.]:                    [  -0.029018,   -0.090885,    0.214399]

  Dip. moment [a.u.]:                  [   0.000000,    0.000000,   -7.552542]
  Total dipole [Debye]:                                              19.196651
  <r^2> [a.u.]:                        [  72.137742,   69.128131, 2180.041260]
  Total <r^2> [a.u.]:                                              2321.307133

  V1^2 = 0.8544, V2^2 = 0.1456

  Important amplitudes:
      occ i      occ j       vir a       vir b          v   
    ---------------------------------------------------------
     2 (B2) A               3 (B2) A                 -0.6534
     2 (B2) A   2 (B2) B    3 (B2) A    5 (B2) B     -0.0669
    ---------------------------------------------------------

  Density matrix analysis:
  ------------------------
  NOs
    Occupation of frontier NOs:
       0.9561   0.9993
    Number of electrons: 26.000000
    Number of unpaired electrons: n_u =  2.75421, n_u,nl =  2.12116
    NO participation ratio (PR_NO):  3.898424
  
  
  Mulliken Population Analysis
  Atom      Charge (e)              h+              e-           Del q
  --------------------------------------------------------------------
   1 C       -0.657216        0.012198       -0.499594       -0.487395
   2 C       -0.657216        0.012198       -0.499594       -0.487395
   3 H        0.084211       -0.000715       -0.010767       -0.011482
   4 H        0.084211       -0.000715       -0.010767       -0.011482
   5 H        0.072998        0.000260       -0.001371       -0.001111
   6 H        0.072998        0.000260       -0.001371       -0.001111
   7 O       -0.139885        1.423529       -0.539865        0.883664
   8 H        0.139899        0.142022       -0.025709        0.116314
  --------------------------------------------------------------------
  Sum:       -1.000000        1.589038       -1.589038        0.000000
  
  Multipole moment analysis of the density matrix
    Molecular charge:                      -1.000000
    Number of electrons:                   26.000000
      Center of electronic charge [Ang]: [ -0.000000,  -0.000000,   0.153717]
    Total nuclear charge:                  25.000000
      Center of nuclear charge [Ang]:    [ -0.000000,  -0.000000,   0.000000]
    Dipole moment [D]:                     19.196645
      Cartesian components [D]:          [  0.000000,   0.000000, -19.196645]
    RMS size of the density [Ang]:         4.997760
      Cartesian components [Ang]:        [  0.881446,   0.862863,   4.843153]
  
  Exciton analysis of the difference density matrix
    <r_h> [Ang]:                  [  0.000000,   0.000000,  -6.292681]
    <r_e> [Ang]:                  [ -0.000000,  -0.000000,   0.059353]
    |<r_e - r_h>| [Ang]:            6.352034
    Hole size [Ang]:                1.880490
      Cartesian components [Ang]: [  0.811848,   0.904213,   1.435111]
    Electron size [Ang]:            6.257479
      Cartesian components [Ang]: [  1.861441,   3.072124,   5.123782]

  Transition density matrix analysis:
  -----------------------------------
  
  CT numbers (Mulliken)
    omega =     0.8400
    <Phe> =     0.0000
  
  Exciton analysis of the transition density matrix
    Trans. dipole moment [D]:             0.034722
      Cartesian components [D]:         [ -0.000000,  -0.000000,   0.034722]
    <r_h> [Ang]:                        [  0.000000,  -0.000000,  -6.397391]
    <r_e> [Ang]:                        [ -0.000000,  -0.000000,   3.638432]
    |<r_e - r_h>| [Ang]:                 10.035823
    Hole size [Ang]:                      1.092171
      Cartesian components [Ang]:       [  0.486307,   0.842301,   0.496862]
    Electron size [Ang]:                  4.964381
      Cartesian components [Ang]:       [  2.251559,   3.831432,   2.212621]
    RMS electron-hole separation [Ang]:  11.249747
      Cartesian components [Ang]:       [  2.303462,   3.922810,  10.288947]
    Covariance(r_h, r_e) [Ang^2]:        -0.000576
    Correlation coefficient:             -0.000106
    Center-of-mass size [Ang]:            2.541494
      Cartesian components [Ang]:       [  1.151748,   1.961520,   1.133626]

  Decomposition into state-averaged NTOs
    H- 2 -> L+ 3: -0.6155 ( 75.8%)
    H- 2 -> L+ 8: -0.2030 (  8.2%)
                   omega =  84.0%
  ----------------------------------------------------------------------------


  Excited state 3 (singlet, A1)                                    [converged]
  ----------------------------------------------------------------------------
  Term symbol:  4 (1) A1                                    R^2 =  1.75348e-11

  Total energy:                                           -153.8983577494 a.u.
  Excitation energy:                                               1.585100 eV

  Osc. strength:                                                      0.000196
  Trans. dip. moment [a.u.]:           [  -0.000000,   -0.000000,   -0.070987]
  <i|r^2|0> [a.u.]:                    [   0.264887,    0.079418,   -0.725272]

  Dip. moment [a.u.]:                  [  -0.000000,   -0.000000,   -6.782007]
  Total dipole [Debye]:                                              17.238146
  <r^2> [a.u.]:                        [ 102.308465,   34.166084, 2200.687142]
  Total <r^2> [a.u.]:                                              2337.161690

  V1^2 = 0.8561, V2^2 = 0.1439

  Important amplitudes:
      occ i      occ j       vir a       vir b          v   
    ---------------------------------------------------------
     4 (B1) A               6 (B1) A                 -0.6275
     4 (B1) A               5 (B1) A                 -0.1822
    ---------------------------------------------------------

  Density matrix analysis:
  ------------------------
  NOs
    Occupation of frontier NOs:
       0.9539   1.0021
    Number of electrons: 26.000000
    Number of unpaired electrons: n_u =  2.74868, n_u,nl =  2.11995
    NO participation ratio (PR_NO):  3.897046
  
  
  Mulliken Population Analysis
  Atom      Charge (e)              h+              e-           Del q
  --------------------------------------------------------------------
   1 C       -0.648608        0.001101       -0.479888       -0.478787
   2 C       -0.648608        0.001101       -0.479888       -0.478787
   3 H        0.079001        0.000504       -0.017196       -0.016692
   4 H        0.079001        0.000504       -0.017196       -0.016692
   5 H        0.069671        0.004907       -0.009344       -0.004438
   6 H        0.069671        0.004907       -0.009344       -0.004438
   7 O       -0.139065        1.422723       -0.538238        0.884484
   8 H        0.138935        0.140756       -0.025407        0.115349
  --------------------------------------------------------------------
  Sum:       -1.000000        1.576503       -1.576503       -0.000000
  
  Multipole moment analysis of the density matrix
    Molecular charge:                      -1.000000
    Number of electrons:                   26.000000
      Center of electronic charge [Ang]: [  0.000000,   0.000000,   0.138034]
    Total nuclear charge:                  25.000000
      Center of nuclear charge [Ang]:    [ -0.000000,  -0.000000,   0.000000]
    Dipole moment [D]:                     17.238141
      Cartesian components [D]:          [ -0.000000,  -0.000000, -17.238141]
    RMS size of the density [Ang]:         5.015271
      Cartesian components [Ang]:        [  1.049712,   0.606613,   4.866525]
  
  Exciton analysis of the difference density matrix
    <r_h> [Ang]:                  [  0.000000,  -0.000000,  -6.352629]
    <r_e> [Ang]:                  [  0.000000,  -0.000000,  -0.208732]
    |<r_e - r_h>| [Ang]:            6.143897
    Hole size [Ang]:                1.724500
      Cartesian components [Ang]: [  0.908214,   0.804965,   1.225186]
    Electron size [Ang]:            6.488167
      Cartesian components [Ang]: [  3.002023,   1.768240,   5.473343]

  Transition density matrix analysis:
  -----------------------------------
  
  CT numbers (Mulliken)
    omega =     0.8419
    <Phe> =     0.0000
  
  Exciton analysis of the transition density matrix
    Trans. dipole moment [D]:             0.090215
      Cartesian components [D]:         [ -0.000000,  -0.000000,  -0.090215]
    <r_h> [Ang]:                        [  0.000000,  -0.000000,  -6.397336]
    <r_e> [Ang]:                        [  0.000000,   0.000000,   3.216760]
    |<r_e - r_h>| [Ang]:                  9.614096
    Hole size [Ang]:                      1.091795
      Cartesian components [Ang]:       [  0.842181,   0.486239,   0.496306]
    Electron size [Ang]:                  5.644973
      Cartesian components [Ang]:       [  3.726364,   2.129001,   3.667054]
    RMS electron-hole separation [Ang]:  11.202005
      Cartesian components [Ang]:       [  3.819791,   2.183820,  10.301701]
    Covariance(r_h, r_e) [Ang^2]:         0.001828
    Correlation coefficient:              0.000297
    Center-of-mass size [Ang]:            2.874952
      Cartesian components [Ang]:       [  1.910452,   1.091911,   1.850203]

  Decomposition into state-averaged NTOs
    H- 0 -> L+ 1:  0.5145 ( 52.9%)
    H- 0 -> L+ 5: -0.3931 ( 30.9%)
                   omega =  84.2%
  ----------------------------------------------------------------------------


  Excited state 4 (singlet, A1)                                    [converged]
  ----------------------------------------------------------------------------
  Term symbol:  5 (1) A1                                    R^2 =  1.11207e-10

  Total energy:                                           -153.8287297840 a.u.
  Excitation energy:                                               3.479773 eV

  Osc. strength:                                                      0.000026
  Trans. dip. moment [a.u.]:           [  -0.000000,    0.000000,    0.017395]
  <i|r^2|0> [a.u.]:                    [  -0.132357,   -0.038154,    0.379170]

  Dip. moment [a.u.]:                  [  -0.000000,   -0.000000,   -7.626824]
  Total dipole [Debye]:                                              19.385458
  <r^2> [a.u.]:                        [ 102.243545,   32.057581, 2178.349091]
  Total <r^2> [a.u.]:                                              2312.650217

  V1^2 = 0.8511, V2^2 = 0.1489

  Important amplitudes:
      occ i      occ j       vir a       vir b          v   
    ---------------------------------------------------------
     4 (B1) A               7 (B1) A                  0.6469
     4 (B1) A   4 (B1) B    7 (B1) A   11 (B1) B      0.0657
    ---------------------------------------------------------

  Density matrix analysis:
  ------------------------
  NOs
    Occupation of frontier NOs:
       0.9558   0.9948
    Number of electrons: 26.000000
    Number of unpaired electrons: n_u =  2.76274, n_u,nl =  2.12356
    NO participation ratio (PR_NO):  3.940794
  
  
  Mulliken Population Analysis
  Atom      Charge (e)              h+              e-           Del q
  --------------------------------------------------------------------
   1 C       -0.604268        0.020313       -0.454760       -0.434448
   2 C       -0.604268        0.020313       -0.454760       -0.434448
   3 H        0.055143        0.001517       -0.042067       -0.040550
   4 H        0.055143        0.001517       -0.042067       -0.040550
   5 H        0.049169        0.004839       -0.029779       -0.024940
   6 H        0.049169        0.004839       -0.029779       -0.024940
   7 O       -0.139110        1.417964       -0.533525        0.884439
   8 H        0.139023        0.140857       -0.025420        0.115437
  --------------------------------------------------------------------
  Sum:       -1.000000        1.612159       -1.612159        0.000000
  
  Multipole moment analysis of the density matrix
    Molecular charge:                      -1.000000
    Number of electrons:                   26.000000
      Center of electronic charge [Ang]: [  0.000000,   0.000000,   0.155229]
    Total nuclear charge:                  25.000000
      Center of nuclear charge [Ang]:    [ -0.000000,  -0.000000,   0.000000]
    Dipole moment [D]:                     19.385452
      Cartesian components [D]:          [ -0.000000,  -0.000000, -19.385452]
    RMS size of the density [Ang]:         4.988377
      Cartesian components [Ang]:        [  1.049379,   0.587597,   4.841223]
  
  Exciton analysis of the difference density matrix
    <r_h> [Ang]:                  [  0.000000,  -0.000000,  -6.107466]
    <r_e> [Ang]:                  [  0.000000,   0.000000,   0.177853]
    |<r_e - r_h>| [Ang]:            6.285319
    Hole size [Ang]:                2.308511
      Cartesian components [Ang]: [  0.918776,   0.802881,   1.959708]
    Electron size [Ang]:            6.097338
      Cartesian components [Ang]: [  2.973061,   1.643855,   5.063219]

  Transition density matrix analysis:
  -----------------------------------
  
  CT numbers (Mulliken)
    omega =     0.8364
    <Phe> =    -0.0000
  
  Exciton analysis of the transition density matrix
    Trans. dipole moment [D]:             0.022107
      Cartesian components [D]:         [  0.000000,   0.000000,   0.022107]
    <r_h> [Ang]:                        [  0.000000,  -0.000000,  -6.397192]
    <r_e> [Ang]:                        [  0.000000,   0.000000,   3.675922]
    |<r_e - r_h>| [Ang]:                 10.073114
    Hole size [Ang]:                      1.092513
      Cartesian components [Ang]:       [  0.842139,   0.486208,   0.497983]
    Electron size [Ang]:                  4.683372
      Cartesian components [Ang]:       [  3.729424,   1.981239,   2.024861]
    RMS electron-hole separation [Ang]:  11.162267
      Cartesian components [Ang]:       [  3.822968,   2.040015,  10.286859]
    Covariance(r_h, r_e) [Ang^2]:        -0.000518
    Correlation coefficient:             -0.000101
    Center-of-mass size [Ang]:            2.404502
      Cartesian components [Ang]:       [  1.911840,   1.020018,   1.042143]

  Decomposition into state-averaged NTOs
    H- 0 -> L+ 7:  0.5141 ( 52.9%)
    H- 0 -> L+ 5: -0.3029 ( 18.4%)
    H- 0 -> L+ 1: -0.1953 (  7.6%)
    H- 0 -> L+ 4:  0.1548 (  4.8%)
                   omega =  83.6%
  ----------------------------------------------------------------------------


  Excited state 5 (singlet, A1)                                    [converged]
  ----------------------------------------------------------------------------
  Term symbol:  6 (1) A1                                    R^2 =  4.18112e-10

  Total energy:                                           -153.7761692985 a.u.
  Excitation energy:                                               4.910016 eV

  Osc. strength:                                                      0.000198
  Trans. dip. moment [a.u.]:           [   0.000000,   -0.000000,    0.040582]
  <i|r^2|0> [a.u.]:                    [  -0.270392,   -0.050603,    0.496863]

  Dip. moment [a.u.]:                  [   0.000000,    0.000000,   -7.399649]
  Total dipole [Debye]:                                              18.808035
  <r^2> [a.u.]:                        [  81.752092,   28.435225, 2189.774700]
  Total <r^2> [a.u.]:                                              2299.962016

  V1^2 = 0.8531, V2^2 = 0.1469

  Important amplitudes:
      occ i      occ j       vir a       vir b          v   
    ---------------------------------------------------------
     4 (B1) A               8 (B1) A                  0.6492
     4 (B1) A   4 (B1) B    8 (B1) A   11 (B1) B      0.0658
    ---------------------------------------------------------

  Density matrix analysis:
  ------------------------
  NOs
    Occupation of frontier NOs:
       0.9528   0.9999
    Number of electrons: 26.000000
    Number of unpaired electrons: n_u =  2.75796, n_u,nl =  2.12130
    NO participation ratio (PR_NO):  3.918892
  
  
  Mulliken Population Analysis
  Atom      Charge (e)              h+              e-           Del q
  --------------------------------------------------------------------
   1 C       -0.881197        0.009429       -0.720806       -0.711377
   2 C       -0.881197        0.009429       -0.720806       -0.711377
   3 H        0.199672        0.001376        0.102603        0.103979
   4 H        0.199672        0.001376        0.102603        0.103979
   5 H        0.182202        0.006160        0.101933        0.108093
   6 H        0.182202        0.006160        0.101933        0.108093
   7 O       -0.139854        1.418830       -0.535134        0.883696
   8 H        0.138501        0.140180       -0.025264        0.114915
  --------------------------------------------------------------------
  Sum:       -1.000000        1.592939       -1.592939        0.000000
  
  Multipole moment analysis of the density matrix
    Molecular charge:                      -1.000000
    Number of electrons:                   26.000000
      Center of electronic charge [Ang]: [ -0.000000,  -0.000000,   0.150605]
    Total nuclear charge:                  25.000000
      Center of nuclear charge [Ang]:    [ -0.000000,  -0.000000,   0.000000]
    Dipole moment [D]:                     18.808029
      Cartesian components [D]:          [  0.000000,   0.000000, -18.808029]
    RMS size of the density [Ang]:         4.974803
      Cartesian components [Ang]:        [  0.938348,   0.553405,   4.854061]
  
  Exciton analysis of the difference density matrix
    <r_h> [Ang]:                  [  0.000000,  -0.000000,  -6.222417]
    <r_e> [Ang]:                  [ -0.000000,  -0.000000,   0.063268]
    |<r_e - r_h>| [Ang]:            6.285685
    Hole size [Ang]:                2.059629
      Cartesian components [Ang]: [  0.910122,   0.806283,   1.662425]
    Electron size [Ang]:            5.936282
      Cartesian components [Ang]: [  2.305961,   1.447679,   5.275055]

  Transition density matrix analysis:
  -----------------------------------
  
  CT numbers (Mulliken)
    omega =     0.8381
    <Phe> =    -0.0000
  
  Exciton analysis of the transition density matrix
    Trans. dipole moment [D]:             0.051574
      Cartesian components [D]:         [ -0.000000,  -0.000000,   0.051574]
    <r_h> [Ang]:                        [  0.000000,  -0.000000,  -6.397206]
    <r_e> [Ang]:                        [ -0.000000,  -0.000000,   3.551516]
    |<r_e - r_h>| [Ang]:                  9.948722
    Hole size [Ang]:                      1.092250
      Cartesian components [Ang]:       [  0.842047,   0.486206,   0.497567]
    Electron size [Ang]:                  4.385235
      Cartesian components [Ang]:       [  2.850402,   1.706203,   2.862580]
    RMS electron-hole separation [Ang]:  10.927124
      Cartesian components [Ang]:       [  2.971957,   1.774127,  10.364458]
    Covariance(r_h, r_e) [Ang^2]:        -0.000840
    Correlation coefficient:             -0.000175
    Center-of-mass size [Ang]:            2.259514
      Cartesian components [Ang]:       [  1.486198,   0.887063,   1.452494]

  Decomposition into state-averaged NTOs
    H- 0 -> L+ 4:  0.5373 ( 57.7%)
    H- 0 -> L+ 7: -0.2987 ( 17.8%)
    H- 0 -> L+ 1: -0.1442 (  4.2%)
    H- 0 -> L+ 5: -0.1425 (  4.1%)
                   omega =  83.8%
  ----------------------------------------------------------------------------


  Excited state 6 (singlet, A1)                                    [converged]
  ----------------------------------------------------------------------------
  Term symbol:  7 (1) A1                                    R^2 =  3.29222e-10

  Total energy:                                           -153.7743562282 a.u.
  Excitation energy:                                               4.959353 eV

  Osc. strength:                                                      0.000028
  Trans. dip. moment [a.u.]:           [   0.000000,    0.000000,    0.015281]
  <i|r^2|0> [a.u.]:                    [  -0.018152,   -0.094664,    0.163816]

  Dip. moment [a.u.]:                  [   0.000000,   -0.000000,   -7.548398]
  Total dipole [Debye]:                                              19.186119
  <r^2> [a.u.]:                        [  64.560358,   46.671617, 2172.885140]
  Total <r^2> [a.u.]:                                              2284.117115

  V1^2 = 0.8503, V2^2 = 0.1497

  Important amplitudes:
      occ i      occ j       vir a       vir b          v   
    ---------------------------------------------------------
     2 (B2) A               4 (B2) A                  0.6516
     2 (B2) A   2 (B2) B    4 (B2) A    5 (B2) B      0.0659
    ---------------------------------------------------------

  Density matrix analysis:
  ------------------------
  NOs
    Occupation of frontier NOs:
       0.9561   0.9948
    Number of electrons: 26.000000
    Number of unpaired electrons: n_u =  2.75982, n_u,nl =  2.12291
    NO participation ratio (PR_NO):  3.931419
  
  
  Mulliken Population Analysis
  Atom      Charge (e)              h+              e-           Del q
  --------------------------------------------------------------------
   1 C       -0.624706        0.044471       -0.499357       -0.454886
   2 C       -0.624706        0.044471       -0.499357       -0.454886
   3 H        0.068279       -0.001182       -0.026232       -0.027414
   4 H        0.068279       -0.001182       -0.026232       -0.027414
   5 H        0.056491       -0.000965       -0.016653       -0.017618
   6 H        0.056491       -0.000965       -0.016653       -0.017618
   7 O       -0.138580        1.415854       -0.530885        0.884969
   8 H        0.138453        0.140099       -0.025232        0.114867
  --------------------------------------------------------------------
  Sum:       -1.000000        1.640601       -1.640601        0.000000
  
  Multipole moment analysis of the density matrix
    Molecular charge:                      -1.000000
    Number of electrons:                   26.000000
      Center of electronic charge [Ang]: [ -0.000000,   0.000000,   0.153632]
    Total nuclear charge:                  25.000000
      Center of nuclear charge [Ang]:    [ -0.000000,  -0.000000,   0.000000]
    Dipole moment [D]:                     19.186113
      Cartesian components [D]:          [  0.000000,  -0.000000, -19.186113]
    RMS size of the density [Ang]:         4.957528
      Cartesian components [Ang]:        [  0.833868,   0.708991,   4.835192]
  
  Exciton analysis of the difference density matrix
    <r_h> [Ang]:                  [ -0.000000,  -0.000000,  -5.922144]
    <r_e> [Ang]:                  [ -0.000000,   0.000000,   0.228912]
    |<r_e - r_h>| [Ang]:            6.151056
    Hole size [Ang]:                2.646561
      Cartesian components [Ang]: [  0.819736,   0.897698,   2.350842]
    Electron size [Ang]:            5.641476
      Cartesian components [Ang]: [  1.447857,   2.307000,   4.940416]

  Transition density matrix analysis:
  -----------------------------------
  
  CT numbers (Mulliken)
    omega =     0.8346
    <Phe> =     0.0002
  
  Exciton analysis of the transition density matrix
    Trans. dipole moment [D]:             0.019421
      Cartesian components [D]:         [ -0.000000,   0.000000,   0.019421]
    <r_h> [Ang]:                        [  0.000000,  -0.000000,  -6.396428]
    <r_e> [Ang]:                        [ -0.000000,   0.000000,   3.635812]
    |<r_e - r_h>| [Ang]:                 10.032239
    Hole size [Ang]:                      1.095893
      Cartesian components [Ang]:       [  0.486095,   0.841871,   0.505911]
    Electron size [Ang]:                  3.751672
      Cartesian components [Ang]:       [  1.689921,   2.896971,   1.681301]
    RMS electron-hole separation [Ang]:  10.767611
      Cartesian components [Ang]:       [  1.758428,   3.016636,  10.185740]
    Covariance(r_h, r_e) [Ang^2]:        -0.009802
    Correlation coefficient:             -0.002384
    Center-of-mass size [Ang]:            1.952973
      Cartesian components [Ang]:       [  0.879229,   1.508499,   0.874925]

  Decomposition into state-averaged NTOs
    H- 2 -> L+ 8:  0.6130 ( 75.1%)
    H- 2 -> L+ 3: -0.2038 (  8.3%)
                   omega =  83.5%
  ----------------------------------------------------------------------------


  Excited state 7 (singlet, A1)                                    [converged]
  ----------------------------------------------------------------------------
  Term symbol:  8 (1) A1                                    R^2 =  7.55641e-09

  Total energy:                                           -153.7618707192 a.u.
  Excitation energy:                                               5.299101 eV

  Osc. strength:                                                      0.000312
  Trans. dip. moment [a.u.]:           [  -0.000000,   -0.000000,   -0.049026]
  <i|r^2|0> [a.u.]:                    [   0.023468,    0.023636,   -1.019601]

  Dip. moment [a.u.]:                  [   0.000000,   -0.000000,   -7.657419]
  Total dipole [Debye]:                                              19.463221
  <r^2> [a.u.]:                        [  72.413338,   35.234072, 2214.889005]
  Total <r^2> [a.u.]:                                              2322.536414

  V1^2 = 0.8598, V2^2 = 0.1402

  Important amplitudes:
      occ i      occ j       vir a       vir b          v   
    ---------------------------------------------------------
     7 (A1) A               8 (A1) A                 -0.6388
     7 (A1) A               9 (A1) A                  0.1242
    ---------------------------------------------------------

  Density matrix analysis:
  ------------------------
  NOs
    Occupation of frontier NOs:
       0.9718   1.0007
    Number of electrons: 26.000000
    Number of unpaired electrons: n_u =  2.80034, n_u,nl =  2.13852
    NO participation ratio (PR_NO):  3.960105
  
  
  Mulliken Population Analysis
  Atom      Charge (e)              h+              e-           Del q
  --------------------------------------------------------------------
   1 C       -0.645245        0.005448       -0.480872       -0.475424
   2 C       -0.645245        0.005448       -0.480872       -0.475424
   3 H        0.078045        0.000348       -0.017997       -0.017648
   4 H        0.078045        0.000348       -0.017997       -0.017648
   5 H        0.067861        0.007225       -0.013473       -0.006248
   6 H        0.067861        0.007225       -0.013473       -0.006248
   7 O       -0.323132        1.245946       -0.545529        0.700417
   8 H        0.321811        0.316664       -0.018439        0.298225
  --------------------------------------------------------------------
  Sum:       -1.000000        1.588651       -1.588651       -0.000000
  
  Multipole moment analysis of the density matrix
    Molecular charge:                      -1.000000
    Number of electrons:                   26.000000
      Center of electronic charge [Ang]: [ -0.000000,   0.000000,   0.155851]
    Total nuclear charge:                  25.000000
      Center of nuclear charge [Ang]:    [ -0.000000,  -0.000000,   0.000000]
    Dipole moment [D]:                     19.463216
      Cartesian components [D]:          [  0.000000,  -0.000000, -19.463216]
    RMS size of the density [Ang]:         4.999019
      Cartesian components [Ang]:        [  0.883128,   0.616022,   4.881679]
  
  Exciton analysis of the difference density matrix
    <r_h> [Ang]:                  [ -0.000000,  -0.000000,  -6.271339]
    <r_e> [Ang]:                  [ -0.000000,  -0.000000,   0.117175]
    |<r_e - r_h>| [Ang]:            6.388515
    Hole size [Ang]:                1.943386
      Cartesian components [Ang]: [  0.790714,   0.782950,   1.593270]
    Electron size [Ang]:            6.271677
      Cartesian components [Ang]: [  1.865571,   1.805828,   5.708989]

  Transition density matrix analysis:
  -----------------------------------
  
  CT numbers (Mulliken)
    omega =     0.8434
    <Phe> =    -0.0000
  
  Exciton analysis of the transition density matrix
    Trans. dipole moment [D]:             0.062305
      Cartesian components [D]:         [  0.000000,  -0.000000,  -0.062305]
    <r_h> [Ang]:                        [  0.000000,  -0.000000,  -6.442561]
    <r_e> [Ang]:                        [ -0.000000,   0.000000,   3.694151]
    |<r_e - r_h>| [Ang]:                 10.136712
    Hole size [Ang]:                      1.006086
      Cartesian components [Ang]:       [  0.420631,   0.420628,   0.811388]
    Electron size [Ang]:                  4.945274
      Cartesian components [Ang]:       [  2.258130,   2.186426,   3.817870]
    RMS electron-hole separation [Ang]:  11.323665
      Cartesian components [Ang]:       [  2.297193,   2.226536,  10.862358]
    Covariance(r_h, r_e) [Ang^2]:        -0.002251
    Correlation coefficient:             -0.000452
    Center-of-mass size [Ang]:            2.523066
      Cartesian components [Ang]:       [  1.148376,   1.113251,   1.951350]

  Decomposition into state-averaged NTOs
    H- 1 -> L+ 0: -0.5800 ( 67.3%)
    H- 1 -> L+ 2:  0.2537 ( 12.9%)
    H- 1 -> L+ 6: -0.1447 (  4.2%)
                   omega =  84.3%
  ----------------------------------------------------------------------------


  Excited state 8 (singlet, A1)                                    [converged]
  ----------------------------------------------------------------------------
  Term symbol:  9 (1) A1                                    R^2 =  1.21460e-08

  Total energy:                                           -153.7411565036 a.u.
  Excitation energy:                                               5.862763 eV

  Osc. strength:                                                      0.000030
  Trans. dip. moment [a.u.]:           [   0.000000,   -0.000000,    0.014422]
  <i|r^2|0> [a.u.]:                    [   0.004035,   -0.004710,    0.298453]

  Dip. moment [a.u.]:                  [   0.000000,    0.000000,   -7.515523]
  Total dipole [Debye]:                                              19.102557
  <r^2> [a.u.]:                        [ 124.724309,   34.199996, 2177.193008]
  Total <r^2> [a.u.]:                                              2336.117313

  V1^2 = 0.8580, V2^2 = 0.1420

  Important amplitudes:
      occ i      occ j       vir a       vir b          v   
    ---------------------------------------------------------
     7 (A1) A               9 (A1) A                 -0.6412
     7 (A1) A               8 (A1) A                 -0.1247
    ---------------------------------------------------------

  Density matrix analysis:
  ------------------------
  NOs
    Occupation of frontier NOs:
       0.9735   0.9990
    Number of electrons: 26.000000
    Number of unpaired electrons: n_u =  2.80445, n_u,nl =  2.14010
    NO participation ratio (PR_NO):  3.965425
  
  
  Mulliken Population Analysis
  Atom      Charge (e)              h+              e-           Del q
  --------------------------------------------------------------------
   1 C       -0.670731        0.005849       -0.506760       -0.500911
   2 C       -0.670731        0.005849       -0.506760       -0.500911
   3 H        0.090638       -0.000015       -0.005040       -0.005055
   4 H        0.090638       -0.000015       -0.005040       -0.005055
   5 H        0.080169        0.005056        0.001004        0.006060
   6 H        0.080169        0.005056        0.001004        0.006060
   7 O       -0.323383        1.249507       -0.549341        0.700166
   8 H        0.323232        0.318139       -0.018493        0.299646
  --------------------------------------------------------------------
  Sum:       -1.000000        1.589425       -1.589425        0.000000
  
  Multipole moment analysis of the density matrix
    Molecular charge:                      -1.000000
    Number of electrons:                   26.000000
      Center of electronic charge [Ang]: [ -0.000000,  -0.000000,   0.152963]
    Total nuclear charge:                  25.000000
      Center of nuclear charge [Ang]:    [ -0.000000,  -0.000000,   0.000000]
    Dipole moment [D]:                     19.102551
      Cartesian components [D]:          [  0.000000,   0.000000, -19.102551]
    RMS size of the density [Ang]:         5.013716
      Cartesian components [Ang]:        [  1.159018,   0.606914,   4.840009]
  
  Exciton analysis of the difference density matrix
    <r_h> [Ang]:                  [  0.000000,  -0.000000,  -6.304014]
    <r_e> [Ang]:                  [ -0.000000,  -0.000000,   0.034147]
    |<r_e - r_h>| [Ang]:            6.338161
    Hole size [Ang]:                1.855264
      Cartesian components [Ang]: [  0.795709,   0.783930,   1.481318]
    Electron size [Ang]:            6.466621
      Cartesian components [Ang]: [  3.564149,   1.754729,   5.102446]

  Transition density matrix analysis:
  -----------------------------------
  
  CT numbers (Mulliken)
    omega =     0.8418
    <Phe> =    -0.0000
  
  Exciton analysis of the transition density matrix
    Trans. dipole moment [D]:             0.018328
      Cartesian components [D]:         [ -0.000000,  -0.000000,   0.018328]
    <r_h> [Ang]:                        [  0.000000,  -0.000000,  -6.443400]
    <r_e> [Ang]:                        [ -0.000000,  -0.000000,   3.616149]
    |<r_e - r_h>| [Ang]:                 10.059549
    Hole size [Ang]:                      1.006316
      Cartesian components [Ang]:       [  0.420757,   0.420756,   0.811541]
    Electron size [Ang]:                  5.372841
      Cartesian components [Ang]:       [  4.447658,   2.119808,   2.142935]
    RMS electron-hole separation [Ang]:  11.448821
      Cartesian components [Ang]:       [  4.467552,   2.161170,  10.317258]
    Covariance(r_h, r_e) [Ang^2]:        -0.000439
    Correlation coefficient:             -0.000081
    Center-of-mass size [Ang]:            2.733094
      Cartesian components [Ang]:       [  2.233740,   1.080577,   1.145670]

  Decomposition into state-averaged NTOs
    H- 1 -> L+ 2:  0.5968 ( 71.2%)
    H- 1 -> L+ 0:  0.2497 ( 12.5%)
                   omega =  84.2%
  ----------------------------------------------------------------------------


  Excited state 9 (singlet, A1)                                    [converged]
  ----------------------------------------------------------------------------
  Term symbol:  10 (1) A1                                   R^2 =  2.05830e-06

  Total energy:                                           -153.7131762351 a.u.
  Excitation energy:                                               6.624145 eV

  Osc. strength:                                                      0.000008
  Trans. dip. moment [a.u.]:           [  -0.000000,    0.000000,    0.007119]
  <i|r^2|0> [a.u.]:                    [   0.004828,    0.002807,    0.134669]

  Dip. moment [a.u.]:                  [   0.000000,   -0.000000,   -7.486314]
  Total dipole [Debye]:                                              19.028316
  <r^2> [a.u.]:                        [  71.192771,   29.769017, 2169.887609]
  Total <r^2> [a.u.]:                                              2270.849397

  V1^2 = 0.8534, V2^2 = 0.1466

  Important amplitudes:
      occ i      occ j       vir a       vir b          v   
    ---------------------------------------------------------
     7 (A1) A              10 (A1) A                 -0.6469
     7 (A1) A               8 (A1) A                 -0.0592
    ---------------------------------------------------------

  Density matrix analysis:
  ------------------------
  NOs
    Occupation of frontier NOs:
       0.9737   0.9923
    Number of electrons: 26.000000
    Number of unpaired electrons: n_u =  2.81261, n_u,nl =  2.14181
    NO participation ratio (PR_NO):  4.013993
  
  
  Mulliken Population Analysis
  Atom      Charge (e)              h+              e-           Del q
  --------------------------------------------------------------------
   1 C       -0.763294        0.033013       -0.626487       -0.593474
   2 C       -0.763294        0.033013       -0.626487       -0.593474
   3 H        0.135829       -0.001030        0.041166        0.040136
   4 H        0.135829       -0.001030        0.041166        0.040136
   5 H        0.127495        0.000122        0.053265        0.053386
   6 H        0.127495        0.000122        0.053265        0.053386
   7 O       -0.322775        1.237984       -0.537210        0.700775
   8 H        0.322713        0.317214       -0.018086        0.299128
  --------------------------------------------------------------------
  Sum:       -1.000000        1.619410       -1.619410        0.000000
  
  Multipole moment analysis of the density matrix
    Molecular charge:                      -1.000000
    Number of electrons:                   26.000000
      Center of electronic charge [Ang]: [ -0.000000,   0.000000,   0.152369]
    Total nuclear charge:                  25.000000
      Center of nuclear charge [Ang]:    [ -0.000000,  -0.000000,   0.000000]
    Dipole moment [D]:                     19.028310
      Cartesian components [D]:          [  0.000000,  -0.000000, -19.028310]
    RMS size of the density [Ang]:         4.943134
      Cartesian components [Ang]:        [  0.875654,   0.566235,   4.831892]
  
  Exciton analysis of the difference density matrix
    <r_h> [Ang]:                  [  0.000000,  -0.000000,  -6.046620]
    <r_e> [Ang]:                  [ -0.000000,   0.000000,   0.164640]
    |<r_e - r_h>| [Ang]:            6.211261
    Hole size [Ang]:                2.421589
      Cartesian components [Ang]: [  0.795511,   0.791160,   2.146002]
    Electron size [Ang]:            5.456509
      Cartesian components [Ang]: [  1.795181,   1.509511,   4.926681]

  Transition density matrix analysis:
  -----------------------------------
  
  CT numbers (Mulliken)
    omega =     0.8360
    <Phe> =    -0.0000
  
  Exciton analysis of the transition density matrix
    Trans. dipole moment [D]:             0.009047
      Cartesian components [D]:         [ -0.000000,   0.000000,   0.009047]
    <r_h> [Ang]:                        [  0.000000,  -0.000000,  -6.443456]
    <r_e> [Ang]:                        [ -0.000000,   0.000000,   3.597125]
    |<r_e - r_h>| [Ang]:                 10.040581
    Hole size [Ang]:                      1.006930
      Cartesian components [Ang]:       [  0.420541,   0.420509,   0.812543]
    Electron size [Ang]:                  3.244724
      Cartesian components [Ang]:       [  2.175060,   1.791525,   1.608660]
    RMS electron-hole separation [Ang]:  10.600109
      Cartesian components [Ang]:       [  2.215424,   1.840320,  10.201345]
    Covariance(r_h, r_e) [Ang^2]:        -0.003457
    Correlation coefficient:             -0.001058
    Center-of-mass size [Ang]:            1.698178
      Cartesian components [Ang]:       [  1.107630,   0.920055,   0.900257]

  Decomposition into state-averaged NTOs
    H- 1 -> L+ 6: -0.6280 ( 78.9%)
    H- 1 -> L+ 0:  0.1530 (  4.7%)
                   omega =  83.6%
  ----------------------------------------------------------------------------


  Excited state 10 (singlet, A1)                                    [converged]
  ----------------------------------------------------------------------------
  Term symbol:  11 (1) A1                                   R^2 =  4.72873e-09

  Total energy:                                           -153.7103125262 a.u.
  Excitation energy:                                               6.702070 eV

  Osc. strength:                                                      0.000001
  Trans. dip. moment [a.u.]:           [   0.000000,   -0.000000,    0.002429]
  <i|r^2|0> [a.u.]:                    [   2.229180,   -2.260483,    0.032780]

  Dip. moment [a.u.]:                  [   0.000000,    0.000000,   11.302308]
  Total dipole [Debye]:                                              28.727608
  <r^2> [a.u.]:                        [  61.564824,   25.555789, 2264.911861]
  Total <r^2> [a.u.]:                                              2352.032474

  V1^2 = 0.9221, V2^2 = 0.0779

  Important amplitudes:
      occ i      occ j       vir a       vir b          v   
    ---------------------------------------------------------
     2 (B2) A               5 (B2) A                 -0.4808
     4 (B1) A              11 (B1) A                  0.4781
    ---------------------------------------------------------

  Density matrix analysis:
  ------------------------
  NOs
    Occupation of frontier NOs:
       0.5206   1.4601
    Number of electrons: 26.000000
    Number of unpaired electrons: n_u =  2.70588, n_u,nl =  2.48314
    NO participation ratio (PR_NO):  6.457719
  
  
  Mulliken Population Analysis
  Atom      Charge (e)              h+              e-           Del q
  --------------------------------------------------------------------
   1 C       -0.170884        0.000279       -0.001343       -0.001064
   2 C       -0.170884        0.000279       -0.001343       -0.001064
   3 H        0.095773       -0.000026        0.000106        0.000080
   4 H        0.095773       -0.000026        0.000106        0.000080
   5 H        0.074126        0.000019       -0.000002        0.000018
   6 H        0.074126        0.000019       -0.000002        0.000018
   7 O       -1.115566        1.147305       -1.239321       -0.092017
   8 H        0.117535        0.113671       -0.019722        0.093949
  --------------------------------------------------------------------
  Sum:       -1.000000        1.261521       -1.261521        0.000000
  
  Multipole moment analysis of the density matrix
    Molecular charge:                      -1.000000
    Number of electrons:                   26.000000
      Center of electronic charge [Ang]: [ -0.000000,  -0.000000,  -0.230036]
    Total nuclear charge:                  25.000000
      Center of nuclear charge [Ang]:    [ -0.000000,  -0.000000,   0.000000]
    Dipole moment [D]:                     28.727599
      Cartesian components [D]:          [  0.000000,   0.000000,  28.727599]
    RMS size of the density [Ang]:         5.027847
      Cartesian components [Ang]:        [  0.814293,   0.524637,   4.933652]
  
  Exciton analysis of the difference density matrix
    <r_h> [Ang]:                  [  0.000000,   0.000000,  -6.443080]
    <r_e> [Ang]:                  [ -0.000000,  -0.000000,  -6.351076]
    |<r_e - r_h>| [Ang]:            0.092004
    Hole size [Ang]:                1.275320
      Cartesian components [Ang]: [  0.745698,   0.745328,   0.717539]
    Electron size [Ang]:            2.148837
      Cartesian components [Ang]: [  1.320397,   1.319783,   1.064060]

  Transition density matrix analysis:
  -----------------------------------
  
  CT numbers (Mulliken)
    omega =     0.8992
    <Phe> =     0.0349
  
  Exciton analysis of the transition density matrix
    Trans. dipole moment [D]:             0.003087
      Cartesian components [D]:         [  0.000000,  -0.000000,   0.003087]
    <r_h> [Ang]:                        [  0.000000,  -0.000000,  -6.396438]
    <r_e> [Ang]:                        [ -0.000000,  -0.000000,  -6.343866]
    |<r_e - r_h>| [Ang]:                  0.052572
    Hole size [Ang]:                      1.069754
      Cartesian components [Ang]:       [  0.673137,   0.674492,   0.486128]
    Electron size [Ang]:                  2.369779
      Cartesian components [Ang]:       [  1.472755,   1.473095,   1.129972]
    RMS electron-hole separation [Ang]:   2.599112
      Cartesian components [Ang]:       [  1.618175,   1.618979,   1.231177]
    Covariance(r_h, r_e) [Ang^2]:         0.003806
    Correlation coefficient:              0.001501
    Center-of-mass size [Ang]:            1.300754
      Cartesian components [Ang]:       [  0.810209,   0.810680,   0.615078]

  Decomposition into state-averaged NTOs
    H- 2 -> L+ 9:  0.4749 ( 45.1%)
    H- 0 -> L+10:  0.4729 ( 44.7%)
                   omega =  89.9%
  ----------------------------------------------------------------------------


--------------------------------------------------------------------------------
  Time of ADC calculation:  CPU 306.46 s  wall 78.31 s
================================================================================
 
 --------------------------------------------------------------
             Orbital Energies (a.u.) and Symmetries
 --------------------------------------------------------------
 
 Alpha MOs, Restricted
 -- Occupied --                  
-20.198 -11.183 -11.181  -0.988  -0.905  -0.728  -0.607  -0.513
  1 A1    2 A1    1 B1    3 A1    4 A1    2 B1    5 A1    6 A1                 
 -0.461  -0.323  -0.252  -0.108  -0.108
  3 B1    1 B2    7 A1    2 B2    4 B1                                         
 -- Virtual --                   
  0.085   0.098   0.099   0.109   0.114   0.117   0.153   0.182
  5 B1    3 B2    8 A1    1 A2    9 A1    6 B1   10 A1    2 A2                 
  0.186   0.224   0.240   0.244   0.257   0.320   0.320   0.339
  7 B1   11 A1    8 B1    4 B2   12 A1   13 A1    3 A2    9 B1                 
  0.379   0.394   0.402   0.443   0.444   0.456   0.521   0.560
 14 A1   15 A1   10 B1    5 B2   11 B1   16 A1   12 B1   13 B1                 
  0.585   0.744   0.830   0.914   0.926   0.952   0.982   0.986
 17 A1   18 A1   19 A1   20 A1    6 B2   21 A1    4 A2   14 B1                 
  1.036   1.081   1.102   1.168   1.173   1.269   1.269   1.323
 15 B1   22 A1   16 B1    7 B2   23 A1    8 B2   17 B1    5 A2                 
  1.323   1.337   1.338   1.385   1.400   1.545   1.660   1.669
 24 A1    9 B2    6 A2   18 B1   19 B1   25 A1   26 A1   20 B1                 
  1.729   1.729   1.752   1.903   1.968   1.974   1.992   2.038
 10 B2   21 B1   27 A1    7 A2   22 B1   28 A1   11 B2   29 A1                 
  2.071   2.095   2.225   2.337   2.379   2.379   2.466   2.496
 12 B2   30 A1    8 A2   23 B1   13 B2   24 B1    9 A2   31 A1                 
  2.538   2.602   2.626   2.852   2.856   3.038   3.315   3.394
 32 A1   25 B1   26 B1   33 A1   34 A1   35 A1   27 B1   28 B1                 
  3.930   3.930   3.959   3.959   4.406
 14 B2   29 B1   10 A2   36 A1   37 A1                                         
 
 Beta MOs, Restricted
 -- Occupied --                  
-20.198 -11.183 -11.181  -0.988  -0.905  -0.728  -0.607  -0.513
  1 A1    2 A1    1 B1    3 A1    4 A1    2 B1    5 A1    6 A1                 
 -0.461  -0.323  -0.252  -0.108  -0.108
  3 B1    1 B2    7 A1    2 B2    4 B1                                         
 -- Virtual --                   
  0.085   0.098   0.099   0.109   0.114   0.117   0.153   0.182
  5 B1    3 B2    8 A1    1 A2    9 A1    6 B1   10 A1    2 A2                 
  0.186   0.224   0.240   0.244   0.257   0.320   0.320   0.339
  7 B1   11 A1    8 B1    4 B2   12 A1   13 A1    3 A2    9 B1                 
  0.379   0.394   0.402   0.443   0.444   0.456   0.521   0.560
 14 A1   15 A1   10 B1    5 B2   11 B1   16 A1   12 B1   13 B1                 
  0.585   0.744   0.830   0.914   0.926   0.952   0.982   0.986
 17 A1   18 A1   19 A1   20 A1    6 B2   21 A1    4 A2   14 B1                 
  1.036   1.081   1.102   1.168   1.173   1.269   1.269   1.323
 15 B1   22 A1   16 B1    7 B2   23 A1    8 B2   17 B1    5 A2                 
  1.323   1.337   1.338   1.385   1.400   1.545   1.660   1.669
 24 A1    9 B2    6 A2   18 B1   19 B1   25 A1   26 A1   20 B1                 
  1.729   1.729   1.752   1.903   1.968   1.974   1.992   2.038
 10 B2   21 B1   27 A1    7 A2   22 B1   28 A1   11 B2   29 A1                 
  2.071   2.095   2.225   2.337   2.379   2.379   2.466   2.496
 12 B2   30 A1    8 A2   23 B1   13 B2   24 B1    9 A2   31 A1                 
  2.538   2.602   2.626   2.852   2.856   3.038   3.315   3.394
 32 A1   25 B1   26 B1   33 A1   34 A1   35 A1   27 B1   28 B1                 
  3.930   3.930   3.959   3.959   4.406
 14 B2   29 B1   10 A2   36 A1   37 A1                                         
 --------------------------------------------------------------
 
          Ground-State Mulliken Net Atomic Charges

     Atom                 Charge (a.u.)
  ----------------------------------------
      1 C                    -0.155522
      2 C                    -0.155522
      3 H                     0.088573
      4 H                     0.088573
      5 H                     0.066945
      6 H                     0.066945
      7 O                    -1.035779
      8 H                     0.035786
  ----------------------------------------
  Sum of atomic charges =    -1.000000

 -----------------------------------------------------------------
                    Cartesian Multipole Moments
 -----------------------------------------------------------------
    Charge (ESU x 10^10)
                -4.8032
    Dipole Moment (Debye)
         X       0.0000      Y       0.0000      Z      29.1869
       Tot      29.1869
    Quadrupole Moments (Debye-Ang)
        XX     -23.0652     XY      -0.0000     YY     -26.2439
        XZ       0.0000     YZ      -0.0000     ZZ    -199.3589
    Octopole Moments (Debye-Ang^2)
       XXX       0.0000    XXY      -0.0000    XYY      -0.0000
       YYY       0.0000    XXZ      17.5097    XYZ       0.0000
       YYZ       6.1450    XZZ       0.0000    YZZ       0.0000
       ZZZ    1093.5487
    Hexadecapole Moments (Debye-Ang^3)
      XXXX     -84.2862   XXXY      -0.0000   XXYY     -20.8772
      XYYY       0.0000   YYYY     -37.3441   XXXZ       0.0000
      XXYZ      -0.0000   XYYZ      -0.0000   YYYZ      -0.0000
      XXZZ    -607.7256   XYZZ      -0.0000   YYZZ    -644.0013
      XZZZ       0.0000   YZZZ      -0.0000   ZZZZ   -9443.8218
 -----------------------------------------------------------------
 Total job time:  187.26s(wall), 356.64s(cpu) 
 Tue Mar  1 22:26:40 2022

        *************************************************************
        *                                                           *
        *  Thank you very much for using Q-Chem.  Have a nice day.  *
        *                                                           *
        *************************************************************


