/src/tsommerfeld/qchem/exe/qcprog.exe .input1.993939.16501.qcin.1 /src/jdavis/qchem.scratch/qchem16501/

                  Welcome to Q-Chem
     A Quantum Leap Into The Future Of Chemistry


 Q-Chem 5.4 (devel), Q-Chem, Inc., Pleasanton, CA (2021)

 E. Epifanovsky,  A. T. B. Gilbert,  Xintian Feng,  Joonho Lee,  Yuezhi Mao,  
 N. Mardirossian,  P. Pokhilko,  A. White,  M. Wormit,  M. P. Coons,  
 A. L. Dempwolff,  Zhengting Gan,  D. Hait,  P. R. Horn,  L. D. Jacobson,  
 I. Kaliman,  J. Kussmann,  A. W. Lange,  Ka Un Lao,  D. S. Levine,  Jie Liu,  
 S. C. McKenzie,  A. F. Morrison,  K. Nanda,  F. Plasser,  D. R. Rehn,  
 M. L. Vidal,  Zhi-Qiang You,  Ying Zhu,  B. Alam,  B. Albrecht,  
 A. Aldossary,  E. Alguire,  J. H. Andersen,  D. Barton,  K. Begam,  A. Behn,  
 Y. A. Bernard,  E. J. Berquist,  H. Burton,  A. Carreras,  K. Carter-Fenk,  
 R. Chakraborty,  A. D. Chien,  K. D. Closser,  V. Cofer-Shabica,  
 S. Dasgupta,  Jia Deng,  M. de Wergifosse,  M. Diedenhofen,  Hainam Do,  
 S. Ehlert,  Po-Tung Fang,  S. Fatehi,  Qingguo Feng,  T. Friedhoff,  
 J. Gayvert,  Qinghui Ge,  G. Gidofalvi,  M. Goldey,  J. Gomes,  
 C. Gonzalez-Espinoza,  S. Gulania,  A. Gunina,  M. W. D. Hanson-Heine,  
 P. H. P. Harbach,  A. W. Hauser,  M. F. Herbst,  M. Hernandez Vera,  
 M. Hodecker,  Z. C. Holden,  S. Houck,  Xunkun Huang,  Kerwin Hui,  
 B. C. Huynh,  M. Ivanov,  Hyunjun Ji,  Hanjie Jiang,  B. Kaduk,  S. Kaehler,  
 K. Khistyaev,  Jaehoon Kim,  P. Klunzinger,  Z. Koczor-Benda,  
 Joong Hoon Koh,  D. Kosenkov,  L. Koulias,  T. Kowalczyk,  C. M. Krauter,  
 K. Kue,  A. Kunitsa,  T. Kus,  A. Landau,  K. V. Lawler,  D. Lefrancois,  
 S. Lehtola,  Rain Li,  Yi-Pei Li,  Jiashu Liang,  M. Liebenthal,  
 Hung-Hsuan Lin,  You-Sheng Lin,  Fenglai Liu,  Kuan-Yu Liu,  
 M. Loipersberger,  A. Luenser,  A. Manjanath,  P. Manohar,  E. Mansoor,  
 S. F. Manzer,  Shan-Ping Mao,  A. V. Marenich,  T. Markovich,  S. Mason,  
 S. A. Maurer,  P. F. McLaughlin,  M. F. S. J. Menger,  J.-M. Mewes,  
 S. A. Mewes,  P. Morgante,  J. W. Mullinax,  K. J. Oosterbaan,  G. Paran,  
 Alexander C. Paul,  Suranjan K. Paul,  F. Pavosevic,  Zheng Pei,  S. Prager,  
 E. I. Proynov,  E. Ramos,  B. Rana,  A. E. Rask,  A. Rettig,  R. M. Richard,  
 F. Rob,  E. Rossomme,  T. Scheele,  M. Scheurer,  M. Schneider,  
 N. Sergueev,  S. M. Sharada,  W. Skomorowski,  D. W. Small,  C. J. Stein,  
 Yu-Chuan Su,  E. J. Sundstrom,  Zhen Tao,  J. Thirman,  T. Tsuchimochi,  
 N. M. Tubman,  S. P. Veccham,  O. Vydrov,  J. Wenzel,  J. Witte,  A. Yamada,  
 Kun Yao,  S. Yeganeh,  S. R. Yost,  A. Zech,  Igor Ying Zhang,  Xing Zhang,  
 Yu Zhang,  D. Zuev,  A. Aspuru-Guzik,  A. T. Bell,  N. A. Besley,  
 K. B. Bravaya,  B. R. Brooks,  D. Casanova,  Jeng-Da Chai,  S. Coriani,  
 C. J. Cramer,  A. E. DePrince, III,  R. A. DiStasio Jr.,  A. Dreuw,  
 B. D. Dunietz,  T. R. Furlani,  W. A. Goddard III,  S. Grimme,  
 S. Hammes-Schiffer,  T. Head-Gordon,  W. J. Hehre,  Chao-Ping Hsu,  
 T.-C. Jagau,  Yousung Jung,  A. Klamt,  Jing Kong,  D. S. Lambrecht,  
 WanZhen Liang,  N. J. Mayhall,  C. W. McCurdy,  J. B. Neaton,  
 C. Ochsenfeld,  J. A. Parkhill,  R. Peverati,  V. A. Rassolov,  Yihan Shao,  
 L. V. Slipchenko,  T. Stauch,  R. P. Steele,  J. E. Subotnik,  
 A. J. W. Thom,  A. Tkatchenko,  D. G. Truhlar,  T. Van Voorhis,  
 T. A. Wesolowski,  K. B. Whaley,  H. L. Woodcock III,  P. M. Zimmerman,  
 S. Faraji,  P. M. W. Gill,  M. Head-Gordon,  J. M. Herbert,  A. I. Krylov

 Additional authors for Version 5.4.1: 
 S. Kotaru,  Shaozhi Li,  Xiangyuan Li,  F. Matz,  A. Molle,  Haisheng Ren,  
 Yingli Su,  Hung-Yi Tsai,  C. Utku,  Fang Wang

 Contributors to earlier versions of Q-Chem not listed above: 
 R. D. Adamson,  B. Austin,  R. Baer,  J. Baker,  G. J. O. Beran,  
 K. Brandhorst,  S. T. Brown,  E. F. C. Byrd,  A. K. Chakraborty,  
 G. K. L. Chan,  Chun-Min Chang,  Yunqing Chen,  C.-L. Cheng,  
 Siu Hung Chien,  D. M. Chipman,  D. L. Crittenden,  H. Dachsel,  
 R. J. Doerksen,  A. D. Dutoi,  R. G. Edgar,  J. Fosso-Tande,  
 L. Fusti-Molnar,  D. Ghosh,  A. Ghysels,  A. Golubeva-Zadorozhnaya,  
 J. Gonthier,  M. S. Gordon,  S. R. Gwaltney,  G. Hawkins,  J. E. Herr,  
 A. Heyden,  S. Hirata,  E. G. Hohenstein,  G. Kedziora,  F. J. Keil,  
 C. Kelley,  Jihan Kim,  R. A. King,  R. Z. Khaliullin,  P. P. Korambath,  
 W. Kurlancheek,  A. Laurent,  A. M. Lee,  M. S. Lee,  S. V. Levchenko,  
 Ching Yeh Lin,  D. Liotard,  E. Livshits,  R. C. Lochan,  I. Lotan,  
 L. A. Martinez-Martinez,  P. E. Maslen,  N. Nair,  D. P. O'Neill,  
 D. Neuhauser,  E. Neuscamman,  C. M. Oana,  R. Olivares-Amaya,  R. Olson,  
 T. M. Perrine,  B. Peters,  P. A. Pieniazek,  A. Prociuk,  Y. M. Rhee,  
 J. Ritchie,  M. A. Rohrdanz,  E. Rosta,  N. J. Russ,  H. F. Schaefer III,  
 M. W. Schmidt,  N. E. Schultz,  S. Sharma,  N. Shenvi,  C. D. Sherrill,  
 A. C. Simmonett,  A. Sodt,  T. Stein,  D. Stuck,  K. S. Thanthiriwatte,  
 V. Vanovschi,  L. Vogt,  Tao Wang,  A. Warshel,  M. A. Watson,  
 C. F. Williams,  Q. Wu,  X. Xu,  Jun Yang,  W. Zhang,  Yan Zhao

 Please cite Q-Chem as follows:
 Y. Shao et al., Mol. Phys. 113, 184-215 (2015)
 DOI: 10.1080/00268976.2014.952696

 Q-Chem 5.4.1 for Intel X86 EM64T Linux

 Parts of Q-Chem use Armadillo 9.900.5 (Nocturnal Misbehaviour).
 http://arma.sourceforge.net/

 Q-Chem begins on Fri Mar  4 19:57:15 2022  

 Host: node01
0

     Scratch files written to /src/jdavis/qchem.scratch/qchem16501//
 Processing $rem in /src/tsommerfeld/qchem/config/preferences:
 Processing $rem in /home/jdavis/.qchemrc:

 Checking the input file for inconsistencies... 	...done.

--------------------------------------------------------------
User input:
--------------------------------------------------------------
$molecule
-1 1
C        -0.6645000000    0.0000000000    1.1619088658
C         0.6645000000    0.0000000000    1.1619088658
H        -1.1590800000    0.0000000000    0.1995598658
H         1.1590800000    0.0000000000    0.1995598658
H        -1.1590800000    0.0000000000    2.1242568658
H         1.1590800000    0.0000000000    2.1242568658
O         0.0000000000    0.0000000000   -1.5841414040
H         0.0000000000    0.0000000000   -2.5471307683
$end
$rem
   METHOD adc(2)
   BASIS gen
   PURECART 11
   EE_STATES [0,0,0,10]
   scf_convergence 8
   ADC_DAVIDSON_MAXITER 120
   ADC_DAVIDSON_MAXSUBSPACE 200
   adc_nguess_singles 100
   THRESH 14
   S2THRESH 14
   adc_davidson_conv 5
   adc_davidson_thresh 14
   THREADS 10
   MEM_TOTAL 95000
   STATE_ANALYSIS TRUE
$end
$basis
C 1
S   9   1.00
      6.665000D+03           6.920000D-04
      1.000000D+03           5.329000D-03
      2.280000D+02           2.707700D-02
      6.471000D+01           1.017180D-01
      2.106000D+01           2.747400D-01
      7.495000D+00           4.485640D-01
      2.797000D+00           2.850740D-01
      5.215000D-01           1.520400D-02
      1.596000D-01          -3.191000D-03
S   9   1.00
      6.665000D+03          -1.460000D-04
      1.000000D+03          -1.154000D-03
      2.280000D+02          -5.725000D-03
      6.471000D+01          -2.331200D-02
      2.106000D+01          -6.395500D-02
      7.495000D+00          -1.499810D-01
      2.797000D+00          -1.272620D-01
      5.215000D-01           5.445290D-01
      1.596000D-01           5.804960D-01
S   1   1.00
      1.596000D-01           1.000000D+00
S   1   1.00
      0.0469000              1.0000000
P   4   1.00
      9.439000D+00           3.810900D-02
      2.002000D+00           2.094800D-01
      5.456000D-01           5.085570D-01
      1.517000D-01           4.688420D-01
P   1   1.00
      1.517000D-01           1.000000D+00
P   1   1.00
      0.086423      1.0000000
D   1   1.00
      5.500000D-01           1.0000000
****
C 2
S   9   1.00
      6.665000D+03           6.920000D-04
      1.000000D+03           5.329000D-03
      2.280000D+02           2.707700D-02
      6.471000D+01           1.017180D-01
      2.106000D+01           2.747400D-01
      7.495000D+00           4.485640D-01
      2.797000D+00           2.850740D-01
      5.215000D-01           1.520400D-02
      1.596000D-01          -3.191000D-03
S   9   1.00
      6.665000D+03          -1.460000D-04
      1.000000D+03          -1.154000D-03
      2.280000D+02          -5.725000D-03
      6.471000D+01          -2.331200D-02
      2.106000D+01          -6.395500D-02
      7.495000D+00          -1.499810D-01
      2.797000D+00          -1.272620D-01
      5.215000D-01           5.445290D-01
      1.596000D-01           5.804960D-01
S   1   1.00
      1.596000D-01           1.000000D+00
S   1   1.00
      0.0469000              1.0000000
P   4   1.00
      9.439000D+00           3.810900D-02
      2.002000D+00           2.094800D-01
      5.456000D-01           5.085570D-01
      1.517000D-01           4.688420D-01
P   1   1.00
      1.517000D-01           1.000000D+00
P   1   1.00
      0.086423      1.0000000
D   1   1.00
      5.500000D-01           1.0000000
****
H 3
cc-pVDZ
****
H 4
cc-pVDZ
****
H 5
cc-pVDZ
****
H 6
cc-pVDZ
****
O 7
aug-cc-pVDZ
****
H 8
cc-pVDZ
****
$end
--------------------------------------------------------------
 ----------------------------------------------------------------
             Standard Nuclear Orientation (Angstroms)
    I     Atom           X                Y                Z
 ----------------------------------------------------------------
    1      C      -0.6645000000    -0.0000000000     1.0270977517
    2      C       0.6645000000     0.0000000000     1.0270977517
    3      H      -1.1590800000    -0.0000000000     0.0647487517
    4      H       1.1590800000     0.0000000000     0.0647487517
    5      H      -1.1590800000    -0.0000000000     1.9894457517
    6      H       1.1590800000     0.0000000000     1.9894457517
    7      O       0.0000000000    -0.0000000000    -1.7189525181
    8      H       0.0000000000    -0.0000000000    -2.6819418824
 ----------------------------------------------------------------
 Molecular Point Group                 C2v   NOp =  4
 Largest Abelian Subgroup              C2v   NOp =  4
 Nuclear Repulsion Energy =          64.38561153 hartrees
 There are       13 alpha and       13 beta electrons
 Requested basis set is non-standard
 There are 40 shells and 84 basis functions
 Total memory of 95000 MB is distributed as follows: 
   MEM_STATIC is set to 192 MB
   QALLOC/CCMAN JOB total memory use is  94808 MB
 Warning: actual memory use might exceed 95000 MB

 Total QAlloc Memory Limit  95000 MB
 Mega-Array Size       188 MB
 MEM_STATIC part       192 MB

                       Distance Matrix (Angstroms)
             C (  1)   C (  2)   H (  3)   H (  4)   H (  5)   H (  6)
   C (  2)  1.329000
   H (  3)  1.082000  2.061931
   H (  4)  2.061931  1.082000  2.318160
   H (  5)  1.082000  2.061931  1.924697  3.013026
   H (  6)  2.061931  1.082000  3.013026  1.924697  2.318160
   O (  7)  2.825306  2.825306  2.127218  2.127218  3.885316  3.885316
   H (  8)  3.768094  3.768094  2.981237  2.981237  4.813037  4.813037
             O (  7)
   H (  8)  0.962989
 
 A cutoff of  1.0D-14 yielded    820 shell pairs
 There are      3652 function pairs (      4018 Cartesian)
 Smallest overlap matrix eigenvalue = 1.36E-03

 Scale SEOQF with 1.000000e-01/1.000000e-01/1.000000e-01

 Standard Electronic Orientation quadrupole field applied
 Nucleus-field energy     =    -0.0000000051 hartrees
 ================ Generating on-the-fly SAD Guess ================
Attempting to make child job directory: /src/jdavis/qchem.scratch/qchem16501//Frg1/
Attempting to make child job directory: /src/jdavis/qchem.scratch/qchem16501//Frg2/
Attempting to make child job directory: /src/jdavis/qchem.scratch/qchem16501//Frg3/
Creating input file /src/jdavis/qchem.scratch/qchem16501/Frg1.input
using default PutDataFrgm: nothing
calling putenv with: QCSCRATCH=/src/jdavis/qchem.scratch/qchem16501/ 
Spawning Job For Fragment 0
Done Job For Fragment 0
calling putenv with: QCSCRATCH=/src/jdavis/qchem.scratch 
calling putenv with: QCTHREADS=1 
Creating input file /src/jdavis/qchem.scratch/qchem16501/Frg2.input
using default PutDataFrgm: nothing
calling putenv with: QCSCRATCH=/src/jdavis/qchem.scratch/qchem16501/ 
Spawning Job For Fragment 1
Done Job For Fragment 1
calling putenv with: QCSCRATCH=/src/jdavis/qchem.scratch 
calling putenv with: QCTHREADS=1 
Creating input file /src/jdavis/qchem.scratch/qchem16501/Frg3.input
using default PutDataFrgm: nothing
calling putenv with: QCSCRATCH=/src/jdavis/qchem.scratch/qchem16501/ 
Spawning Job For Fragment 2
Done Job For Fragment 2
calling putenv with: QCSCRATCH=/src/jdavis/qchem.scratch 
calling putenv with: QCTHREADS=1 
 Time for running child jobs:  CPU 1.76 s  wall 80.81 s
 ============= Method Specific SAD Guess Constructed =============
 Guess from on-the-fly superposition of atomic densities
 Warning: Energy on first SCF cycle will be non-variational
 A restricted Hartree-Fock SCF calculation will be
 performed using Pulay DIIS extrapolation
 SCF converges when DIIS error is below 1.0E-08
 using 10 threads for integral computing
 -------------------------------------------------------
 OpenMP Integral computing Module                
 Release: version 1.0, May 2013, Q-Chem Inc. Pittsburgh 
 -------------------------------------------------------
 ---------------------------------------
  Cycle       Energy         DIIS Error
 ---------------------------------------
    1    -153.5715990074      6.41E-02
    2    -153.2889103492      1.31E-02
    3    -153.3558510896      1.09E-02
    4    -153.4391275228      7.97E-04
    5    -153.4400173657      2.24E-04
    6    -153.4400844577      4.55E-05
    7    -153.4400886478      1.16E-05
    8    -153.4400890309      3.34E-06
    9    -153.4400890632      7.39E-07
   10    -153.4400890645      1.47E-07
   11    -153.4400890646      4.14E-08
   12    -153.4400890646      1.03E-08
   13    -153.4400890646      2.12E-09 Convergence criterion met
 ---------------------------------------
 SCF time:  CPU 14.46 s  wall 1.45 s
 SCF   energy in the final basis set = -153.44008906
 Total energy in the final basis set = -153.44008906
================================================================================
|                                                                              |
|                                 A D C  M A N                                 |
|                                                                              |
 ------------------------------------------------------------------------------ 
|                                                                              |
| Components:                                                                  |
|                                                                              |
| - libvmm - 1.3-trunk                                                         |
|   Authors:                                                                   |
|   Evgeny Epifanovsky, Ilya Kaliman                                           |
|                                                                              |
| - libtensor - 2.5-trunk                                                      |
|   Authors:                                                                   |
|   Evgeny Epifanovsky, Michael Wormit, Dmitry Zuev, Sam Manzer,               |
|   Ilya Kaliman                                                               |
|                                                                              |
| - libwfa - 1.1-trunk                                                         |
|   Authors:                                                                   |
|   Felix Plasser, Stefanie Mewes (Baeppler), Benjamin Thomitzni,              |
|   Michael Wormit, Feng Chen, Anna I. Krylov, Pavel Pokhilko                  |
|                                                                              |
| - libadc - 1.1-trunk                                                         |
|   Authors:                                                                   |
|   Michael Wormit, Adrian L. Dempwolff, Philipp H. P. Harbach,                |
|   Caroline Krauter, Dirk Rehn, Matthias Schneider, Jan Wenzel                |
|                                                                              |
| - adcman - 2.6-trunk                                                         |
|   Authors:                                                                   |
|   Michael Wormit, Adrian L. Dempwolff, Philipp H. P. Harbach,                |
|   Caroline Krauter, Daniel Lefrancois, Jan-Michael Mewes, Dirk Rehn,         |
|   Matthias Schneider, Jan Wenzel, Andreas Dreuw                              |
|                                                                              |
| Authors of earlier versions of ADCMAN:                                       |
| Andreas Dreuw, Jan Hendrik Starcke, Dirk Rehn, Michael Wormit                |
|                                                                              |
================================================================================

 
 Alpha MOs, Restricted
 -- Occupied --                  
-20.212 -11.046 -11.044  -0.929  -0.852  -0.597  -0.472  -0.382
  1 A1    2 A1    1 B1    3 A1    4 A1    2 B1    5 A1    6 A1                 
 -0.326  -0.270  -0.193  -0.129  -0.128
  3 B1    7 A1    1 B2    4 B1    2 B2                                         
 -- Virtual --                   
  0.224   0.255   0.306   0.308   0.372   0.397   0.412   0.418
  5 B1    8 A1    1 A2    9 A1   10 A1    3 B2    6 B1   11 A1                 
  0.444   0.463   0.494   0.501   0.508   0.552   0.561   0.583
  4 B2    7 B1    8 B1   12 A1    2 A2   13 A1    9 B1   14 A1                 
  0.700   0.704   0.777   0.963   1.011   1.083   1.097   1.122
 15 A1   10 B1   11 B1   16 A1   17 A1   18 A1   12 B1   19 A1                 
  1.168   1.171   1.206   1.219   1.250   1.291   1.302   1.332
  5 B2   13 B1   20 A1    6 B2    3 A2    4 A2   14 B1   21 A1                 
  1.335   1.339   1.370   1.464   1.472   1.484   1.604   1.658
 22 A1   15 B1    7 B2   16 B1    8 B2    5 A2   17 B1   23 A1                 
  1.713   1.751   1.870   1.924   2.033   2.058   2.107   2.130
  9 B2   18 B1   24 A1   19 B1   25 A1    6 A2   26 A1   10 B2                 
  2.184   2.214   2.246   2.327   2.365   2.395   2.419   2.505
 20 B1   11 B2   27 A1   28 A1    7 A2   12 B2   21 B1   22 B1                 
  2.577   2.605   2.759   2.761   2.855   3.022   3.038   3.105
 29 A1    8 A2   23 B1   30 A1   24 B1   31 A1   32 A1   33 A1                 
  3.466   3.566   3.923   3.946   3.973   4.088   4.547
 25 B1   26 B1   13 B2    9 A2   34 A1   27 B1   35 A1                         
 
 Beta MOs, Restricted
 -- Occupied --                  
-20.212 -11.046 -11.044  -0.929  -0.852  -0.597  -0.472  -0.382
  1 A1    2 A1    1 B1    3 A1    4 A1    2 B1    5 A1    6 A1                 
 -0.326  -0.270  -0.193  -0.129  -0.128
  3 B1    7 A1    1 B2    4 B1    2 B2                                         
 -- Virtual --                   
  0.224   0.255   0.306   0.308   0.372   0.397   0.412   0.418
  5 B1    8 A1    1 A2    9 A1   10 A1    3 B2    6 B1   11 A1                 
  0.444   0.463   0.494   0.501   0.508   0.552   0.561   0.583
  4 B2    7 B1    8 B1   12 A1    2 A2   13 A1    9 B1   14 A1                 
  0.700   0.704   0.777   0.963   1.011   1.083   1.097   1.122
 15 A1   10 B1   11 B1   16 A1   17 A1   18 A1   12 B1   19 A1                 
  1.168   1.171   1.206   1.219   1.250   1.291   1.302   1.332
  5 B2   13 B1   20 A1    6 B2    3 A2    4 A2   14 B1   21 A1                 
  1.335   1.339   1.370   1.464   1.472   1.484   1.604   1.658
 22 A1   15 B1    7 B2   16 B1    8 B2    5 A2   17 B1   23 A1                 
  1.713   1.751   1.870   1.924   2.033   2.058   2.107   2.130
  9 B2   18 B1   24 A1   19 B1   25 A1    6 A2   26 A1   10 B2                 
  2.184   2.214   2.246   2.327   2.365   2.395   2.419   2.505
 20 B1   11 B2   27 A1   28 A1    7 A2   12 B2   21 B1   22 B1                 
  2.577   2.605   2.759   2.761   2.855   3.022   3.038   3.105
 29 A1    8 A2   23 B1   30 A1   24 B1   31 A1   32 A1   33 A1                 
  3.466   3.566   3.923   3.946   3.973   4.088   4.547
 25 B1   26 B1   13 B2    9 A2   34 A1   27 B1   35 A1                         

--------------------------------------------------------------------------------
                                   HF Summary                                   
--------------------------------------------------------------------------------
  Energy:                                                 -153.4400890646 a.u.
  Dip. moment [a.u.]:                  [  -0.000000,   -0.000000,    2.093455]
  Total dipole [Debye]:                                               5.321034
  <r^2> [a.u.]:                        [  55.622351,   19.499019,  207.950549]
  Total <r^2> [a.u.]:                                               283.071920
--------------------------------------------------------------------------------

--------------------------------------------------------------------------------
                                 MP(2) Summary                                  
--------------------------------------------------------------------------------
  MP energy contribution:                                   -0.5290145665 a.u.
  Total energy:                                           -153.9691036311 a.u.
  Dip. moment [a.u.]:                  [  -0.000000,   -0.000000,    2.159622]
  Total dipole [Debye]:                                               5.489213
  <r^2> [a.u.]:                        [  56.572840,   20.178742,  209.178787]
  Total <r^2> [a.u.]:                                               285.930369

  Density matrix analysis:
  ------------------------
  NOs
    Occupation of frontier NOs:
       0.0449   1.9357
    Number of electrons: 26.000000
    Number of unpaired electrons: n_u =  0.71566, n_u,nl =  0.08550
    NO participation ratio (PR_NO): 23.001459
  
  
  Mulliken Population Analysis
  Atom      Charge (e)              h+              e-           Del q
  --------------------------------------------------------------------
   1 C       -0.240163        0.090336       -0.095759       -0.005423
   2 C       -0.240163        0.090336       -0.095759       -0.005423
   3 H        0.209331        0.017817       -0.011477        0.006340
   4 H        0.209331        0.017817       -0.011477        0.006340
   5 H        0.044198        0.019623       -0.011966        0.007657
   6 H        0.044198        0.019623       -0.011966        0.007657
   7 O       -1.082460        0.278126       -0.278837       -0.000711
   8 H        0.055727        0.015008       -0.031446       -0.016438
  --------------------------------------------------------------------
  Sum:       -1.000000        0.548685       -0.548685        0.000000
  
  Multipole moment analysis of the density matrix
    Molecular charge:                      -1.000000
    Number of electrons:                   26.000000
      Center of electronic charge [Ang]: [  0.000000,   0.000000,  -0.043955]
    Total nuclear charge:                  25.000000
      Center of nuclear charge [Ang]:    [  0.000000,   0.000000,  -0.000000]
    Dipole moment [D]:                     5.489212
      Cartesian components [D]:          [ -0.000000,  -0.000000,   5.489212]
    RMS size of the density [Ang]:         1.754318
      Cartesian components [Ang]:        [  0.780582,   0.466188,   1.500331]
  
  Exciton analysis of the difference density matrix
    <r_h> [Ang]:                  [  0.000000,  -0.000000,  -0.475491]
    <r_e> [Ang]:                  [  0.000000,   0.000000,  -0.539305]
    |<r_e - r_h>| [Ang]:            0.063814
    Hole size [Ang]:                1.913258
      Cartesian components [Ang]: [  0.834239,   0.708421,   1.569312]
    Electron size [Ang]:            2.248253
      Cartesian components [Ang]: [  1.086761,   0.921285,   1.739203]
--------------------------------------------------------------------------------
  Starting Davidson for singlet states of irrep B2 ... 
--------------------------------------------------------------------------------
   It NVec Conv  Avg. Norm  Max. Norm  Conv. states           Remark
--------------------------------------------------------------------------------
       100    0  1.524e-01  5.899e-01  0.2752 n n n n n n n n Guess.
    1  110    0  2.418e-02  1.782e-01  0.1230 n n n n n n n n 
    2  120    0  6.115e-03  4.575e-02  0.1221 n n n n n n n n 
    3  130    0  6.488e-03  6.322e-02  0.1221 n n n n n n n n 
    4  140    0  7.889e-04  7.457e-03  0.1221 n n n n n n n n 
    5  150    4  6.050e-05  5.255e-04  0.1221 y y y n y n n n 
    6  160    7  1.114e-05  1.057e-04  0.1221 y y y y y n n y 
    7  170    9  1.104e-06  1.053e-05  0.1221 y y y y y y y y 
    8  180   10  1.101e-07  1.055e-06  0.1221 y y y y y y y y Converged.
--------------------------------------------------------------------------------
  Davidson Summary: 
 ------------------------------------------------------------
  State  0: excitation energy =   0.1221 a.u.   (converged)
  State  1: excitation energy =   0.1525 a.u.   (converged)
  State  2: excitation energy =   0.1535 a.u.   (converged)
  State  3: excitation energy =   0.2377 a.u.   (converged)
  State  4: excitation energy =   0.2527 a.u.   (converged)
  State  5: excitation energy =   0.2906 a.u.   (converged)
  State  6: excitation energy =   0.3153 a.u.   (converged)
  State  7: excitation energy =   0.3226 a.u.   (converged)
  State  8: excitation energy =   0.3313 a.u.   (converged)
  State  9: excitation energy =   0.3538 a.u.   (converged)
 ------------------------------------------------------------


--------------------------------------------------------------------------------
                   State-averaged natural transition orbitals
--------------------------------------------------------------------------------
--------------------------------------------------------------------------------

--------------------------------------------------------------------------------
                             Excited State Summary
--------------------------------------------------------------------------------
--------------------------------------------------------------------------------

  Excited state 1 (singlet, B2)                                    [converged]
  ----------------------------------------------------------------------------
  Term symbol:  1 (1) B2                                    R^2 =  3.08591e-09

  Total energy:                                           -153.8469668330 a.u.
  Excitation energy:                                               3.323511 eV

  Osc. strength:                                                      0.047755
  Trans. dip. moment [a.u.]:           [   0.000000,    0.765830,   -0.000000]
  <i|r^2|0> [a.u.]:                    [  -0.000000,   -0.000000,   -0.000000]

  Dip. moment [a.u.]:                  [   0.000000,   -0.000000,    2.321844]
  Total dipole [Debye]:                                               5.901539
  <r^2> [a.u.]:                        [  63.076969,   25.268403,  223.475864]
  Total <r^2> [a.u.]:                                               311.821237

  V1^2 = 0.8925, V2^2 = 0.1075

  Important amplitudes:
      occ i      occ j       vir a       vir b          v   
    ---------------------------------------------------------
     2 (B2) A               9 (A1) A                  0.4711
     2 (B2) A               8 (A1) A                 -0.4589
    ---------------------------------------------------------

  Density matrix analysis:
  ------------------------
  NOs
    Occupation of frontier NOs:
       0.9657   0.9950
    Number of electrons: 26.000000
    Number of unpaired electrons: n_u =  2.72179, n_u,nl =  2.10442
    NO participation ratio (PR_NO):  3.797829
  
  
  Mulliken Population Analysis
  Atom      Charge (e)              h+              e-           Del q
  --------------------------------------------------------------------
   1 C       -0.576924        0.020497       -0.357258       -0.336761
   2 C       -0.576924        0.020497       -0.357258       -0.336761
   3 H        0.175491        0.003508       -0.037348       -0.033840
   4 H        0.175491        0.003508       -0.037348       -0.033840
   5 H        0.035089        0.015291       -0.024400       -0.009109
   6 H        0.035089        0.015291       -0.024400       -0.009109
   7 O       -1.108245        1.275913       -1.301697       -0.025785
   8 H        0.840932        0.182410        0.602796        0.785206
  --------------------------------------------------------------------
  Sum:       -1.000000        1.536914       -1.536914        0.000000
  
  Multipole moment analysis of the density matrix
    Molecular charge:                      -1.000000
    Number of electrons:                   26.000000
      Center of electronic charge [Ang]: [ -0.000000,   0.000000,  -0.047256]
    Total nuclear charge:                  25.000000
      Center of nuclear charge [Ang]:    [  0.000000,   0.000000,  -0.000000]
    Dipole moment [D]:                     5.901538
      Cartesian components [D]:          [  0.000000,  -0.000000,   5.901538]
    RMS size of the density [Ang]:         1.831989
      Cartesian components [Ang]:        [  0.824233,   0.521679,   1.550701]
  
  Exciton analysis of the difference density matrix
    <r_h> [Ang]:                  [  0.000000,  -0.000000,  -1.609807]
    <r_e> [Ang]:                  [ -0.000000,   0.000000,  -1.665661]
    |<r_e - r_h>| [Ang]:            0.055855
    Hole size [Ang]:                1.600117
      Cartesian components [Ang]: [  0.781385,   0.866410,   1.095055]
    Electron size [Ang]:            2.663604
      Cartesian components [Ang]: [  1.340010,   1.295381,   1.902931]

  Transition density matrix analysis:
  -----------------------------------
  
  CT numbers (Mulliken)
    omega =     0.8745
    <Phe> =    -0.0102
  
  Exciton analysis of the transition density matrix
    Trans. dipole moment [D]:             0.973272
      Cartesian components [D]:         [  0.000000,   0.973272,  -0.000000]
    <r_h> [Ang]:                        [  0.000000,  -0.000000,  -1.742442]
    <r_e> [Ang]:                        [ -0.000000,   0.000000,  -1.854221]
    |<r_e - r_h>| [Ang]:                  0.111779
    Hole size [Ang]:                      1.088970
      Cartesian components [Ang]:       [  0.474517,   0.818670,   0.538951]
    Electron size [Ang]:                  3.080651
      Cartesian components [Ang]:       [  1.547094,   1.521222,   2.186960]
    RMS electron-hole separation [Ang]:   3.258029
      Cartesian components [Ang]:       [  1.617666,   1.722663,   2.242843]
    Covariance(r_h, r_e) [Ang^2]:         0.037003
    Correlation coefficient:              0.011030
    Center-of-mass size [Ang]:            1.639381
      Cartesian components [Ang]:       [  0.809396,   0.866185,   1.132329]

  Decomposition into state-averaged NTOs
    H- 0 -> L+ 0: -0.4869 ( 47.4%)
    H- 0 -> L+ 3:  0.3345 ( 22.4%)
    H- 0 -> L+ 4: -0.2633 ( 13.9%)
    H- 0 -> L+ 1: -0.1308 (  3.4%)
                   omega =  87.4%
  ----------------------------------------------------------------------------


  Excited state 2 (singlet, B2)                                    [converged]
  ----------------------------------------------------------------------------
  Term symbol:  2 (1) B2                                    R^2 =  5.10779e-09

  Total energy:                                           -153.8165666547 a.u.
  Excitation energy:                                               4.150742 eV

  Osc. strength:                                                      0.004410
  Trans. dip. moment [a.u.]:           [  -0.000000,   -0.208240,   -0.000000]
  <i|r^2|0> [a.u.]:                    [   0.000000,    0.000000,    0.000000]

  Dip. moment [a.u.]:                  [  -0.000000,   -0.000000,   -1.431470]
  Total dipole [Debye]:                                               3.638435
  <r^2> [a.u.]:                        [  64.268670,   26.406297,  217.755313]
  Total <r^2> [a.u.]:                                               308.430279

  V1^2 = 0.8794, V2^2 = 0.1206

  Important amplitudes:
      occ i      occ j       vir a       vir b          v   
    ---------------------------------------------------------
     2 (B2) A               8 (A1) A                 -0.4507
     2 (B2) A               9 (A1) A                 -0.4400
    ---------------------------------------------------------

  Density matrix analysis:
  ------------------------
  NOs
    Occupation of frontier NOs:
       0.9276   1.0293
    Number of electrons: 26.000000
    Number of unpaired electrons: n_u =  2.80669, n_u,nl =  2.17484
    NO participation ratio (PR_NO):  4.248792
  
  
  Mulliken Population Analysis
  Atom      Charge (e)              h+              e-           Del q
  --------------------------------------------------------------------
   1 C       -0.716741        0.050253       -0.526831       -0.476578
   2 C       -0.716741        0.050253       -0.526831       -0.476578
   3 H        0.216854        0.003474        0.004049        0.007523
   4 H        0.216854        0.003474        0.004049        0.007523
   5 H        0.231650        0.025063        0.162388        0.187451
   6 H        0.231650        0.025063        0.162388        0.187451
   7 O       -0.870747        1.285765       -1.074052        0.211713
   8 H        0.407220        0.153067        0.198427        0.351494
  --------------------------------------------------------------------
  Sum:       -1.000000        1.596413       -1.596413       -0.000000
  
  Multipole moment analysis of the density matrix
    Molecular charge:                      -1.000000
    Number of electrons:                   26.000000
      Center of electronic charge [Ang]: [  0.000000,   0.000000,   0.029135]
    Total nuclear charge:                  25.000000
      Center of nuclear charge [Ang]:    [  0.000000,   0.000000,  -0.000000]
    Dipole moment [D]:                     3.638433
      Cartesian components [D]:          [ -0.000000,  -0.000000,  -3.638433]
    RMS size of the density [Ang]:         1.822374
      Cartesian components [Ang]:        [  0.831982,   0.533296,   1.531159]
  
  Exciton analysis of the difference density matrix
    <r_h> [Ang]:                  [  0.000000,  -0.000000,  -1.465513]
    <r_e> [Ang]:                  [  0.000000,  -0.000000,  -0.275142]
    |<r_e - r_h>| [Ang]:            1.190371
    Hole size [Ang]:                1.717885
      Cartesian components [Ang]: [  0.818800,   0.852984,   1.246240]
    Electron size [Ang]:            2.994977
      Cartesian components [Ang]: [  1.421396,   1.349061,   2.264852]

  Transition density matrix analysis:
  -----------------------------------
  
  CT numbers (Mulliken)
    omega =     0.8609
    <Phe> =    -0.0027
  
  Exciton analysis of the transition density matrix
    Trans. dipole moment [D]:             0.264646
      Cartesian components [D]:         [ -0.000000,  -0.264646,  -0.000000]
    <r_h> [Ang]:                        [  0.000000,  -0.000000,  -1.729740]
    <r_e> [Ang]:                        [  0.000000,  -0.000000,   0.224274]
    |<r_e - r_h>| [Ang]:                  1.954014
    Hole size [Ang]:                      1.109783
      Cartesian components [Ang]:       [  0.505696,   0.801531,   0.577440]
    Electron size [Ang]:                  3.458924
      Cartesian components [Ang]:       [  1.655224,   1.614820,   2.572304]
    RMS electron-hole separation [Ang]:   4.113917
      Cartesian components [Ang]:       [  1.729570,   1.798821,   3.270649]
    Covariance(r_h, r_e) [Ang^2]:         0.044816
    Correlation coefficient:              0.011675
    Center-of-mass size [Ang]:            1.822458
      Cartesian components [Ang]:       [  0.865965,   0.903388,   1.324896]

  Decomposition into state-averaged NTOs
    H- 0 -> L+ 1: -0.4431 ( 39.3%)
    H- 0 -> L+ 3: -0.3170 ( 20.1%)
    H- 0 -> L+ 4:  0.2419 ( 11.7%)
    H- 0 -> L+ 0: -0.2151 (  9.3%)
    H- 2 -> L+ 2: -0.1663 (  5.5%)
                   omega =  86.1%
  ----------------------------------------------------------------------------


  Excited state 3 (singlet, B2)                                    [converged]
  ----------------------------------------------------------------------------
  Term symbol:  3 (1) B2                                    R^2 =  6.34436e-09

  Total energy:                                           -153.8156360736 a.u.
  Excitation energy:                                               4.176065 eV

  Osc. strength:                                                      0.001707
  Trans. dip. moment [a.u.]:           [  -0.000000,   -0.129181,   -0.000000]
  <i|r^2|0> [a.u.]:                    [  -0.000000,   -0.000000,   -0.000000]

  Dip. moment [a.u.]:                  [   0.000000,    0.000000,   -2.699581]
  Total dipole [Debye]:                                               6.861652
  <r^2> [a.u.]:                        [  60.601324,   23.829405,  202.315845]
  Total <r^2> [a.u.]:                                               286.746574

  V1^2 = 0.8702, V2^2 = 0.1298

  Important amplitudes:
      occ i      occ j       vir a       vir b          v   
    ---------------------------------------------------------
     4 (B1) A               1 (A2) A                 -0.6268
     2 (B2) A               8 (A1) A                 -0.1266
    ---------------------------------------------------------

  Density matrix analysis:
  ------------------------
  NOs
    Occupation of frontier NOs:
       0.9331   1.0304
    Number of electrons: 26.000000
    Number of unpaired electrons: n_u =  2.78235, n_u,nl =  2.15416
    NO participation ratio (PR_NO):  4.171608
  
  
  Mulliken Population Analysis
  Atom      Charge (e)              h+              e-           Del q
  --------------------------------------------------------------------
   1 C       -0.648600        0.115639       -0.524076       -0.408438
   2 C       -0.648600        0.115639       -0.524076       -0.408438
   3 H        0.136831        0.005634       -0.078134       -0.072500
   4 H        0.136831        0.005634       -0.078134       -0.072500
   5 H        0.042616        0.007878       -0.009461       -0.001583
   6 H        0.042616        0.007878       -0.009461       -0.001583
   7 O       -0.224485        1.302455       -0.444480        0.857975
   8 H        0.162792        0.119086       -0.012020        0.107065
  --------------------------------------------------------------------
  Sum:       -1.000000        1.679842       -1.679842       -0.000000
  
  Multipole moment analysis of the density matrix
    Molecular charge:                      -1.000000
    Number of electrons:                   26.000000
      Center of electronic charge [Ang]: [ -0.000000,  -0.000000,   0.054944]
    Total nuclear charge:                  25.000000
      Center of nuclear charge [Ang]:    [  0.000000,   0.000000,  -0.000000]
    Dipole moment [D]:                     6.861649
      Cartesian components [D]:          [  0.000000,   0.000000,  -6.861649]
    RMS size of the density [Ang]:         1.756512
      Cartesian components [Ang]:        [  0.807896,   0.506607,   1.475123]
  
  Exciton analysis of the difference density matrix
    <r_h> [Ang]:                  [  0.000000,  -0.000000,  -1.315931]
    <r_e> [Ang]:                  [ -0.000000,  -0.000000,   0.214797]
    |<r_e - r_h>| [Ang]:            1.530727
    Hole size [Ang]:                1.741042
      Cartesian components [Ang]: [  0.890032,   0.739549,   1.300821]
    Electron size [Ang]:            2.202912
      Cartesian components [Ang]: [  1.209836,   1.074940,   1.494531]

  Transition density matrix analysis:
  -----------------------------------
  
  CT numbers (Mulliken)
    omega =     0.8421
    <Phe> =    -0.0010
  
  Exciton analysis of the transition density matrix
    Trans. dipole moment [D]:             0.164172
      Cartesian components [D]:         [ -0.000000,  -0.164172,  -0.000000]
    <r_h> [Ang]:                        [  0.000000,   0.000000,  -1.684727]
    <r_e> [Ang]:                        [  0.000000,  -0.000000,   0.983817]
    |<r_e - r_h>| [Ang]:                  2.668544
    Hole size [Ang]:                      1.177899
      Cartesian components [Ang]:       [  0.799710,   0.497724,   0.707235]
    Electron size [Ang]:                  2.055442
      Cartesian components [Ang]:       [  1.345681,   1.218567,   0.963888]
    RMS electron-hole separation [Ang]:   3.564975
      Cartesian components [Ang]:       [  1.560994,   1.315941,   2.922438]
    Covariance(r_h, r_e) [Ang^2]:         0.012187
    Correlation coefficient:              0.005034
    Center-of-mass size [Ang]:            1.187083
      Cartesian components [Ang]:       [  0.784870,   0.658326,   0.599794]

  Decomposition into state-averaged NTOs
    H- 2 -> L+ 2:  0.6210 ( 77.1%)
    H- 0 -> L+ 1: -0.1220 (  3.0%)
    H- 2 -> L+ 6: -0.0790 (  1.2%)
    H- 0 -> L+ 3: -0.0782 (  1.2%)
                   omega =  84.2%
  ----------------------------------------------------------------------------


  Excited state 4 (singlet, B2)                                    [converged]
  ----------------------------------------------------------------------------
  Term symbol:  4 (1) B2                                    R^2 =  1.39472e-08

  Total energy:                                           -153.7313740584 a.u.
  Excitation energy:                                               6.468951 eV

  Osc. strength:                                                      0.019019
  Trans. dip. moment [a.u.]:           [  -0.000000,   -0.346414,   -0.000000]
  <i|r^2|0> [a.u.]:                    [   0.000000,    0.000000,    0.000000]

  Dip. moment [a.u.]:                  [   0.000000,   -0.000000,   -3.341326]
  Total dipole [Debye]:                                               8.492804
  <r^2> [a.u.]:                        [  62.726599,   21.293074,  213.406340]
  Total <r^2> [a.u.]:                                               297.426014

  V1^2 = 0.8752, V2^2 = 0.1248

  Important amplitudes:
      occ i      occ j       vir a       vir b          v   
    ---------------------------------------------------------
     2 (B2) A              10 (A1) A                 -0.6327
     2 (B2) A              11 (A1) A                 -0.0972
    ---------------------------------------------------------

  Density matrix analysis:
  ------------------------
  NOs
    Occupation of frontier NOs:
       0.9762   0.9787
    Number of electrons: 26.000000
    Number of unpaired electrons: n_u =  2.76682, n_u,nl =  2.12039
    NO participation ratio (PR_NO):  3.939582
  
  
  Mulliken Population Analysis
  Atom      Charge (e)              h+              e-           Del q
  --------------------------------------------------------------------
   1 C       -0.517793        0.067338       -0.344969       -0.277630
   2 C       -0.517793        0.067338       -0.344969       -0.277630
   3 H        0.205641        0.005932       -0.009622       -0.003690
   4 H        0.205641        0.005932       -0.009622       -0.003690
   5 H       -0.127177        0.031319       -0.202695       -0.171375
   6 H       -0.127177        0.031319       -0.202695       -0.171375
   7 O       -0.245004        1.326898       -0.489442        0.837456
   8 H        0.123663        0.113927       -0.045991        0.067936
  --------------------------------------------------------------------
  Sum:       -1.000000        1.650004       -1.650004       -0.000000
  
  Multipole moment analysis of the density matrix
    Molecular charge:                      -1.000000
    Number of electrons:                   26.000000
      Center of electronic charge [Ang]: [ -0.000000,   0.000000,   0.068006]
    Total nuclear charge:                  25.000000
      Center of nuclear charge [Ang]:    [  0.000000,   0.000000,  -0.000000]
    Dipole moment [D]:                     8.492802
      Cartesian components [D]:          [  0.000000,  -0.000000,  -8.492802]
    RMS size of the density [Ang]:         1.788505
      Cartesian components [Ang]:        [  0.821940,   0.478888,   1.514540]
  
  Exciton analysis of the difference density matrix
    <r_h> [Ang]:                  [  0.000000,  -0.000000,  -1.363508]
    <r_e> [Ang]:                  [ -0.000000,   0.000000,   0.400716]
    |<r_e - r_h>| [Ang]:            1.764224
    Hole size [Ang]:                1.756818
      Cartesian components [Ang]: [  0.788520,   0.833606,   1.330318]
    Electron size [Ang]:            2.595373
      Cartesian components [Ang]: [  1.290791,   0.940222,   2.045923]

  Transition density matrix analysis:
  -----------------------------------
  
  CT numbers (Mulliken)
    omega =     0.8563
    <Phe> =    -0.0016
  
  Exciton analysis of the transition density matrix
    Trans. dipole moment [D]:             0.440248
      Cartesian components [D]:         [ -0.000000,  -0.440248,  -0.000000]
    <r_h> [Ang]:                        [  0.000000,  -0.000000,  -1.664088]
    <r_e> [Ang]:                        [ -0.000000,   0.000000,   1.374912]
    |<r_e - r_h>| [Ang]:                  3.039000
    Hole size [Ang]:                      1.191644
      Cartesian components [Ang]:       [  0.483814,   0.818920,   0.717850]
    Electron size [Ang]:                  2.613069
      Cartesian components [Ang]:       [  1.495239,   1.079624,   1.851162]
    RMS electron-hole separation [Ang]:   4.156490
      Cartesian components [Ang]:       [  1.570815,   1.353268,   3.602446]
    Covariance(r_h, r_e) [Ang^2]:         0.103629
    Correlation coefficient:              0.033280
    Center-of-mass size [Ang]:            1.453909
      Cartesian components [Ang]:       [  0.786157,   0.678436,   1.017611]

  Decomposition into state-averaged NTOs
    H- 0 -> L+ 1: -0.4336 ( 37.6%)
    H- 0 -> L+ 0:  0.3742 ( 28.0%)
    H- 0 -> L+ 3:  0.2741 ( 15.0%)
    H- 0 -> L+ 4: -0.1255 (  3.2%)
    H- 1 -> L+ 1: -0.0783 (  1.2%)
                   omega =  85.6%
  ----------------------------------------------------------------------------


  Excited state 5 (singlet, B2)                                    [converged]
  ----------------------------------------------------------------------------
  Term symbol:  5 (1) B2                                    R^2 =  5.36617e-09

  Total energy:                                           -153.7164056058 a.u.
  Excitation energy:                                               6.876263 eV

  Osc. strength:                                                      0.121717
  Trans. dip. moment [a.u.]:           [  -0.000000,    0.850003,    0.000000]
  <i|r^2|0> [a.u.]:                    [  -0.000000,   -0.000000,   -0.000000]

  Dip. moment [a.u.]:                  [  -0.000000,    0.000000,    0.515216]
  Total dipole [Debye]:                                               1.309548
  <r^2> [a.u.]:                        [  62.769820,   26.568348,  220.451332]
  Total <r^2> [a.u.]:                                               309.789501

  V1^2 = 0.9475, V2^2 = 0.0525

  Important amplitudes:
      occ i      occ j       vir a       vir b          v   
    ---------------------------------------------------------
     1 (B2) A               8 (A1) A                 -0.6587
     1 (B2) A              10 (A1) A                 -0.1329
    ---------------------------------------------------------

  Density matrix analysis:
  ------------------------
  NOs
    Occupation of frontier NOs:
       0.9792   0.9947
    Number of electrons: 26.000000
    Number of unpaired electrons: n_u =  2.63595, n_u,nl =  2.07302
    NO participation ratio (PR_NO):  3.531477
  
  
  Mulliken Population Analysis
  Atom      Charge (e)              h+              e-           Del q
  --------------------------------------------------------------------
   1 C       -0.505389        0.519048       -0.784274       -0.265227
   2 C       -0.505389        0.519048       -0.784274       -0.265227
   3 H        0.281596        0.047231        0.025035        0.072265
   4 H        0.281596        0.047231        0.025035        0.072265
   5 H        0.218963        0.101894        0.072871        0.174765
   6 H        0.218963        0.101894        0.072871        0.174765
   7 O       -1.064501        0.059322       -0.041363        0.017960
   8 H        0.074159        0.017649        0.000784        0.018432
  --------------------------------------------------------------------
  Sum:       -1.000000        1.413316       -1.413316        0.000000
  
  Multipole moment analysis of the density matrix
    Molecular charge:                      -1.000000
    Number of electrons:                   26.000000
      Center of electronic charge [Ang]: [  0.000000,  -0.000000,  -0.010486]
    Total nuclear charge:                  25.000000
      Center of nuclear charge [Ang]:    [  0.000000,   0.000000,  -0.000000]
    Dipole moment [D]:                     1.309547
      Cartesian components [D]:          [ -0.000000,   0.000000,   1.309547]
    RMS size of the density [Ang]:         1.826588
      Cartesian components [Ang]:        [  0.822224,   0.534930,   1.540851]
  
  Exciton analysis of the difference density matrix
    <r_h> [Ang]:                  [ -0.000000,   0.000000,   0.901106]
    <r_e> [Ang]:                  [  0.000000,  -0.000000,   1.516808]
    |<r_e - r_h>| [Ang]:            0.615703
    Hole size [Ang]:                1.725467
      Cartesian components [Ang]: [  0.998130,   0.884849,   1.094539]
    Electron size [Ang]:            2.493164
      Cartesian components [Ang]: [  1.491344,   1.431421,   1.393842]

  Transition density matrix analysis:
  -----------------------------------
  
  CT numbers (Mulliken)
    omega =     0.9163
    <Phe> =    -0.0133
  
  Exciton analysis of the transition density matrix
    Trans. dipole moment [D]:             1.080246
      Cartesian components [D]:         [ -0.000000,   1.080246,   0.000000]
    <r_h> [Ang]:                        [  0.000000,   0.000000,   0.962590]
    <r_e> [Ang]:                        [  0.000000,  -0.000000,   1.873667]
    |<r_e - r_h>| [Ang]:                  0.911076
    Hole size [Ang]:                      1.334242
      Cartesian components [Ang]:       [  0.753924,   0.873199,   0.670317]
    Electron size [Ang]:                  2.713060
      Cartesian components [Ang]:       [  1.674756,   1.658770,   1.343267]
    RMS electron-hole separation [Ang]:   3.152615
      Cartesian components [Ang]:       [  1.828871,   1.863342,   1.766966]
    Covariance(r_h, r_e) [Ang^2]:         0.015987
    Correlation coefficient:              0.004417
    Center-of-mass size [Ang]:            1.514337
      Cartesian components [Ang]:       [  0.922178,   0.942861,   0.744190]

  Decomposition into state-averaged NTOs
    H- 1 -> L+ 1:  0.5583 ( 62.3%)
    H- 1 -> L+ 0:  0.3737 ( 27.9%)
                   omega =  91.6%
  ----------------------------------------------------------------------------


  Excited state 6 (singlet, B2)                                    [converged]
  ----------------------------------------------------------------------------
  Term symbol:  6 (1) B2                                    R^2 =  1.22302e-07

  Total energy:                                           -153.6784686797 a.u.
  Excitation energy:                                               7.908579 eV

  Osc. strength:                                                      0.004003
  Trans. dip. moment [a.u.]:           [   0.000000,   -0.143739,    0.000000]
  <i|r^2|0> [a.u.]:                    [   0.000000,    0.000000,    0.000000]

  Dip. moment [a.u.]:                  [   0.000000,    0.000000,   -3.152250]
  Total dipole [Debye]:                                               8.012223
  <r^2> [a.u.]:                        [  66.974887,   24.169552,  204.202653]
  Total <r^2> [a.u.]:                                               295.347093

  V1^2 = 0.8743, V2^2 = 0.1257

  Important amplitudes:
      occ i      occ j       vir a       vir b          v   
    ---------------------------------------------------------
     2 (B2) A              11 (A1) A                 -0.6447
     2 (B2) A              10 (A1) A                  0.0900
    ---------------------------------------------------------

  Density matrix analysis:
  ------------------------
  NOs
    Occupation of frontier NOs:
       0.9650   0.9905
    Number of electrons: 26.000000
    Number of unpaired electrons: n_u =  2.74675, n_u,nl =  2.11341
    NO participation ratio (PR_NO):  3.882989
  
  
  Mulliken Population Analysis
  Atom      Charge (e)              h+              e-           Del q
  --------------------------------------------------------------------
   1 C       -0.628317        0.058198       -0.446353       -0.388155
   2 C       -0.628317        0.058198       -0.446353       -0.388155
   3 H        0.149118        0.003154       -0.063367       -0.060213
   4 H        0.149118        0.003154       -0.063367       -0.060213
   5 H       -0.010232        0.018177       -0.072608       -0.054431
   6 H       -0.010232        0.018177       -0.072608       -0.054431
   7 O       -0.174426        1.365394       -0.457360        0.908034
   8 H        0.153288        0.118869       -0.021308        0.097561
  --------------------------------------------------------------------
  Sum:       -1.000000        1.643323       -1.643323        0.000000
  
  Multipole moment analysis of the density matrix
    Molecular charge:                      -1.000000
    Number of electrons:                   26.000000
      Center of electronic charge [Ang]: [ -0.000000,  -0.000000,   0.064158]
    Total nuclear charge:                  25.000000
      Center of nuclear charge [Ang]:    [  0.000000,   0.000000,  -0.000000]
    Dipole moment [D]:                     8.012221
      Cartesian components [D]:          [  0.000000,   0.000000,  -8.012221]
    RMS size of the density [Ang]:         1.782377
      Cartesian components [Ang]:        [  0.849318,   0.510210,   1.481625]
  
  Exciton analysis of the difference density matrix
    <r_h> [Ang]:                  [  0.000000,  -0.000000,  -1.465475]
    <r_e> [Ang]:                  [ -0.000000,  -0.000000,   0.245036]
    |<r_e - r_h>| [Ang]:            1.710511
    Hole size [Ang]:                1.687572
      Cartesian components [Ang]: [  0.800646,   0.846445,   1.220818]
    Electron size [Ang]:            2.557366
      Cartesian components [Ang]: [  1.553571,   1.181744,   1.652277]

  Transition density matrix analysis:
  -----------------------------------
  
  CT numbers (Mulliken)
    omega =     0.8567
    <Phe> =    -0.0003
  
  Exciton analysis of the transition density matrix
    Trans. dipole moment [D]:             0.182674
      Cartesian components [D]:         [  0.000000,  -0.182674,   0.000000]
    <r_h> [Ang]:                        [  0.000000,  -0.000000,  -1.716281]
    <r_e> [Ang]:                        [ -0.000000,  -0.000000,   1.205808]
    |<r_e - r_h>| [Ang]:                  2.922089
    Hole size [Ang]:                      1.127875
      Cartesian components [Ang]:       [  0.478422,   0.819725,   0.609315]
    Electron size [Ang]:                  2.583425
      Cartesian components [Ang]:       [  1.863005,   1.414649,   1.096386]
    RMS electron-hole separation [Ang]:   4.056604
      Cartesian components [Ang]:       [  1.922871,   1.631243,   3.177680]
    Covariance(r_h, r_e) [Ang^2]:         0.014375
    Correlation coefficient:              0.004933
    Center-of-mass size [Ang]:            1.411996
      Cartesian components [Ang]:       [  0.962018,   0.819361,   0.630002]

  Decomposition into state-averaged NTOs
    H- 0 -> L+ 5: -0.6510 ( 84.8%)
                   omega =  85.7%
  ----------------------------------------------------------------------------


  Excited state 7 (singlet, B2)                                    [converged]
  ----------------------------------------------------------------------------
  Term symbol:  7 (1) B2                                    R^2 =  2.68661e-07

  Total energy:                                           -153.6537829483 a.u.
  Excitation energy:                                               8.580312 eV

  Osc. strength:                                                      0.015284
  Trans. dip. moment [a.u.]:           [  -0.000000,   -0.269638,    0.000000]
  <i|r^2|0> [a.u.]:                    [   0.000000,    0.000000,   -0.000000]

  Dip. moment [a.u.]:                  [   0.000000,   -0.000000,   -0.660033]
  Total dipole [Debye]:                                               1.677636
  <r^2> [a.u.]:                        [  61.825087,   20.482250,  206.428781]
  Total <r^2> [a.u.]:                                               288.736119

  V1^2 = 0.9020, V2^2 = 0.0980

  Important amplitudes:
      occ i      occ j       vir a       vir b          v   
    ---------------------------------------------------------
     2 (B2) A              12 (A1) A                  0.6149
     2 (B2) A              13 (A1) A                  0.1893
    ---------------------------------------------------------

  Density matrix analysis:
  ------------------------
  NOs
    Occupation of frontier NOs:
       0.9515   1.0080
    Number of electrons: 26.000000
    Number of unpaired electrons: n_u =  2.77433, n_u,nl =  2.12855
    NO participation ratio (PR_NO):  3.998591
  
  
  Mulliken Population Analysis
  Atom      Charge (e)              h+              e-           Del q
  --------------------------------------------------------------------
   1 C       -0.105912        0.055479        0.078772        0.134251
   2 C       -0.105912        0.055479        0.078772        0.134251
   3 H       -0.161450       -0.002289       -0.368492       -0.370781
   4 H       -0.161450       -0.002289       -0.368492       -0.370781
   5 H        0.063090        0.012732        0.006159        0.018892
   6 H        0.063090        0.012732        0.006159        0.018892
   7 O       -0.742598        1.232095       -0.892233        0.339862
   8 H        0.151142        0.099834       -0.004419        0.095415
  --------------------------------------------------------------------
  Sum:       -1.000000        1.463774       -1.463774        0.000000
  
  Multipole moment analysis of the density matrix
    Molecular charge:                      -1.000000
    Number of electrons:                   26.000000
      Center of electronic charge [Ang]: [ -0.000000,   0.000000,   0.013434]
    Total nuclear charge:                  25.000000
      Center of nuclear charge [Ang]:    [  0.000000,   0.000000,  -0.000000]
    Dipole moment [D]:                     1.677635
      Cartesian components [D]:          [  0.000000,  -0.000000,  -1.677635]
    RMS size of the density [Ang]:         1.763406
      Cartesian components [Ang]:        [  0.816013,   0.469681,   1.491015]
  
  Exciton analysis of the difference density matrix
    <r_h> [Ang]:                  [  0.000000,  -0.000000,  -1.505576]
    <r_e> [Ang]:                  [ -0.000000,   0.000000,  -0.486227]
    |<r_e - r_h>| [Ang]:            1.019349
    Hole size [Ang]:                1.597690
      Cartesian components [Ang]: [  0.760625,   0.842404,   1.124464]
    Electron size [Ang]:            2.262678
      Cartesian components [Ang]: [  1.258307,   0.876189,   1.663932]

  Transition density matrix analysis:
  -----------------------------------
  
  CT numbers (Mulliken)
    omega =     0.8801
    <Phe> =    -0.0060
  
  Exciton analysis of the transition density matrix
    Trans. dipole moment [D]:             0.342676
      Cartesian components [D]:         [ -0.000000,  -0.342676,   0.000000]
    <r_h> [Ang]:                        [  0.000000,  -0.000000,  -1.623167]
    <r_e> [Ang]:                        [ -0.000000,   0.000000,  -0.130881]
    |<r_e - r_h>| [Ang]:                  1.492286
    Hole size [Ang]:                      1.233488
      Cartesian components [Ang]:       [  0.515178,   0.801550,   0.783328]
    Electron size [Ang]:                  2.397176
      Cartesian components [Ang]:       [  1.399418,   0.936534,   1.706162]
    RMS electron-hole separation [Ang]:   3.033422
      Cartesian components [Ang]:       [  1.488690,   1.232340,   2.338117]
    Covariance(r_h, r_e) [Ang^2]:         0.146607
    Correlation coefficient:              0.049581
    Center-of-mass size [Ang]:            1.374878
      Cartesian components [Ang]:       [  0.746887,   0.616542,   0.975872]

  Decomposition into state-averaged NTOs
    H- 0 -> L+ 4:  0.5258 ( 55.3%)
    H- 0 -> L+ 3:  0.3737 ( 27.9%)
    H- 3 -> L+ 2:  0.1326 (  3.5%)
                   omega =  88.0%
  ----------------------------------------------------------------------------


  Excited state 8 (singlet, B2)                                    [converged]
  ----------------------------------------------------------------------------
  Term symbol:  8 (1) B2                                    R^2 =  7.74229e-08

  Total energy:                                           -153.6464808670 a.u.
  Excitation energy:                                               8.779012 eV

  Osc. strength:                                                      0.010735
  Trans. dip. moment [a.u.]:           [   0.000000,    0.223409,    0.000000]
  <i|r^2|0> [a.u.]:                    [  -0.000000,    0.000000,   -0.000000]

  Dip. moment [a.u.]:                  [  -0.000000,    0.000000,    1.863096]
  Total dipole [Debye]:                                               4.735519
  <r^2> [a.u.]:                        [  57.802904,   23.011658,  207.798968]
  Total <r^2> [a.u.]:                                               288.613530

  V1^2 = 0.9463, V2^2 = 0.0537

  Important amplitudes:
      occ i      occ j       vir a       vir b          v   
    ---------------------------------------------------------
     3 (B1) A               1 (A2) A                 -0.6150
     3 (B1) A               2 (A2) A                  0.2015
    ---------------------------------------------------------

  Density matrix analysis:
  ------------------------
  NOs
    Occupation of frontier NOs:
       0.8916   1.1199
    Number of electrons: 26.000000
    Number of unpaired electrons: n_u =  2.69737, n_u,nl =  2.11972
    NO participation ratio (PR_NO):  4.503019
  
  
  Mulliken Population Analysis
  Atom      Charge (e)              h+              e-           Del q
  --------------------------------------------------------------------
   1 C       -0.441188        0.271632       -0.472657       -0.201025
   2 C       -0.441188        0.271632       -0.472657       -0.201025
   3 H        0.286687        0.099223       -0.021866        0.077357
   4 H        0.286687        0.099223       -0.021866        0.077357
   5 H        0.140838        0.112127       -0.015487        0.096640
   6 H        0.140838        0.112127       -0.015487        0.096640
   7 O       -1.046214        0.091931       -0.055685        0.036246
   8 H        0.073539        0.012558        0.005254        0.017812
  --------------------------------------------------------------------
  Sum:       -1.000000        1.070450       -1.070450       -0.000000
  
  Multipole moment analysis of the density matrix
    Molecular charge:                      -1.000000
    Number of electrons:                   26.000000
      Center of electronic charge [Ang]: [  0.000000,  -0.000000,  -0.037920]
    Total nuclear charge:                  25.000000
      Center of nuclear charge [Ang]:    [  0.000000,   0.000000,  -0.000000]
    Dipole moment [D]:                     4.735517
      Cartesian components [D]:          [ -0.000000,   0.000000,   4.735517]
    RMS size of the density [Ang]:         1.762675
      Cartesian components [Ang]:        [  0.789022,   0.497838,   1.495535]
  
  Exciton analysis of the difference density matrix
    <r_h> [Ang]:                  [  0.000000,  -0.000000,   0.726331]
    <r_e> [Ang]:                  [ -0.000000,  -0.000000,   0.872919]
    |<r_e - r_h>| [Ang]:            0.146588
    Hole size [Ang]:                1.751282
      Cartesian components [Ang]: [  1.086735,   0.558425,   1.254654]
    Electron size [Ang]:            1.880018
      Cartesian components [Ang]: [  1.225878,   1.026122,   0.989326]

  Transition density matrix analysis:
  -----------------------------------
  
  CT numbers (Mulliken)
    omega =     0.9164
    <Phe> =    -0.0165
  
  Exciton analysis of the transition density matrix
    Trans. dipole moment [D]:             0.283925
      Cartesian components [D]:         [  0.000000,   0.283925,   0.000000]
    <r_h> [Ang]:                        [  0.000000,  -0.000000,   0.823913]
    <r_e> [Ang]:                        [ -0.000000,  -0.000000,   0.972776]
    |<r_e - r_h>| [Ang]:                  0.148863
    Hole size [Ang]:                      1.624956
      Cartesian components [Ang]:       [  1.081985,   0.480004,   1.113277]
    Electron size [Ang]:                  1.834054
      Cartesian components [Ang]:       [  1.244952,   1.043661,   0.851248]
    RMS electron-hole separation [Ang]:   2.394159
      Cartesian components [Ang]:       [  1.628646,   1.148051,   1.327210]
    Covariance(r_h, r_e) [Ang^2]:         0.147200
    Correlation coefficient:              0.049392
    Center-of-mass size [Ang]:            1.254854
      Cartesian components [Ang]:       [  0.834970,   0.574726,   0.739712]

  Decomposition into state-averaged NTOs
    H- 3 -> L+ 2:  0.6370 ( 81.2%)
    H- 1 -> L+ 0:  0.1425 (  4.1%)
    H- 0 -> L+ 4: -0.1000 (  2.0%)
    H- 2 -> L+ 6:  0.0808 (  1.3%)
    H- 1 -> L+ 1: -0.0794 (  1.3%)
    H- 0 -> L+ 3: -0.0762 (  1.2%)
                   omega =  91.6%
  ----------------------------------------------------------------------------


  Excited state 9 (singlet, B2)                                    [converged]
  ----------------------------------------------------------------------------
  Term symbol:  9 (1) B2                                    R^2 =  7.74487e-08

  Total energy:                                           -153.6377664285 a.u.
  Excitation energy:                                               9.016144 eV

  Osc. strength:                                                      0.028572
  Trans. dip. moment [a.u.]:           [  -0.000000,    0.359651,   -0.000000]
  <i|r^2|0> [a.u.]:                    [  -0.000000,   -0.000000,   -0.000000]

  Dip. moment [a.u.]:                  [   0.000000,   -0.000000,    2.539280]
  Total dipole [Debye]:                                               6.454208
  <r^2> [a.u.]:                        [  62.013103,   22.875472,  218.646726]
  Total <r^2> [a.u.]:                                               303.535301

  V1^2 = 0.9517, V2^2 = 0.0483

  Important amplitudes:
      occ i      occ j       vir a       vir b          v   
    ---------------------------------------------------------
     1 (B2) A              10 (A1) A                  0.5313
     1 (B2) A               9 (A1) A                  0.3452
    ---------------------------------------------------------

  Density matrix analysis:
  ------------------------
  NOs
    Occupation of frontier NOs:
       0.9279   1.0414
    Number of electrons: 26.000000
    Number of unpaired electrons: n_u =  2.64597, n_u,nl =  2.09687
    NO participation ratio (PR_NO):  3.869605
  
  
  Mulliken Population Analysis
  Atom      Charge (e)              h+              e-           Del q
  --------------------------------------------------------------------
   1 C       -0.386925        0.478579       -0.625342       -0.146763
   2 C       -0.386925        0.478579       -0.625342       -0.146763
   3 H        0.318884        0.066644        0.042909        0.109553
   4 H        0.318884        0.066644        0.042909        0.109553
   5 H        0.021633        0.077501       -0.100067       -0.022566
   6 H        0.021633        0.077501       -0.100067       -0.022566
   7 O       -1.112865        0.055181       -0.085586       -0.030405
   8 H        0.205683        0.017989        0.131967        0.149956
  --------------------------------------------------------------------
  Sum:       -1.000000        1.318619       -1.318619        0.000000
  
  Multipole moment analysis of the density matrix
    Molecular charge:                      -1.000000
    Number of electrons:                   26.000000
      Center of electronic charge [Ang]: [ -0.000000,   0.000000,  -0.051682]
    Total nuclear charge:                  25.000000
      Center of nuclear charge [Ang]:    [  0.000000,   0.000000,  -0.000000]
    Dipole moment [D]:                     6.454206
      Cartesian components [D]:          [  0.000000,  -0.000000,   6.454206]
    RMS size of the density [Ang]:         1.807347
      Cartesian components [Ang]:        [  0.817252,   0.496363,   1.533697]
  
  Exciton analysis of the difference density matrix
    <r_h> [Ang]:                  [ -0.000000,   0.000000,   0.877663]
    <r_e> [Ang]:                  [ -0.000000,   0.000000,   0.725301]
    |<r_e - r_h>| [Ang]:            0.152361
    Hole size [Ang]:                1.693614
      Cartesian components [Ang]: [  0.995428,   0.859114,   1.067415]
    Electron size [Ang]:            2.617486
      Cartesian components [Ang]: [  1.464991,   1.144888,   1.842353]

  Transition density matrix analysis:
  -----------------------------------
  
  CT numbers (Mulliken)
    omega =     0.9192
    <Phe> =    -0.0044
  
  Exciton analysis of the transition density matrix
    Trans. dipole moment [D]:             0.457071
      Cartesian components [D]:         [ -0.000000,   0.457071,  -0.000000]
    <r_h> [Ang]:                        [  0.000000,   0.000000,   0.980640]
    <r_e> [Ang]:                        [ -0.000000,   0.000000,   0.779191]
    |<r_e - r_h>| [Ang]:                  0.201449
    Hole size [Ang]:                      1.319727
      Cartesian components [Ang]:       [  0.780780,   0.851927,   0.637403]
    Electron size [Ang]:                  2.863627
      Cartesian components [Ang]:       [  1.594851,   1.272574,   2.009319]
    RMS electron-hole separation [Ang]:   3.159515
      Cartesian components [Ang]:       [  1.767308,   1.527479,   2.127431]
    Covariance(r_h, r_e) [Ang^2]:         0.000044
    Correlation coefficient:              0.000012
    Center-of-mass size [Ang]:            1.576557
      Cartesian components [Ang]:       [  0.892042,   0.767668,   1.049037]

  Decomposition into state-averaged NTOs
    H- 1 -> L+ 0:  0.5430 ( 59.0%)
    H- 1 -> L+ 1: -0.3673 ( 27.0%)
    H- 3 -> L+ 2: -0.1575 (  5.0%)
                   omega =  91.9%
  ----------------------------------------------------------------------------


  Excited state 10 (singlet, B2)                                    [converged]
  ----------------------------------------------------------------------------
  Term symbol:  10 (1) B2                                   R^2 =  1.05515e-06

  Total energy:                                           -153.6152669516 a.u.
  Excitation energy:                                               9.628386 eV

  Osc. strength:                                                      0.008642
  Trans. dip. moment [a.u.]:           [   0.000000,   -0.191400,   -0.000000]
  <i|r^2|0> [a.u.]:                    [  -0.000000,   -0.000000,   -0.000000]

  Dip. moment [a.u.]:                  [   0.000000,   -0.000000,   -2.719913]
  Total dipole [Debye]:                                               6.913330
  <r^2> [a.u.]:                        [  63.849133,   27.804688,  202.209642]
  Total <r^2> [a.u.]:                                               293.863462

  V1^2 = 0.8663, V2^2 = 0.1337

  Important amplitudes:
      occ i      occ j       vir a       vir b          v   
    ---------------------------------------------------------
     4 (B1) A               2 (A2) A                 -0.6386
     4 (B1) A               1 (A2) A                 -0.1183
    ---------------------------------------------------------

  Density matrix analysis:
  ------------------------
  NOs
    Occupation of frontier NOs:
       0.9636   0.9839
    Number of electrons: 26.000000
    Number of unpaired electrons: n_u =  2.79678, n_u,nl =  2.12750
    NO participation ratio (PR_NO):  4.050399
  
  
  Mulliken Population Analysis
  Atom      Charge (e)              h+              e-           Del q
  --------------------------------------------------------------------
   1 C       -0.655487        0.088858       -0.504182       -0.415324
   2 C       -0.655487        0.088858       -0.504182       -0.415324
   3 H        0.139996       -0.000951       -0.068384       -0.069335
   4 H        0.139996       -0.000951       -0.068384       -0.069335
   5 H        0.038897        0.006820       -0.012121       -0.005301
   6 H        0.038897        0.006820       -0.012121       -0.005301
   7 O       -0.196254        1.331838       -0.445633        0.886206
   8 H        0.149441        0.113286       -0.019572        0.093714
  --------------------------------------------------------------------
  Sum:       -1.000000        1.634579       -1.634579       -0.000000
  
  Multipole moment analysis of the density matrix
    Molecular charge:                      -1.000000
    Number of electrons:                   26.000000
      Center of electronic charge [Ang]: [ -0.000000,   0.000000,   0.055358]
    Total nuclear charge:                  25.000000
      Center of nuclear charge [Ang]:    [  0.000000,   0.000000,  -0.000000]
    Dipole moment [D]:                     6.913328
      Cartesian components [D]:          [  0.000000,  -0.000000,  -6.913328]
    RMS size of the density [Ang]:         1.778185
      Cartesian components [Ang]:        [  0.829262,   0.547234,   1.474720]
  
  Exciton analysis of the difference density matrix
    <r_h> [Ang]:                  [  0.000000,  -0.000000,  -1.420576]
    <r_e> [Ang]:                  [ -0.000000,   0.000000,   0.159120]
    |<r_e - r_h>| [Ang]:            1.579697
    Hole size [Ang]:                1.678043
      Cartesian components [Ang]: [  0.882446,   0.723463,   1.230333]
    Electron size [Ang]:            2.483467
      Cartesian components [Ang]: [  1.423114,   1.352716,   1.520695]

  Transition density matrix analysis:
  -----------------------------------
  
  CT numbers (Mulliken)
    omega =     0.8459
    <Phe> =     0.0000
  
  Exciton analysis of the transition density matrix
    Trans. dipole moment [D]:             0.243244
      Cartesian components [D]:         [  0.000000,  -0.243244,  -0.000000]
    <r_h> [Ang]:                        [  0.000000,   0.000000,  -1.657772]
    <r_e> [Ang]:                        [ -0.000000,   0.000000,   1.018331]
    |<r_e - r_h>| [Ang]:                  2.676103
    Hole size [Ang]:                      1.210793
      Cartesian components [Ang]:       [  0.823188,   0.467519,   0.754855]
    Electron size [Ang]:                  2.538180
      Cartesian components [Ang]:       [  1.689214,   1.633470,   0.959527]
    RMS electron-hole separation [Ang]:   3.881082
      Cartesian components [Ang]:       [  1.871720,   1.698798,   2.945089]
    Covariance(r_h, r_e) [Ang^2]:         0.003553
    Correlation coefficient:              0.001156
    Center-of-mass size [Ang]:            1.406724
      Cartesian components [Ang]:       [  0.943243,   0.849659,   0.606006]

  Decomposition into state-averaged NTOs
    H- 2 -> L+ 6: -0.6391 ( 81.7%)
    H- 3 -> L+ 2:  0.0898 (  1.6%)
                   omega =  84.6%
  ----------------------------------------------------------------------------


--------------------------------------------------------------------------------
  Time of ADC calculation:  CPU 204.49 s  wall 55.10 s
================================================================================
 
 --------------------------------------------------------------
             Orbital Energies (a.u.) and Symmetries
 --------------------------------------------------------------
 
 Alpha MOs, Restricted
 -- Occupied --                  
-20.212 -11.046 -11.044  -0.929  -0.852  -0.597  -0.472  -0.382
  1 A1    2 A1    1 B1    3 A1    4 A1    2 B1    5 A1    6 A1                 
 -0.326  -0.270  -0.193  -0.129  -0.128
  3 B1    7 A1    1 B2    4 B1    2 B2                                         
 -- Virtual --                   
  0.224   0.255   0.306   0.308   0.372   0.397   0.412   0.418
  5 B1    8 A1    1 A2    9 A1   10 A1    3 B2    6 B1   11 A1                 
  0.444   0.463   0.494   0.501   0.508   0.552   0.561   0.583
  4 B2    7 B1    8 B1   12 A1    2 A2   13 A1    9 B1   14 A1                 
  0.700   0.704   0.777   0.963   1.011   1.083   1.097   1.122
 15 A1   10 B1   11 B1   16 A1   17 A1   18 A1   12 B1   19 A1                 
  1.168   1.171   1.206   1.219   1.250   1.291   1.302   1.332
  5 B2   13 B1   20 A1    6 B2    3 A2    4 A2   14 B1   21 A1                 
  1.335   1.339   1.370   1.464   1.472   1.484   1.604   1.658
 22 A1   15 B1    7 B2   16 B1    8 B2    5 A2   17 B1   23 A1                 
  1.713   1.751   1.870   1.924   2.033   2.058   2.107   2.130
  9 B2   18 B1   24 A1   19 B1   25 A1    6 A2   26 A1   10 B2                 
  2.184   2.214   2.246   2.327   2.365   2.395   2.419   2.505
 20 B1   11 B2   27 A1   28 A1    7 A2   12 B2   21 B1   22 B1                 
  2.577   2.605   2.759   2.761   2.855   3.022   3.038   3.105
 29 A1    8 A2   23 B1   30 A1   24 B1   31 A1   32 A1   33 A1                 
  3.466   3.566   3.923   3.946   3.973   4.088   4.547
 25 B1   26 B1   13 B2    9 A2   34 A1   27 B1   35 A1                         
 
 Beta MOs, Restricted
 -- Occupied --                  
-20.212 -11.046 -11.044  -0.929  -0.852  -0.597  -0.472  -0.382
  1 A1    2 A1    1 B1    3 A1    4 A1    2 B1    5 A1    6 A1                 
 -0.326  -0.270  -0.193  -0.129  -0.128
  3 B1    7 A1    1 B2    4 B1    2 B2                                         
 -- Virtual --                   
  0.224   0.255   0.306   0.308   0.372   0.397   0.412   0.418
  5 B1    8 A1    1 A2    9 A1   10 A1    3 B2    6 B1   11 A1                 
  0.444   0.463   0.494   0.501   0.508   0.552   0.561   0.583
  4 B2    7 B1    8 B1   12 A1    2 A2   13 A1    9 B1   14 A1                 
  0.700   0.704   0.777   0.963   1.011   1.083   1.097   1.122
 15 A1   10 B1   11 B1   16 A1   17 A1   18 A1   12 B1   19 A1                 
  1.168   1.171   1.206   1.219   1.250   1.291   1.302   1.332
  5 B2   13 B1   20 A1    6 B2    3 A2    4 A2   14 B1   21 A1                 
  1.335   1.339   1.370   1.464   1.472   1.484   1.604   1.658
 22 A1   15 B1    7 B2   16 B1    8 B2    5 A2   17 B1   23 A1                 
  1.713   1.751   1.870   1.924   2.033   2.058   2.107   2.130
  9 B2   18 B1   24 A1   19 B1   25 A1    6 A2   26 A1   10 B2                 
  2.184   2.214   2.246   2.327   2.365   2.395   2.419   2.505
 20 B1   11 B2   27 A1   28 A1    7 A2   12 B2   21 B1   22 B1                 
  2.577   2.605   2.759   2.761   2.855   3.022   3.038   3.105
 29 A1    8 A2   23 B1   30 A1   24 B1   31 A1   32 A1   33 A1                 
  3.466   3.566   3.923   3.946   3.973   4.088   4.547
 25 B1   26 B1   13 B2    9 A2   34 A1   27 B1   35 A1                         
 --------------------------------------------------------------
 
          Ground-State Mulliken Net Atomic Charges

     Atom                 Charge (a.u.)
  ----------------------------------------
      1 C                    -0.234740
      2 C                    -0.234740
      3 H                     0.202991
      4 H                     0.202991
      5 H                     0.036541
      6 H                     0.036541
      7 O                    -1.081749
      8 H                     0.072165
  ----------------------------------------
  Sum of atomic charges =    -1.000000

 -----------------------------------------------------------------
                    Cartesian Multipole Moments
 -----------------------------------------------------------------
    Charge (ESU x 10^10)
                -4.8032
    Dipole Moment (Debye)
         X      -0.0000      Y      -0.0000      Z       5.3210
       Tot       5.3210
    Quadrupole Moments (Debye-Ang)
        XX     -23.5513     XY       0.0000     YY     -26.2268
        XZ      -0.0000     YZ      -0.0000     ZZ     -32.7461
    Octopole Moments (Debye-Ang^2)
       XXX      -0.0000    XXY      -0.0000    XYY      -0.0000
       YYY      -0.0000    XXZ       1.2360    XYZ      -0.0000
       YYZ       0.3452    XZZ      -0.0000    YZZ       0.0000
       ZZZ       6.7900
    Hexadecapole Moments (Debye-Ang^3)
      XXXX     -86.6857   XXXY       0.0000   XXYY     -20.9297
      XYYY       0.0000   YYYY     -36.4007   XXXZ      -0.0000
      XXYZ      -0.0000   XYYZ      -0.0000   YYYZ      -0.0000
      XXZZ     -69.8183   XYZZ       0.0000   YYZZ     -64.2099
      XZZZ      -0.0000   YZZZ      -0.0000   ZZZZ    -290.5511
 -----------------------------------------------------------------
 Total job time:  164.22s(wall), 252.47s(cpu) 
 Fri Mar  4 19:59:59 2022

        *************************************************************
        *                                                           *
        *  Thank you very much for using Q-Chem.  Have a nice day.  *
        *                                                           *
        *************************************************************


