/src/tsommerfeld/qchem/exe/qcprog.exe .input0.975758.14600.qcin.1 /src/jdavis/qchem.scratch/qchem14600/

                  Welcome to Q-Chem
     A Quantum Leap Into The Future Of Chemistry


 Q-Chem 5.4 (devel), Q-Chem, Inc., Pleasanton, CA (2021)

 E. Epifanovsky,  A. T. B. Gilbert,  Xintian Feng,  Joonho Lee,  Yuezhi Mao,  
 N. Mardirossian,  P. Pokhilko,  A. White,  M. Wormit,  M. P. Coons,  
 A. L. Dempwolff,  Zhengting Gan,  D. Hait,  P. R. Horn,  L. D. Jacobson,  
 I. Kaliman,  J. Kussmann,  A. W. Lange,  Ka Un Lao,  D. S. Levine,  Jie Liu,  
 S. C. McKenzie,  A. F. Morrison,  K. Nanda,  F. Plasser,  D. R. Rehn,  
 M. L. Vidal,  Zhi-Qiang You,  Ying Zhu,  B. Alam,  B. Albrecht,  
 A. Aldossary,  E. Alguire,  J. H. Andersen,  D. Barton,  K. Begam,  A. Behn,  
 Y. A. Bernard,  E. J. Berquist,  H. Burton,  A. Carreras,  K. Carter-Fenk,  
 R. Chakraborty,  A. D. Chien,  K. D. Closser,  V. Cofer-Shabica,  
 S. Dasgupta,  Jia Deng,  M. de Wergifosse,  M. Diedenhofen,  Hainam Do,  
 S. Ehlert,  Po-Tung Fang,  S. Fatehi,  Qingguo Feng,  T. Friedhoff,  
 J. Gayvert,  Qinghui Ge,  G. Gidofalvi,  M. Goldey,  J. Gomes,  
 C. Gonzalez-Espinoza,  S. Gulania,  A. Gunina,  M. W. D. Hanson-Heine,  
 P. H. P. Harbach,  A. W. Hauser,  M. F. Herbst,  M. Hernandez Vera,  
 M. Hodecker,  Z. C. Holden,  S. Houck,  Xunkun Huang,  Kerwin Hui,  
 B. C. Huynh,  M. Ivanov,  Hyunjun Ji,  Hanjie Jiang,  B. Kaduk,  S. Kaehler,  
 K. Khistyaev,  Jaehoon Kim,  P. Klunzinger,  Z. Koczor-Benda,  
 Joong Hoon Koh,  D. Kosenkov,  L. Koulias,  T. Kowalczyk,  C. M. Krauter,  
 K. Kue,  A. Kunitsa,  T. Kus,  A. Landau,  K. V. Lawler,  D. Lefrancois,  
 S. Lehtola,  Rain Li,  Yi-Pei Li,  Jiashu Liang,  M. Liebenthal,  
 Hung-Hsuan Lin,  You-Sheng Lin,  Fenglai Liu,  Kuan-Yu Liu,  
 M. Loipersberger,  A. Luenser,  A. Manjanath,  P. Manohar,  E. Mansoor,  
 S. F. Manzer,  Shan-Ping Mao,  A. V. Marenich,  T. Markovich,  S. Mason,  
 S. A. Maurer,  P. F. McLaughlin,  M. F. S. J. Menger,  J.-M. Mewes,  
 S. A. Mewes,  P. Morgante,  J. W. Mullinax,  K. J. Oosterbaan,  G. Paran,  
 Alexander C. Paul,  Suranjan K. Paul,  F. Pavosevic,  Zheng Pei,  S. Prager,  
 E. I. Proynov,  E. Ramos,  B. Rana,  A. E. Rask,  A. Rettig,  R. M. Richard,  
 F. Rob,  E. Rossomme,  T. Scheele,  M. Scheurer,  M. Schneider,  
 N. Sergueev,  S. M. Sharada,  W. Skomorowski,  D. W. Small,  C. J. Stein,  
 Yu-Chuan Su,  E. J. Sundstrom,  Zhen Tao,  J. Thirman,  T. Tsuchimochi,  
 N. M. Tubman,  S. P. Veccham,  O. Vydrov,  J. Wenzel,  J. Witte,  A. Yamada,  
 Kun Yao,  S. Yeganeh,  S. R. Yost,  A. Zech,  Igor Ying Zhang,  Xing Zhang,  
 Yu Zhang,  D. Zuev,  A. Aspuru-Guzik,  A. T. Bell,  N. A. Besley,  
 K. B. Bravaya,  B. R. Brooks,  D. Casanova,  Jeng-Da Chai,  S. Coriani,  
 C. J. Cramer,  A. E. DePrince, III,  R. A. DiStasio Jr.,  A. Dreuw,  
 B. D. Dunietz,  T. R. Furlani,  W. A. Goddard III,  S. Grimme,  
 S. Hammes-Schiffer,  T. Head-Gordon,  W. J. Hehre,  Chao-Ping Hsu,  
 T.-C. Jagau,  Yousung Jung,  A. Klamt,  Jing Kong,  D. S. Lambrecht,  
 WanZhen Liang,  N. J. Mayhall,  C. W. McCurdy,  J. B. Neaton,  
 C. Ochsenfeld,  J. A. Parkhill,  R. Peverati,  V. A. Rassolov,  Yihan Shao,  
 L. V. Slipchenko,  T. Stauch,  R. P. Steele,  J. E. Subotnik,  
 A. J. W. Thom,  A. Tkatchenko,  D. G. Truhlar,  T. Van Voorhis,  
 T. A. Wesolowski,  K. B. Whaley,  H. L. Woodcock III,  P. M. Zimmerman,  
 S. Faraji,  P. M. W. Gill,  M. Head-Gordon,  J. M. Herbert,  A. I. Krylov

 Additional authors for Version 5.4.1: 
 S. Kotaru,  Shaozhi Li,  Xiangyuan Li,  F. Matz,  A. Molle,  Haisheng Ren,  
 Yingli Su,  Hung-Yi Tsai,  C. Utku,  Fang Wang

 Contributors to earlier versions of Q-Chem not listed above: 
 R. D. Adamson,  B. Austin,  R. Baer,  J. Baker,  G. J. O. Beran,  
 K. Brandhorst,  S. T. Brown,  E. F. C. Byrd,  A. K. Chakraborty,  
 G. K. L. Chan,  Chun-Min Chang,  Yunqing Chen,  C.-L. Cheng,  
 Siu Hung Chien,  D. M. Chipman,  D. L. Crittenden,  H. Dachsel,  
 R. J. Doerksen,  A. D. Dutoi,  R. G. Edgar,  J. Fosso-Tande,  
 L. Fusti-Molnar,  D. Ghosh,  A. Ghysels,  A. Golubeva-Zadorozhnaya,  
 J. Gonthier,  M. S. Gordon,  S. R. Gwaltney,  G. Hawkins,  J. E. Herr,  
 A. Heyden,  S. Hirata,  E. G. Hohenstein,  G. Kedziora,  F. J. Keil,  
 C. Kelley,  Jihan Kim,  R. A. King,  R. Z. Khaliullin,  P. P. Korambath,  
 W. Kurlancheek,  A. Laurent,  A. M. Lee,  M. S. Lee,  S. V. Levchenko,  
 Ching Yeh Lin,  D. Liotard,  E. Livshits,  R. C. Lochan,  I. Lotan,  
 L. A. Martinez-Martinez,  P. E. Maslen,  N. Nair,  D. P. O'Neill,  
 D. Neuhauser,  E. Neuscamman,  C. M. Oana,  R. Olivares-Amaya,  R. Olson,  
 T. M. Perrine,  B. Peters,  P. A. Pieniazek,  A. Prociuk,  Y. M. Rhee,  
 J. Ritchie,  M. A. Rohrdanz,  E. Rosta,  N. J. Russ,  H. F. Schaefer III,  
 M. W. Schmidt,  N. E. Schultz,  S. Sharma,  N. Shenvi,  C. D. Sherrill,  
 A. C. Simmonett,  A. Sodt,  T. Stein,  D. Stuck,  K. S. Thanthiriwatte,  
 V. Vanovschi,  L. Vogt,  Tao Wang,  A. Warshel,  M. A. Watson,  
 C. F. Williams,  Q. Wu,  X. Xu,  Jun Yang,  W. Zhang,  Yan Zhao

 Please cite Q-Chem as follows:
 Y. Shao et al., Mol. Phys. 113, 184-215 (2015)
 DOI: 10.1080/00268976.2014.952696

 Q-Chem 5.4.1 for Intel X86 EM64T Linux

 Parts of Q-Chem use Armadillo 9.900.5 (Nocturnal Misbehaviour).
 http://arma.sourceforge.net/

 Q-Chem begins on Fri Mar  4 18:51:45 2022  

 Host: node01
0

     Scratch files written to /src/jdavis/qchem.scratch/qchem14600//
 Processing $rem in /src/tsommerfeld/qchem/config/preferences:
 Processing $rem in /home/jdavis/.qchemrc:

 Checking the input file for inconsistencies... 	...done.

--------------------------------------------------------------
User input:
--------------------------------------------------------------
$molecule
-1 1
C        -0.6645000000    0.0000000000    1.1619088658
C         0.6645000000    0.0000000000    1.1619088658
H        -1.1590800000    0.0000000000    0.1995598658
H         1.1590800000    0.0000000000    0.1995598658
H        -1.1590800000    0.0000000000    2.1242568658
H         1.1590800000    0.0000000000    2.1242568658
O         0.0000000000    0.0000000000   -1.5841414040
H         0.0000000000    0.0000000000   -2.5471307683
$end
$rem
   METHOD adc(2)
   BASIS gen
   PURECART 11
   EE_STATES [0,0,0,10]
   scf_convergence 8
   ADC_DAVIDSON_MAXITER 120
   ADC_DAVIDSON_MAXSUBSPACE 200
   adc_nguess_singles 100
   THRESH 14
   S2THRESH 14
   adc_davidson_conv 5
   adc_davidson_thresh 14
   THREADS 10
   MEM_TOTAL 95000
   STATE_ANALYSIS TRUE
$end
$basis
C 1
S   9   1.00
      6.665000D+03           6.920000D-04
      1.000000D+03           5.329000D-03
      2.280000D+02           2.707700D-02
      6.471000D+01           1.017180D-01
      2.106000D+01           2.747400D-01
      7.495000D+00           4.485640D-01
      2.797000D+00           2.850740D-01
      5.215000D-01           1.520400D-02
      1.596000D-01          -3.191000D-03
S   9   1.00
      6.665000D+03          -1.460000D-04
      1.000000D+03          -1.154000D-03
      2.280000D+02          -5.725000D-03
      6.471000D+01          -2.331200D-02
      2.106000D+01          -6.395500D-02
      7.495000D+00          -1.499810D-01
      2.797000D+00          -1.272620D-01
      5.215000D-01           5.445290D-01
      1.596000D-01           5.804960D-01
S   1   1.00
      1.596000D-01           1.000000D+00
S   1   1.00
      0.0469000              1.0000000
P   4   1.00
      9.439000D+00           3.810900D-02
      2.002000D+00           2.094800D-01
      5.456000D-01           5.085570D-01
      1.517000D-01           4.688420D-01
P   1   1.00
      1.517000D-01           1.000000D+00
P   1   1.00
      0.0422921      1.0000000
D   1   1.00
      5.500000D-01           1.0000000
****
C 2
S   9   1.00
      6.665000D+03           6.920000D-04
      1.000000D+03           5.329000D-03
      2.280000D+02           2.707700D-02
      6.471000D+01           1.017180D-01
      2.106000D+01           2.747400D-01
      7.495000D+00           4.485640D-01
      2.797000D+00           2.850740D-01
      5.215000D-01           1.520400D-02
      1.596000D-01          -3.191000D-03
S   9   1.00
      6.665000D+03          -1.460000D-04
      1.000000D+03          -1.154000D-03
      2.280000D+02          -5.725000D-03
      6.471000D+01          -2.331200D-02
      2.106000D+01          -6.395500D-02
      7.495000D+00          -1.499810D-01
      2.797000D+00          -1.272620D-01
      5.215000D-01           5.445290D-01
      1.596000D-01           5.804960D-01
S   1   1.00
      1.596000D-01           1.000000D+00
S   1   1.00
      0.0469000              1.0000000
P   4   1.00
      9.439000D+00           3.810900D-02
      2.002000D+00           2.094800D-01
      5.456000D-01           5.085570D-01
      1.517000D-01           4.688420D-01
P   1   1.00
      1.517000D-01           1.000000D+00
P   1   1.00
      0.0422921      1.0000000
D   1   1.00
      5.500000D-01           1.0000000
****
H 3
cc-pVDZ
****
H 4
cc-pVDZ
****
H 5
cc-pVDZ
****
H 6
cc-pVDZ
****
O 7
aug-cc-pVDZ
****
H 8
cc-pVDZ
****
$end
--------------------------------------------------------------
 ----------------------------------------------------------------
             Standard Nuclear Orientation (Angstroms)
    I     Atom           X                Y                Z
 ----------------------------------------------------------------
    1      C      -0.6645000000    -0.0000000000     1.0270977517
    2      C       0.6645000000     0.0000000000     1.0270977517
    3      H      -1.1590800000    -0.0000000000     0.0647487517
    4      H       1.1590800000     0.0000000000     0.0647487517
    5      H      -1.1590800000    -0.0000000000     1.9894457517
    6      H       1.1590800000     0.0000000000     1.9894457517
    7      O       0.0000000000    -0.0000000000    -1.7189525181
    8      H       0.0000000000    -0.0000000000    -2.6819418824
 ----------------------------------------------------------------
 Molecular Point Group                 C2v   NOp =  4
 Largest Abelian Subgroup              C2v   NOp =  4
 Nuclear Repulsion Energy =          64.38561153 hartrees
 There are       13 alpha and       13 beta electrons
 Requested basis set is non-standard
 There are 40 shells and 84 basis functions
 Total memory of 95000 MB is distributed as follows: 
   MEM_STATIC is set to 192 MB
   QALLOC/CCMAN JOB total memory use is  94808 MB
 Warning: actual memory use might exceed 95000 MB

 Total QAlloc Memory Limit  95000 MB
 Mega-Array Size       188 MB
 MEM_STATIC part       192 MB

                       Distance Matrix (Angstroms)
             C (  1)   C (  2)   H (  3)   H (  4)   H (  5)   H (  6)
   C (  2)  1.329000
   H (  3)  1.082000  2.061931
   H (  4)  2.061931  1.082000  2.318160
   H (  5)  1.082000  2.061931  1.924697  3.013026
   H (  6)  2.061931  1.082000  3.013026  1.924697  2.318160
   O (  7)  2.825306  2.825306  2.127218  2.127218  3.885316  3.885316
   H (  8)  3.768094  3.768094  2.981237  2.981237  4.813037  4.813037
             O (  7)
   H (  8)  0.962989
 
 A cutoff of  1.0D-14 yielded    820 shell pairs
 There are      3652 function pairs (      4018 Cartesian)
 Smallest overlap matrix eigenvalue = 4.30E-04

 Scale SEOQF with 1.000000e-01/1.000000e-01/1.000000e-01

 Standard Electronic Orientation quadrupole field applied
 Nucleus-field energy     =    -0.0000000051 hartrees
 ================ Generating on-the-fly SAD Guess ================
Attempting to make child job directory: /src/jdavis/qchem.scratch/qchem14600//Frg1/
Attempting to make child job directory: /src/jdavis/qchem.scratch/qchem14600//Frg2/
Attempting to make child job directory: /src/jdavis/qchem.scratch/qchem14600//Frg3/
Creating input file /src/jdavis/qchem.scratch/qchem14600/Frg1.input
using default PutDataFrgm: nothing
calling putenv with: QCSCRATCH=/src/jdavis/qchem.scratch/qchem14600/ 
Spawning Job For Fragment 0
Done Job For Fragment 0
calling putenv with: QCSCRATCH=/src/jdavis/qchem.scratch 
calling putenv with: QCTHREADS=1 
Creating input file /src/jdavis/qchem.scratch/qchem14600/Frg2.input
using default PutDataFrgm: nothing
calling putenv with: QCSCRATCH=/src/jdavis/qchem.scratch/qchem14600/ 
Spawning Job For Fragment 1
Done Job For Fragment 1
calling putenv with: QCSCRATCH=/src/jdavis/qchem.scratch 
calling putenv with: QCTHREADS=1 
Creating input file /src/jdavis/qchem.scratch/qchem14600/Frg3.input
using default PutDataFrgm: nothing
calling putenv with: QCSCRATCH=/src/jdavis/qchem.scratch/qchem14600/ 
Spawning Job For Fragment 2
Done Job For Fragment 2
calling putenv with: QCSCRATCH=/src/jdavis/qchem.scratch 
calling putenv with: QCTHREADS=1 
 Time for running child jobs:  CPU 1.77 s  wall 80.80 s
 ============= Method Specific SAD Guess Constructed =============
 Guess from on-the-fly superposition of atomic densities
 Warning: Energy on first SCF cycle will be non-variational
 A restricted Hartree-Fock SCF calculation will be
 performed using Pulay DIIS extrapolation
 SCF converges when DIIS error is below 1.0E-08
 using 10 threads for integral computing
 -------------------------------------------------------
 OpenMP Integral computing Module                
 Release: version 1.0, May 2013, Q-Chem Inc. Pittsburgh 
 -------------------------------------------------------
 ---------------------------------------
  Cycle       Energy         DIIS Error
 ---------------------------------------
    1    -153.5739452075      6.41E-02
    2    -153.2897062868      1.31E-02
    3    -153.3569682391      1.09E-02
    4    -153.4401240294      8.03E-04
    5    -153.4410351093      2.26E-04
    6    -153.4411075080      4.88E-05
    7    -153.4411126994      1.27E-05
    8    -153.4411132419      3.82E-06
    9    -153.4411132891      8.02E-07
   10    -153.4411132908      1.40E-07
   11    -153.4411132908      3.89E-08
   12    -153.4411132908      1.12E-08
   13    -153.4411132908      2.32E-09 Convergence criterion met
 ---------------------------------------
 SCF time:  CPU 14.46 s  wall 1.45 s
 SCF   energy in the final basis set = -153.44111329
 Total energy in the final basis set = -153.44111329
================================================================================
|                                                                              |
|                                 A D C  M A N                                 |
|                                                                              |
 ------------------------------------------------------------------------------ 
|                                                                              |
| Components:                                                                  |
|                                                                              |
| - libvmm - 1.3-trunk                                                         |
|   Authors:                                                                   |
|   Evgeny Epifanovsky, Ilya Kaliman                                           |
|                                                                              |
| - libtensor - 2.5-trunk                                                      |
|   Authors:                                                                   |
|   Evgeny Epifanovsky, Michael Wormit, Dmitry Zuev, Sam Manzer,               |
|   Ilya Kaliman                                                               |
|                                                                              |
| - libwfa - 1.1-trunk                                                         |
|   Authors:                                                                   |
|   Felix Plasser, Stefanie Mewes (Baeppler), Benjamin Thomitzni,              |
|   Michael Wormit, Feng Chen, Anna I. Krylov, Pavel Pokhilko                  |
|                                                                              |
| - libadc - 1.1-trunk                                                         |
|   Authors:                                                                   |
|   Michael Wormit, Adrian L. Dempwolff, Philipp H. P. Harbach,                |
|   Caroline Krauter, Dirk Rehn, Matthias Schneider, Jan Wenzel                |
|                                                                              |
| - adcman - 2.6-trunk                                                         |
|   Authors:                                                                   |
|   Michael Wormit, Adrian L. Dempwolff, Philipp H. P. Harbach,                |
|   Caroline Krauter, Daniel Lefrancois, Jan-Michael Mewes, Dirk Rehn,         |
|   Matthias Schneider, Jan Wenzel, Andreas Dreuw                              |
|                                                                              |
| Authors of earlier versions of ADCMAN:                                       |
| Andreas Dreuw, Jan Hendrik Starcke, Dirk Rehn, Michael Wormit                |
|                                                                              |
================================================================================

 
 Alpha MOs, Restricted
 -- Occupied --                  
-20.213 -11.049 -11.047  -0.930  -0.854  -0.598  -0.473  -0.384
  1 A1    2 A1    1 B1    3 A1    4 A1    2 B1    5 A1    6 A1                 
 -0.328  -0.271  -0.194  -0.129  -0.128
  3 B1    7 A1    1 B2    4 B1    2 B2                                         
 -- Virtual --                   
  0.192   0.208   0.251   0.252   0.267   0.270   0.301   0.360
  5 B1    8 A1    1 A2    9 A1    6 B1    3 B2   10 A1   11 A1                 
  0.394   0.399   0.446   0.463   0.471   0.524   0.534   0.577
  2 A2    7 B1    4 B2    8 B1   12 A1   13 A1    9 B1   14 A1                 
  0.618   0.638   0.672   0.840   0.960   0.989   1.050   1.069
 10 B1   15 A1   11 B1   16 A1   17 A1    5 B2   18 A1    3 A2                 
  1.077   1.121   1.174   1.197   1.203   1.211   1.290   1.291
 19 A1   12 B1   13 B1   14 B1    6 B2   20 A1   21 A1    4 A2                 
  1.330   1.331   1.370   1.467   1.473   1.483   1.559   1.642
 22 A1   15 B1    7 B2    8 B2   16 B1    5 A2   17 B1   23 A1                 
  1.690   1.717   1.851   1.926   1.966   2.032   2.120   2.123
 18 B1    9 B2   24 A1   19 B1   25 A1    6 A2   26 A1   10 B2                 
  2.132   2.181   2.212   2.287   2.356   2.393   2.437   2.475
 20 B1   27 A1   11 B2   28 A1    7 A2   12 B2   21 B1   22 B1                 
  2.553   2.604   2.727   2.751   2.845   3.006   3.031   3.084
 29 A1    8 A2   23 B1   30 A1   24 B1   31 A1   32 A1   33 A1                 
  3.452   3.562   3.921   3.945   3.971   4.085   4.537
 25 B1   26 B1   13 B2    9 A2   34 A1   27 B1   35 A1                         
 
 Beta MOs, Restricted
 -- Occupied --                  
-20.213 -11.049 -11.047  -0.930  -0.854  -0.598  -0.473  -0.384
  1 A1    2 A1    1 B1    3 A1    4 A1    2 B1    5 A1    6 A1                 
 -0.328  -0.271  -0.194  -0.129  -0.128
  3 B1    7 A1    1 B2    4 B1    2 B2                                         
 -- Virtual --                   
  0.192   0.208   0.251   0.252   0.267   0.270   0.301   0.360
  5 B1    8 A1    1 A2    9 A1    6 B1    3 B2   10 A1   11 A1                 
  0.394   0.399   0.446   0.463   0.471   0.524   0.534   0.577
  2 A2    7 B1    4 B2    8 B1   12 A1   13 A1    9 B1   14 A1                 
  0.618   0.638   0.672   0.840   0.960   0.989   1.050   1.069
 10 B1   15 A1   11 B1   16 A1   17 A1    5 B2   18 A1    3 A2                 
  1.077   1.121   1.174   1.197   1.203   1.211   1.290   1.291
 19 A1   12 B1   13 B1   14 B1    6 B2   20 A1   21 A1    4 A2                 
  1.330   1.331   1.370   1.467   1.473   1.483   1.559   1.642
 22 A1   15 B1    7 B2    8 B2   16 B1    5 A2   17 B1   23 A1                 
  1.690   1.717   1.851   1.926   1.966   2.032   2.120   2.123
 18 B1    9 B2   24 A1   19 B1   25 A1    6 A2   26 A1   10 B2                 
  2.132   2.181   2.212   2.287   2.356   2.393   2.437   2.475
 20 B1   27 A1   11 B2   28 A1    7 A2   12 B2   21 B1   22 B1                 
  2.553   2.604   2.727   2.751   2.845   3.006   3.031   3.084
 29 A1    8 A2   23 B1   30 A1   24 B1   31 A1   32 A1   33 A1                 
  3.452   3.562   3.921   3.945   3.971   4.085   4.537
 25 B1   26 B1   13 B2    9 A2   34 A1   27 B1   35 A1                         

--------------------------------------------------------------------------------
                                   HF Summary                                   
--------------------------------------------------------------------------------
  Energy:                                                 -153.4411132908 a.u.
  Dip. moment [a.u.]:                  [   0.000000,    0.000000,    2.073918]
  Total dipole [Debye]:                                               5.271374
  <r^2> [a.u.]:                        [  55.689948,   19.678747,  208.010448]
  Total <r^2> [a.u.]:                                               283.379142
--------------------------------------------------------------------------------

--------------------------------------------------------------------------------
                                 MP(2) Summary                                  
--------------------------------------------------------------------------------
  MP energy contribution:                                   -0.5275197713 a.u.
  Total energy:                                           -153.9686330621 a.u.
  Dip. moment [a.u.]:                  [  -0.000000,    0.000000,    2.136713]
  Total dipole [Debye]:                                               5.430984
  <r^2> [a.u.]:                        [  56.634718,   20.340469,  209.227274]
  Total <r^2> [a.u.]:                                               286.202462

  Density matrix analysis:
  ------------------------
  NOs
    Occupation of frontier NOs:
       0.0446   1.9359
    Number of electrons: 26.000000
    Number of unpaired electrons: n_u =  0.71462, n_u,nl =  0.08521
    NO participation ratio (PR_NO): 23.015936
  
  
  Mulliken Population Analysis
  Atom      Charge (e)              h+              e-           Del q
  --------------------------------------------------------------------
   1 C       -0.188611        0.092611       -0.097828       -0.005217
   2 C       -0.188611        0.092611       -0.097828       -0.005217
   3 H        0.183683        0.017246       -0.009373        0.007873
   4 H        0.183683        0.017246       -0.009373        0.007873
   5 H        0.010846        0.018578       -0.012981        0.005598
   6 H        0.010846        0.018578       -0.012981        0.005598
   7 O       -1.058047        0.274671       -0.274688       -0.000017
   8 H        0.046210        0.015999       -0.032489       -0.016490
  --------------------------------------------------------------------
  Sum:       -1.000000        0.547541       -0.547541        0.000000
  
  Multipole moment analysis of the density matrix
    Molecular charge:                      -1.000000
    Number of electrons:                   26.000000
      Center of electronic charge [Ang]: [  0.000000,  -0.000000,  -0.043488]
    Total nuclear charge:                  25.000000
      Center of nuclear charge [Ang]:    [  0.000000,   0.000000,  -0.000000]
    Dipole moment [D]:                     5.430982
      Cartesian components [D]:          [ -0.000000,   0.000000,   5.430982]
    RMS size of the density [Ang]:         1.755165
      Cartesian components [Ang]:        [  0.781009,   0.468053,   1.500518]
  
  Exciton analysis of the difference density matrix
    <r_h> [Ang]:                  [  0.000000,  -0.000000,  -0.466355]
    <r_e> [Ang]:                  [  0.000000,  -0.000000,  -0.527044]
    |<r_e - r_h>| [Ang]:            0.060689
    Hole size [Ang]:                1.926976
      Cartesian components [Ang]: [  0.853642,   0.714563,   1.572874]
    Electron size [Ang]:            2.257626
      Cartesian components [Ang]: [  1.100858,   0.921425,   1.742402]
--------------------------------------------------------------------------------
  Starting Davidson for singlet states of irrep B2 ... 
--------------------------------------------------------------------------------
   It NVec Conv  Avg. Norm  Max. Norm  Conv. states           Remark
--------------------------------------------------------------------------------
       100    0  1.541e-01  6.065e-01  0.2734 n n n n n n n n Guess.
    1  110    0  1.491e-02  8.848e-02  0.1176 n n n n n n n n 
    2  120    0  3.275e-03  1.993e-02  0.1164 n n n n n n n n 
    3  130    0  8.909e-03  7.765e-02  0.1163 n n n n n n n n 
    4  140    0  2.494e-03  2.404e-02  0.1163 n n n n n n n n 
    5  150    5  5.190e-04  5.028e-03  0.1163 y y y y n y n n 
    6  160    7  6.598e-05  6.420e-04  0.1163 y y y y y y n y 
    7  170    8  6.662e-06  6.464e-05  0.1163 y y y y y y y y 
    8  180   10  5.246e-07  5.099e-06  0.1163 y y y y y y y y Converged.
--------------------------------------------------------------------------------
  Davidson Summary: 
 ------------------------------------------------------------
  State  0: excitation energy =   0.1163 a.u.   (converged)
  State  1: excitation energy =   0.1195 a.u.   (converged)
  State  2: excitation energy =   0.1303 a.u.   (converged)
  State  3: excitation energy =   0.1655 a.u.   (converged)
  State  4: excitation energy =   0.2134 a.u.   (converged)
  State  5: excitation energy =   0.2267 a.u.   (converged)
  State  6: excitation energy =   0.2364 a.u.   (converged)
  State  7: excitation energy =   0.2792 a.u.   (converged)
  State  8: excitation energy =   0.3085 a.u.   (converged)
  State  9: excitation energy =   0.3171 a.u.   (converged)
 ------------------------------------------------------------


--------------------------------------------------------------------------------
                   State-averaged natural transition orbitals
--------------------------------------------------------------------------------
--------------------------------------------------------------------------------

--------------------------------------------------------------------------------
                             Excited State Summary
--------------------------------------------------------------------------------
--------------------------------------------------------------------------------

  Excited state 1 (singlet, B2)                                    [converged]
  ----------------------------------------------------------------------------
  Term symbol:  1 (1) B2                                    R^2 =  4.84447e-09

  Total energy:                                           -153.8523114669 a.u.
  Excitation energy:                                               3.165272 eV

  Osc. strength:                                                      0.017051
  Trans. dip. moment [a.u.]:           [  -0.000000,    0.468916,   -0.000000]
  <i|r^2|0> [a.u.]:                    [   0.000000,    0.000000,    0.000000]

  Dip. moment [a.u.]:                  [  -0.000000,    0.000000,   -4.303603]
  Total dipole [Debye]:                                              10.938670
  <r^2> [a.u.]:                        [  70.219903,   25.752816,  228.760895]
  Total <r^2> [a.u.]:                                               324.733614

  V1^2 = 0.8706, V2^2 = 0.1294

  Important amplitudes:
      occ i      occ j       vir a       vir b          v   
    ---------------------------------------------------------
     2 (B2) A               8 (A1) A                  0.6176
     2 (B2) A              10 (A1) A                  0.1484
    ---------------------------------------------------------

  Density matrix analysis:
  ------------------------
  NOs
    Occupation of frontier NOs:
       0.9628   0.9958
    Number of electrons: 26.000000
    Number of unpaired electrons: n_u =  2.74380, n_u,nl =  2.11262
    NO participation ratio (PR_NO):  3.862713
  
  
  Mulliken Population Analysis
  Atom      Charge (e)              h+              e-           Del q
  --------------------------------------------------------------------
   1 C       -0.801347        0.046749       -0.659485       -0.612736
   2 C       -0.801347        0.046749       -0.659485       -0.612736
   3 H        0.134408       -0.002650       -0.046626       -0.049275
   4 H        0.134408       -0.002650       -0.046626       -0.049275
   5 H        0.193105        0.051077        0.131182        0.182259
   6 H        0.193105        0.051077        0.131182        0.182259
   7 O       -0.300179        1.362867       -0.604999        0.757868
   8 H        0.247847        0.142984        0.058653        0.201637
  --------------------------------------------------------------------
  Sum:       -1.000000        1.696204       -1.696204        0.000000
  
  Multipole moment analysis of the density matrix
    Molecular charge:                      -1.000000
    Number of electrons:                   26.000000
      Center of electronic charge [Ang]: [  0.000000,  -0.000000,   0.087591]
    Total nuclear charge:                  25.000000
      Center of nuclear charge [Ang]:    [  0.000000,   0.000000,  -0.000000]
    Dipole moment [D]:                     10.938666
      Cartesian components [D]:          [ -0.000000,   0.000000, -10.938666]
    RMS size of the density [Ang]:         1.868105
      Cartesian components [Ang]:        [  0.869650,   0.526656,   1.567213]
  
  Exciton analysis of the difference density matrix
    <r_h> [Ang]:                  [  0.000000,  -0.000000,  -1.390218]
    <r_e> [Ang]:                  [  0.000000,  -0.000000,   0.619014]
    |<r_e - r_h>| [Ang]:            2.009232
    Hole size [Ang]:                1.801042
      Cartesian components [Ang]: [  0.828507,   0.852121,   1.353225]
    Electron size [Ang]:            3.339826
      Cartesian components [Ang]: [  1.711496,   1.272651,   2.570132]

  Transition density matrix analysis:
  -----------------------------------
  
  CT numbers (Mulliken)
    omega =     0.8541
    <Phe> =    -0.0019
  
  Exciton analysis of the transition density matrix
    Trans. dipole moment [D]:             0.595932
      Cartesian components [D]:         [ -0.000000,   0.595932,  -0.000000]
    <r_h> [Ang]:                        [  0.000000,  -0.000000,  -1.732827]
    <r_e> [Ang]:                        [  0.000000,  -0.000000,   1.794272]
    |<r_e - r_h>| [Ang]:                  3.527099
    Hole size [Ang]:                      1.105068
      Cartesian components [Ang]:       [  0.475614,   0.818409,   0.570239]
    Electron size [Ang]:                  3.672529
      Cartesian components [Ang]:       [  2.102517,   1.558669,   2.576324]
    RMS electron-hole separation [Ang]:   5.206199
      Cartesian components [Ang]:       [  2.155317,   1.758205,   4.400890]
    Covariance(r_h, r_e) [Ang^2]:         0.022281
    Correlation coefficient:              0.005490
    Center-of-mass size [Ang]:            1.920495
      Cartesian components [Ang]:       [  1.077982,   0.881362,   1.322670]

  Decomposition into state-averaged NTOs
    H- 0 -> L+ 1: -0.5932 ( 70.4%)
    H- 0 -> L+ 3:  0.2489 ( 12.4%)
    H- 0 -> L+ 4: -0.1091 (  2.4%)
                   omega =  85.4%
  ----------------------------------------------------------------------------


  Excited state 2 (singlet, B2)                                    [converged]
  ----------------------------------------------------------------------------
  Term symbol:  2 (1) B2                                    R^2 =  2.16896e-09

  Total energy:                                           -153.8491399252 a.u.
  Excitation energy:                                               3.251574 eV

  Osc. strength:                                                      0.041693
  Trans. dip. moment [a.u.]:           [   0.000000,   -0.723443,   -0.000000]
  <i|r^2|0> [a.u.]:                    [  -0.000000,   -0.000000,   -0.000000]

  Dip. moment [a.u.]:                  [   0.000000,    0.000000,    1.021700]
  Total dipole [Debye]:                                               2.596903
  <r^2> [a.u.]:                        [  70.952674,   25.467795,  213.432431]
  Total <r^2> [a.u.]:                                               309.852900

  V1^2 = 0.8878, V2^2 = 0.1122

  Important amplitudes:
      occ i      occ j       vir a       vir b          v   
    ---------------------------------------------------------
     2 (B2) A               9 (A1) A                 -0.4870
     2 (B2) A              10 (A1) A                 -0.3767
    ---------------------------------------------------------

  Density matrix analysis:
  ------------------------
  NOs
    Occupation of frontier NOs:
       0.9680   0.9909
    Number of electrons: 26.000000
    Number of unpaired electrons: n_u =  2.73353, n_u,nl =  2.10916
    NO participation ratio (PR_NO):  3.835565
  
  
  Mulliken Population Analysis
  Atom      Charge (e)              h+              e-           Del q
  --------------------------------------------------------------------
   1 C       -0.646608        0.022997       -0.480994       -0.457997
   2 C       -0.646608        0.022997       -0.480994       -0.457997
   3 H        0.166936        0.002032       -0.018779       -0.016747
   4 H        0.166936        0.002032       -0.018779       -0.016747
   5 H        0.034515        0.015995        0.007674        0.023669
   6 H        0.034515        0.015995        0.007674        0.023669
   7 O       -0.656095        1.316147       -0.914195        0.401953
   8 H        0.546409        0.159693        0.340506        0.500199
  --------------------------------------------------------------------
  Sum:       -1.000000        1.557887       -1.557887        0.000000
  
  Multipole moment analysis of the density matrix
    Molecular charge:                      -1.000000
    Number of electrons:                   26.000000
      Center of electronic charge [Ang]: [ -0.000000,  -0.000000,  -0.020795]
    Total nuclear charge:                  25.000000
      Center of nuclear charge [Ang]:    [  0.000000,   0.000000,  -0.000000]
    Dipole moment [D]:                     2.596902
      Cartesian components [D]:          [  0.000000,   0.000000,   2.596902]
    RMS size of the density [Ang]:         1.826687
      Cartesian components [Ang]:        [  0.874176,   0.523733,   1.516016]
  
  Exciton analysis of the difference density matrix
    <r_h> [Ang]:                  [  0.000000,  -0.000000,  -1.590385]
    <r_e> [Ang]:                  [ -0.000000,  -0.000000,  -1.211641]
    |<r_e - r_h>| [Ang]:            0.378743
    Hole size [Ang]:                1.619419
      Cartesian components [Ang]: [  0.800488,   0.862766,   1.112372]
    Electron size [Ang]:            2.816897
      Cartesian components [Ang]: [  1.792880,   1.290735,   1.747711]

  Transition density matrix analysis:
  -----------------------------------
  
  CT numbers (Mulliken)
    omega =     0.8704
    <Phe> =    -0.0078
  
  Exciton analysis of the transition density matrix
    Trans. dipole moment [D]:             0.919404
      Cartesian components [D]:         [  0.000000,  -0.919404,  -0.000000]
    <r_h> [Ang]:                        [  0.000000,  -0.000000,  -1.740727]
    <r_e> [Ang]:                        [ -0.000000,   0.000000,  -1.158349]
    |<r_e - r_h>| [Ang]:                  0.582377
    Hole size [Ang]:                      1.089336
      Cartesian components [Ang]:       [  0.474751,   0.815150,   0.544789]
    Electron size [Ang]:                  3.308849
      Cartesian components [Ang]:       [  2.142195,   1.526390,   2.007391]
    RMS electron-hole separation [Ang]:   3.523294
      Cartesian components [Ang]:       [  2.193451,   1.725262,   2.150777]
    Covariance(r_h, r_e) [Ang^2]:         0.030350
    Correlation coefficient:              0.008420
    Center-of-mass size [Ang]:            1.746127
      Cartesian components [Ang]:       [  1.097445,   0.867776,   1.044766]

  Decomposition into state-averaged NTOs
    H- 0 -> L+ 0:  0.4976 ( 49.5%)
    H- 0 -> L+ 3: -0.3708 ( 27.5%)
    H- 0 -> L+ 1: -0.1653 (  5.5%)
    H- 0 -> L+ 4:  0.1431 (  4.1%)
                   omega =  87.0%
  ----------------------------------------------------------------------------


  Excited state 3 (singlet, B2)                                    [converged]
  ----------------------------------------------------------------------------
  Term symbol:  3 (1) B2                                    R^2 =  5.70944e-09

  Total energy:                                           -153.8383621725 a.u.
  Excitation energy:                                               3.544851 eV

  Osc. strength:                                                      0.001409
  Trans. dip. moment [a.u.]:           [   0.000000,   -0.127393,   -0.000000]
  <i|r^2|0> [a.u.]:                    [  -0.000000,   -0.000000,    0.000000]

  Dip. moment [a.u.]:                  [  -0.000000,    0.000000,   -2.802672]
  Total dipole [Debye]:                                               7.123682
  <r^2> [a.u.]:                        [  66.134250,   29.908080,  202.663377]
  Total <r^2> [a.u.]:                                               298.705706

  V1^2 = 0.8724, V2^2 = 0.1276

  Important amplitudes:
      occ i      occ j       vir a       vir b          v   
    ---------------------------------------------------------
     4 (B1) A               1 (A2) A                  0.6338
     4 (B1) A               2 (A2) A                 -0.1805
    ---------------------------------------------------------

  Density matrix analysis:
  ------------------------
  NOs
    Occupation of frontier NOs:
       0.9679   0.9926
    Number of electrons: 26.000000
    Number of unpaired electrons: n_u =  2.73166, n_u,nl =  2.10516
    NO participation ratio (PR_NO):  3.825699
  
  
  Mulliken Population Analysis
  Atom      Charge (e)              h+              e-           Del q
  --------------------------------------------------------------------
   1 C       -0.625833        0.075853       -0.513075       -0.437222
   2 C       -0.625833        0.075853       -0.513075       -0.437222
   3 H        0.118632       -0.001399       -0.063652       -0.065051
   4 H        0.118632       -0.001399       -0.063652       -0.065051
   5 H        0.014611        0.012867       -0.009102        0.003765
   6 H        0.014611        0.012867       -0.009102        0.003765
   7 O       -0.160319        1.360476       -0.462747        0.897729
   8 H        0.145497        0.120381       -0.021094        0.099287
  --------------------------------------------------------------------
  Sum:       -1.000000        1.655498       -1.655498       -0.000000
  
  Multipole moment analysis of the density matrix
    Molecular charge:                      -1.000000
    Number of electrons:                   26.000000
      Center of electronic charge [Ang]: [  0.000000,  -0.000000,   0.057043]
    Total nuclear charge:                  25.000000
      Center of nuclear charge [Ang]:    [  0.000000,   0.000000,  -0.000000]
    Dipole moment [D]:                     7.123680
      Cartesian components [D]:          [ -0.000000,   0.000000,  -7.123680]
    RMS size of the density [Ang]:         1.792737
      Cartesian components [Ang]:        [  0.843971,   0.567556,   1.476312]
  
  Exciton analysis of the difference density matrix
    <r_h> [Ang]:                  [  0.000000,  -0.000000,  -1.443585]
    <r_e> [Ang]:                  [  0.000000,  -0.000000,   0.135280]
    |<r_e - r_h>| [Ang]:            1.578866
    Hole size [Ang]:                1.686234
      Cartesian components [Ang]: [  0.892096,   0.738722,   1.225496]
    Electron size [Ang]:            2.650274
      Cartesian components [Ang]: [  1.550060,   1.471080,   1.567543]

  Transition density matrix analysis:
  -----------------------------------
  
  CT numbers (Mulliken)
    omega =     0.8490
    <Phe> =    -0.0004
  
  Exciton analysis of the transition density matrix
    Trans. dipole moment [D]:             0.161901
      Cartesian components [D]:         [  0.000000,  -0.161901,  -0.000000]
    <r_h> [Ang]:                        [  0.000000,  -0.000000,  -1.697629]
    <r_e> [Ang]:                        [  0.000000,  -0.000000,   1.016526]
    |<r_e - r_h>| [Ang]:                  2.714155
    Hole size [Ang]:                      1.163190
      Cartesian components [Ang]:       [  0.816668,   0.467499,   0.683745]
    Electron size [Ang]:                  2.792999
      Cartesian components [Ang]:       [  1.869519,   1.785854,   1.056630]
    RMS electron-hole separation [Ang]:   4.062178
      Cartesian components [Ang]:       [  2.036159,   1.845738,   2.991421]
    Covariance(r_h, r_e) [Ang^2]:         0.009598
    Correlation coefficient:              0.002954
    Center-of-mass size [Ang]:            1.514352
      Cartesian components [Ang]:       [  1.022026,   0.923162,   0.629680]

  Decomposition into state-averaged NTOs
    H- 2 -> L+ 2:  0.6171 ( 76.2%)
    H- 2 -> L+ 6: -0.2047 (  8.4%)
                   omega =  84.9%
  ----------------------------------------------------------------------------


  Excited state 4 (singlet, B2)                                    [converged]
  ----------------------------------------------------------------------------
  Term symbol:  4 (1) B2                                    R^2 =  6.85633e-09

  Total energy:                                           -153.8031657957 a.u.
  Excitation energy:                                               4.502593 eV

  Osc. strength:                                                      0.003923
  Trans. dip. moment [a.u.]:           [   0.000000,   -0.188589,   -0.000000]
  <i|r^2|0> [a.u.]:                    [   0.000000,    0.000000,    0.000000]

  Dip. moment [a.u.]:                  [  -0.000000,    0.000000,   -1.839828]
  Total dipole [Debye]:                                               4.676378
  <r^2> [a.u.]:                        [  71.220236,   24.150428,  220.269418]
  Total <r^2> [a.u.]:                                               315.640082

  V1^2 = 0.8798, V2^2 = 0.1202

  Important amplitudes:
      occ i      occ j       vir a       vir b          v   
    ---------------------------------------------------------
     2 (B2) A              10 (A1) A                 -0.4588
     2 (B2) A               9 (A1) A                  0.4197
    ---------------------------------------------------------

  Density matrix analysis:
  ------------------------
  NOs
    Occupation of frontier NOs:
       0.9650   0.9939
    Number of electrons: 26.000000
    Number of unpaired electrons: n_u =  2.73790, n_u,nl =  2.11032
    NO participation ratio (PR_NO):  3.846539
  
  
  Mulliken Population Analysis
  Atom      Charge (e)              h+              e-           Del q
  --------------------------------------------------------------------
   1 C       -0.561592        0.043122       -0.416103       -0.372981
   2 C       -0.561592        0.043122       -0.416103       -0.372981
   3 H        0.165333        0.001248       -0.019597       -0.018350
   4 H        0.165333        0.001248       -0.019597       -0.018350
   5 H        0.049297        0.035112        0.003338        0.038451
   6 H        0.049297        0.035112        0.003338        0.038451
   7 O       -0.697501        1.328585       -0.968039        0.360546
   8 H        0.391424        0.151457        0.193757        0.345214
  --------------------------------------------------------------------
  Sum:       -1.000000        1.639006       -1.639006       -0.000000
  
  Multipole moment analysis of the density matrix
    Molecular charge:                      -1.000000
    Number of electrons:                   26.000000
      Center of electronic charge [Ang]: [  0.000000,  -0.000000,   0.037446]
    Total nuclear charge:                  25.000000
      Center of nuclear charge [Ang]:    [  0.000000,   0.000000,  -0.000000]
    Dipole moment [D]:                     4.676376
      Cartesian components [D]:          [ -0.000000,   0.000000,  -4.676376]
    RMS size of the density [Ang]:         1.843406
      Cartesian components [Ang]:        [  0.875823,   0.510008,   1.539796]
  
  Exciton analysis of the difference density matrix
    <r_h> [Ang]:                  [  0.000000,  -0.000000,  -1.449899]
    <r_e> [Ang]:                  [  0.000000,  -0.000000,  -0.166014]
    |<r_e - r_h>| [Ang]:            1.283885
    Hole size [Ang]:                1.746882
      Cartesian components [Ang]: [  0.816325,   0.852567,   1.287766]
    Electron size [Ang]:            3.186807
      Cartesian components [Ang]: [  1.777178,   1.173802,   2.370563]

  Transition density matrix analysis:
  -----------------------------------
  
  CT numbers (Mulliken)
    omega =     0.8629
    <Phe> =    -0.0038
  
  Exciton analysis of the transition density matrix
    Trans. dipole moment [D]:             0.239672
      Cartesian components [D]:         [  0.000000,  -0.239672,  -0.000000]
    <r_h> [Ang]:                        [  0.000000,  -0.000000,  -1.732714]
    <r_e> [Ang]:                        [  0.000000,  -0.000000,   0.436324]
    |<r_e - r_h>| [Ang]:                  2.169039
    Hole size [Ang]:                      1.102680
      Cartesian components [Ang]:       [  0.474756,   0.816914,   0.568474]
    Electron size [Ang]:                  3.722179
      Cartesian components [Ang]:       [  2.159699,   1.401912,   2.687929]
    RMS electron-hole separation [Ang]:   4.438355
      Cartesian components [Ang]:       [  2.210801,   1.622508,   3.489816]
    Covariance(r_h, r_e) [Ang^2]:         0.038130
    Correlation coefficient:              0.009290
    Center-of-mass size [Ang]:            1.945943
      Cartesian components [Ang]:       [  1.105864,   0.811307,   1.380413]

  Decomposition into state-averaged NTOs
    H- 0 -> L+ 0: -0.4246 ( 36.1%)
    H- 0 -> L+ 3: -0.4198 ( 35.2%)
    H- 0 -> L+ 1: -0.2089 (  8.7%)
    H- 0 -> L+ 4:  0.1732 (  6.0%)
                   omega =  86.3%
  ----------------------------------------------------------------------------


  Excited state 5 (singlet, B2)                                    [converged]
  ----------------------------------------------------------------------------
  Term symbol:  5 (1) B2                                    R^2 =  2.59780e-08

  Total energy:                                           -153.7552565152 a.u.
  Excitation energy:                                               5.806271 eV

  Osc. strength:                                                      0.002640
  Trans. dip. moment [a.u.]:           [   0.000000,    0.136238,   -0.000000]
  <i|r^2|0> [a.u.]:                    [  -0.000000,   -0.000000,   -0.000000]

  Dip. moment [a.u.]:                  [   0.000000,    0.000000,   -1.393506]
  Total dipole [Debye]:                                               3.541940
  <r^2> [a.u.]:                        [  62.147000,   31.165309,  206.371967]
  Total <r^2> [a.u.]:                                               299.684277

  V1^2 = 0.8869, V2^2 = 0.1131

  Important amplitudes:
      occ i      occ j       vir a       vir b          v   
    ---------------------------------------------------------
     2 (B2) A              11 (A1) A                 -0.6089
     2 (B2) A              10 (A1) A                  0.2407
    ---------------------------------------------------------

  Density matrix analysis:
  ------------------------
  NOs
    Occupation of frontier NOs:
       0.9685   0.9919
    Number of electrons: 26.000000
    Number of unpaired electrons: n_u =  2.73478, n_u,nl =  2.10847
    NO participation ratio (PR_NO):  3.833364
  
  
  Mulliken Population Analysis
  Atom      Charge (e)              h+              e-           Del q
  --------------------------------------------------------------------
   1 C       -0.647114        0.045447       -0.503950       -0.458503
   2 C       -0.647114        0.045447       -0.503950       -0.458503
   3 H        0.231649        0.001252        0.046714        0.047966
   4 H        0.231649        0.001252        0.046714        0.047966
   5 H        0.029413        0.009791        0.008775        0.018567
   6 H        0.029413        0.009791        0.008775        0.018567
   7 O       -0.453318        1.332534       -0.727804        0.604729
   8 H        0.225422        0.129689        0.049523        0.179212
  --------------------------------------------------------------------
  Sum:       -1.000000        1.575202       -1.575202        0.000000
  
  Multipole moment analysis of the density matrix
    Molecular charge:                      -1.000000
    Number of electrons:                   26.000000
      Center of electronic charge [Ang]: [ -0.000000,  -0.000000,   0.028362]
    Total nuclear charge:                  25.000000
      Center of nuclear charge [Ang]:    [  0.000000,   0.000000,  -0.000000]
    Dipole moment [D]:                     3.541939
      Cartesian components [D]:          [  0.000000,   0.000000,  -3.541939]
    RMS size of the density [Ang]:         1.796356
      Cartesian components [Ang]:        [  0.818134,   0.579362,   1.490600]
  
  Exciton analysis of the difference density matrix
    <r_h> [Ang]:                  [  0.000000,  -0.000000,  -1.537142]
    <r_e> [Ang]:                  [ -0.000000,  -0.000000,  -0.351191]
    |<r_e - r_h>| [Ang]:            1.185951
    Hole size [Ang]:                1.631151
      Cartesian components [Ang]: [  0.783093,   0.861279,   1.142635]
    Electron size [Ang]:            2.701264
      Cartesian components [Ang]: [  1.262208,   1.632840,   1.742839]

  Transition density matrix analysis:
  -----------------------------------
  
  CT numbers (Mulliken)
    omega =     0.8692
    <Phe> =    -0.0012
  
  Exciton analysis of the transition density matrix
    Trans. dipole moment [D]:             0.173142
      Cartesian components [D]:         [  0.000000,   0.173142,  -0.000000]
    <r_h> [Ang]:                        [  0.000000,  -0.000000,  -1.719606]
    <r_e> [Ang]:                        [ -0.000000,  -0.000000,   0.190292]
    |<r_e - r_h>| [Ang]:                  1.909898
    Hole size [Ang]:                      1.117367
      Cartesian components [Ang]:       [  0.475435,   0.815277,   0.598159]
    Electron size [Ang]:                  3.033247
      Cartesian components [Ang]:       [  1.436149,   1.976186,   1.797985]
    RMS electron-hole separation [Ang]:   3.741278
      Cartesian components [Ang]:       [  1.512388,   2.130358,   2.677950]
    Covariance(r_h, r_e) [Ang^2]:         0.049824
    Correlation coefficient:              0.014701
    Center-of-mass size [Ang]:            1.623941
      Cartesian components [Ang]:       [  0.756606,   1.072561,   0.956215]

  Decomposition into state-averaged NTOs
    H- 0 -> L+ 4: -0.6062 ( 73.5%)
    H- 0 -> L+ 3: -0.2546 ( 13.0%)
                   omega =  86.9%
  ----------------------------------------------------------------------------


  Excited state 6 (singlet, B2)                                    [converged]
  ----------------------------------------------------------------------------
  Term symbol:  6 (1) B2                                    R^2 =  3.98945e-09

  Total energy:                                           -153.7419113331 a.u.
  Excitation energy:                                               6.169412 eV

  Osc. strength:                                                      0.059765
  Trans. dip. moment [a.u.]:           [   0.000000,   -0.628813,    0.000000]
  <i|r^2|0> [a.u.]:                    [  -0.000000,   -0.000000,   -0.000000]

  Dip. moment [a.u.]:                  [  -0.000000,    0.000000,   -0.993936]
  Total dipole [Debye]:                                               2.526334
  <r^2> [a.u.]:                        [  65.769574,   25.185714,  232.871868]
  Total <r^2> [a.u.]:                                               323.827157

  V1^2 = 0.9474, V2^2 = 0.0526

  Important amplitudes:
      occ i      occ j       vir a       vir b          v   
    ---------------------------------------------------------
     1 (B2) A               8 (A1) A                  0.6606
     1 (B2) A              10 (A1) A                 -0.1163
    ---------------------------------------------------------

  Density matrix analysis:
  ------------------------
  NOs
    Occupation of frontier NOs:
       0.9881   0.9897
    Number of electrons: 26.000000
    Number of unpaired electrons: n_u =  2.61496, n_u,nl =  2.06738
    NO participation ratio (PR_NO):  3.465194
  
  
  Mulliken Population Analysis
  Atom      Charge (e)              h+              e-           Del q
  --------------------------------------------------------------------
   1 C       -0.462213        0.519374       -0.792977       -0.273602
   2 C       -0.462213        0.519374       -0.792977       -0.273602
   3 H        0.232059        0.050158       -0.001782        0.048376
   4 H        0.232059        0.050158       -0.001782        0.048376
   5 H        0.241501        0.126299        0.104356        0.230654
   6 H        0.241501        0.126299        0.104356        0.230654
   7 O       -1.085420        0.046761       -0.074134       -0.027373
   8 H        0.062727        0.021568       -0.005051        0.016517
  --------------------------------------------------------------------
  Sum:       -1.000000        1.459992       -1.459992        0.000000
  
  Multipole moment analysis of the density matrix
    Molecular charge:                      -1.000000
    Number of electrons:                   26.000000
      Center of electronic charge [Ang]: [  0.000000,  -0.000000,   0.020230]
    Total nuclear charge:                  25.000000
      Center of nuclear charge [Ang]:    [  0.000000,   0.000000,  -0.000000]
    Dipole moment [D]:                     2.526333
      Cartesian components [D]:          [ -0.000000,   0.000000,  -2.526333]
    RMS size of the density [Ang]:         1.867435
      Cartesian components [Ang]:        [  0.841641,   0.520825,   1.583571]
  
  Exciton analysis of the difference density matrix
    <r_h> [Ang]:                  [  0.000000,  -0.000000,   0.944234]
    <r_e> [Ang]:                  [  0.000000,  -0.000000,   2.078945]
    |<r_e - r_h>| [Ang]:            1.134710
    Hole size [Ang]:                1.765452
      Cartesian components [Ang]: [  1.031026,   0.905002,   1.111206]
    Electron size [Ang]:            2.627329
      Cartesian components [Ang]: [  1.677824,   1.322253,   1.529514]

  Transition density matrix analysis:
  -----------------------------------
  
  CT numbers (Mulliken)
    omega =     0.9160
    <Phe> =    -0.0073
  
  Exciton analysis of the transition density matrix
    Trans. dipole moment [D]:             0.799142
      Cartesian components [D]:         [  0.000000,  -0.799142,   0.000000]
    <r_h> [Ang]:                        [  0.000000,  -0.000000,   1.003742]
    <r_e> [Ang]:                        [  0.000000,  -0.000000,   2.721199]
    |<r_e - r_h>| [Ang]:                  1.717457
    Hole size [Ang]:                      1.321211
      Cartesian components [Ang]:       [  0.765712,   0.892085,   0.602884]
    Electron size [Ang]:                  2.744642
      Cartesian components [Ang]:       [  1.919576,   1.536530,   1.219575]
    RMS electron-hole separation [Ang]:   3.484881
      Cartesian components [Ang]:       [  2.060776,   1.770010,   2.182810]
    Covariance(r_h, r_e) [Ang^2]:         0.041963
    Correlation coefficient:              0.011572
    Center-of-mass size [Ang]:            1.529917
      Cartesian components [Ang]:       [  1.036264,   0.891704,   0.686780]

  Decomposition into state-averaged NTOs
    H- 1 -> L+ 1: -0.6718 ( 90.3%)
                   omega =  91.6%
  ----------------------------------------------------------------------------


  Excited state 7 (singlet, B2)                                    [converged]
  ----------------------------------------------------------------------------
  Term symbol:  7 (1) B2                                    R^2 =  1.22108e-07

  Total energy:                                           -153.7322592636 a.u.
  Excitation energy:                                               6.432058 eV

  Osc. strength:                                                      0.006929
  Trans. dip. moment [a.u.]:           [  -0.000000,   -0.209694,   -0.000000]
  <i|r^2|0> [a.u.]:                    [   0.000000,    0.000000,   -0.000000]

  Dip. moment [a.u.]:                  [  -0.000000,   -0.000000,   -2.786977]
  Total dipole [Debye]:                                               7.083791
  <r^2> [a.u.]:                        [  66.250057,   30.018406,  203.041532]
  Total <r^2> [a.u.]:                                               299.309995

  V1^2 = 0.8660, V2^2 = 0.1340

  Important amplitudes:
      occ i      occ j       vir a       vir b          v   
    ---------------------------------------------------------
     4 (B1) A               2 (A2) A                  0.6281
     4 (B1) A               1 (A2) A                  0.1839
    ---------------------------------------------------------

  Density matrix analysis:
  ------------------------
  NOs
    Occupation of frontier NOs:
       0.9695   0.9864
    Number of electrons: 26.000000
    Number of unpaired electrons: n_u =  2.74500, n_u,nl =  2.10787
    NO participation ratio (PR_NO):  3.880200
  
  
  Mulliken Population Analysis
  Atom      Charge (e)              h+              e-           Del q
  --------------------------------------------------------------------
   1 C       -0.589903        0.108478       -0.509770       -0.401292
   2 C       -0.589903        0.108478       -0.509770       -0.401292
   3 H        0.104159       -0.003516       -0.076008       -0.079524
   4 H        0.104159       -0.003516       -0.076008       -0.079524
   5 H       -0.002979        0.009936       -0.023761       -0.013825
   6 H       -0.002979        0.009936       -0.023761       -0.013825
   7 O       -0.163639        1.340041       -0.445633        0.894408
   8 H        0.141085        0.115450       -0.020574        0.094875
  --------------------------------------------------------------------
  Sum:       -1.000000        1.685286       -1.685286        0.000000
  
  Multipole moment analysis of the density matrix
    Molecular charge:                      -1.000000
    Number of electrons:                   26.000000
      Center of electronic charge [Ang]: [  0.000000,   0.000000,   0.056723]
    Total nuclear charge:                  25.000000
      Center of nuclear charge [Ang]:    [  0.000000,   0.000000,  -0.000000]
    Dipole moment [D]:                     7.083789
      Cartesian components [D]:          [ -0.000000,  -0.000000,  -7.083789]
    RMS size of the density [Ang]:         1.794561
      Cartesian components [Ang]:        [  0.844710,   0.568602,   1.477703]
  
  Exciton analysis of the difference density matrix
    <r_h> [Ang]:                  [  0.000000,  -0.000000,  -1.361217]
    <r_e> [Ang]:                  [  0.000000,   0.000000,   0.184815]
    |<r_e - r_h>| [Ang]:            1.546032
    Hole size [Ang]:                1.708314
      Cartesian components [Ang]: [  0.881316,   0.713666,   1.277615]
    Electron size [Ang]:            2.629648
      Cartesian components [Ang]: [  1.540912,   1.455134,   1.556671]

  Transition density matrix analysis:
  -----------------------------------
  
  CT numbers (Mulliken)
    omega =     0.8413
    <Phe> =    -0.0009
  
  Exciton analysis of the transition density matrix
    Trans. dipole moment [D]:             0.266494
      Cartesian components [D]:         [ -0.000000,  -0.266494,  -0.000000]
    <r_h> [Ang]:                        [  0.000000,  -0.000000,  -1.669462]
    <r_e> [Ang]:                        [  0.000000,   0.000000,   1.029768]
    |<r_e - r_h>| [Ang]:                  2.699230
    Hole size [Ang]:                      1.198727
      Cartesian components [Ang]:       [  0.819131,   0.465614,   0.741064]
    Electron size [Ang]:                  2.783037
      Cartesian components [Ang]:       [  1.858201,   1.792261,   1.039321]
    RMS electron-hole separation [Ang]:   4.054308
      Cartesian components [Ang]:       [  2.026756,   1.851515,   2.983550]
    Covariance(r_h, r_e) [Ang^2]:         0.015334
    Correlation coefficient:              0.004596
    Center-of-mass size [Ang]:            1.517639
      Cartesian components [Ang]:       [  1.017353,   0.925997,   0.640897]

  Decomposition into state-averaged NTOs
    H- 2 -> L+ 6: -0.6169 ( 76.1%)
    H- 2 -> L+ 2: -0.1939 (  7.5%)
                   omega =  84.1%
  ----------------------------------------------------------------------------


  Excited state 8 (singlet, B2)                                    [converged]
  ----------------------------------------------------------------------------
  Term symbol:  8 (1) B2                                    R^2 =  1.25229e-08

  Total energy:                                           -153.6894391287 a.u.
  Excitation energy:                                               7.597253 eV

  Osc. strength:                                                      0.018787
  Trans. dip. moment [a.u.]:           [  -0.000000,   -0.317700,   -0.000000]
  <i|r^2|0> [a.u.]:                    [   0.000000,    0.000000,    0.000000]

  Dip. moment [a.u.]:                  [  -0.000000,    0.000000,    2.632082]
  Total dipole [Debye]:                                               6.690086
  <r^2> [a.u.]:                        [  78.378583,   24.281709,  214.315389]
  Total <r^2> [a.u.]:                                               316.975681

  V1^2 = 0.9472, V2^2 = 0.0528

  Important amplitudes:
      occ i      occ j       vir a       vir b          v   
    ---------------------------------------------------------
     1 (B2) A               9 (A1) A                 -0.6712
     1 (B2) A               8 (A1) A                  0.0861
    ---------------------------------------------------------

  Density matrix analysis:
  ------------------------
  NOs
    Occupation of frontier NOs:
       0.9837   0.9935
    Number of electrons: 26.000000
    Number of unpaired electrons: n_u =  2.60514, n_u,nl =  2.06495
    NO participation ratio (PR_NO):  3.442233
  
  
  Mulliken Population Analysis
  Atom      Charge (e)              h+              e-           Del q
  --------------------------------------------------------------------
   1 C       -0.461733        0.523575       -0.796696       -0.273122
   2 C       -0.461733        0.523575       -0.796696       -0.273122
   3 H        0.325714        0.088474        0.053557        0.142031
   4 H        0.325714        0.088474        0.053557        0.142031
   5 H        0.098404        0.098352       -0.010795        0.087558
   6 H        0.098404        0.098352       -0.010795        0.087558
   7 O       -0.991349        0.046780        0.019919        0.066699
   8 H        0.066577        0.019771        0.000596        0.020367
  --------------------------------------------------------------------
  Sum:       -1.000000        1.487354       -1.487354        0.000000
  
  Multipole moment analysis of the density matrix
    Molecular charge:                      -1.000000
    Number of electrons:                   26.000000
      Center of electronic charge [Ang]: [  0.000000,  -0.000000,  -0.053571]
    Total nuclear charge:                  25.000000
      Center of nuclear charge [Ang]:    [  0.000000,   0.000000,  -0.000000]
    Dipole moment [D]:                     6.690084
      Cartesian components [D]:          [ -0.000000,   0.000000,   6.690084]
    RMS size of the density [Ang]:         1.846906
      Cartesian components [Ang]:        [  0.918783,   0.511392,   1.518347]
  
  Exciton analysis of the difference density matrix
    <r_h> [Ang]:                  [  0.000000,   0.000000,   0.898814]
    <r_e> [Ang]:                  [  0.000000,  -0.000000,   0.722570]
    |<r_e - r_h>| [Ang]:            0.176244
    Hole size [Ang]:                1.750322
      Cartesian components [Ang]: [  1.039131,   0.891017,   1.090836]
    Electron size [Ang]:            3.023765
      Cartesian components [Ang]: [  2.274549,   1.239331,   1.560012]

  Transition density matrix analysis:
  -----------------------------------
  
  CT numbers (Mulliken)
    omega =     0.9163
    <Phe> =    -0.0019
  
  Exciton analysis of the transition density matrix
    Trans. dipole moment [D]:             0.403756
      Cartesian components [D]:         [ -0.000000,  -0.403756,  -0.000000]
    <r_h> [Ang]:                        [  0.000000,  -0.000000,   1.025807]
    <r_e> [Ang]:                        [  0.000000,   0.000000,   0.725788]
    |<r_e - r_h>| [Ang]:                  0.300019
    Hole size [Ang]:                      1.300042
      Cartesian components [Ang]:       [  0.767391,   0.892157,   0.552519]
    Electron size [Ang]:                  3.516761
      Cartesian components [Ang]:       [  2.695127,   1.452747,   1.730151]
    RMS electron-hole separation [Ang]:   3.755335
      Cartesian components [Ang]:       [  2.795674,   1.702214,   1.840983]
    Covariance(r_h, r_e) [Ang^2]:         0.022594
    Correlation coefficient:              0.004942
    Center-of-mass size [Ang]:            1.877692
      Cartesian components [Ang]:       [  1.404404,   0.853713,   0.908047]

  Decomposition into state-averaged NTOs
    H- 1 -> L+ 0:  0.6734 ( 90.7%)
                   omega =  91.6%
  ----------------------------------------------------------------------------


  Excited state 9 (singlet, B2)                                    [converged]
  ----------------------------------------------------------------------------
  Term symbol:  9 (1) B2                                    R^2 =  5.09926e-06

  Total energy:                                           -153.6601110980 a.u.
  Excitation energy:                                               8.395310 eV

  Osc. strength:                                                      0.000001
  Trans. dip. moment [a.u.]:           [  -0.000000,    0.002288,   -0.000000]
  <i|r^2|0> [a.u.]:                    [  -0.000000,   -0.000000,    0.000000]

  Dip. moment [a.u.]:                  [   0.000000,    0.000000,   -2.976499]
  Total dipole [Debye]:                                               7.565506
  <r^2> [a.u.]:                        [  62.582869,   40.191119,  204.765401]
  Total <r^2> [a.u.]:                                               307.539389

  V1^2 = 0.8794, V2^2 = 0.1206

  Important amplitudes:
      occ i      occ j       vir a       vir b          v   
    ---------------------------------------------------------
     7 (A1) A               3 (B2) A                 -0.6561
     7 (A1) A               4 (B2) A                 -0.0594
    ---------------------------------------------------------

  Density matrix analysis:
  ------------------------
  NOs
    Occupation of frontier NOs:
       0.9872   0.9909
    Number of electrons: 26.000000
    Number of unpaired electrons: n_u =  2.79733, n_u,nl =  2.12740
    NO participation ratio (PR_NO):  3.931563
  
  
  Mulliken Population Analysis
  Atom      Charge (e)              h+              e-           Del q
  --------------------------------------------------------------------
   1 C       -0.653610        0.074417       -0.539416       -0.464999
   2 C       -0.653610        0.074417       -0.539416       -0.464999
   3 H        0.134456        0.000342       -0.049569       -0.049227
   4 H        0.134456        0.000342       -0.049569       -0.049227
   5 H        0.030820        0.022912       -0.002939        0.019973
   6 H        0.030820        0.022912       -0.002939        0.019973
   7 O       -0.340291        1.157880       -0.440124        0.717756
   8 H        0.316961        0.286336       -0.015585        0.270751
  --------------------------------------------------------------------
  Sum:       -1.000000        1.639557       -1.639557        0.000000
  
  Multipole moment analysis of the density matrix
    Molecular charge:                      -1.000000
    Number of electrons:                   26.000000
      Center of electronic charge [Ang]: [ -0.000000,  -0.000000,   0.060581]
    Total nuclear charge:                  25.000000
      Center of nuclear charge [Ang]:    [  0.000000,   0.000000,  -0.000000]
    Dipole moment [D]:                     7.565504
      Cartesian components [D]:          [  0.000000,   0.000000,  -7.565504]
    RMS size of the density [Ang]:         1.818964
      Cartesian components [Ang]:        [  0.820998,   0.657930,   1.483820]
  
  Exciton analysis of the difference density matrix
    <r_h> [Ang]:                  [  0.000000,  -0.000000,  -1.391804]
    <r_e> [Ang]:                  [ -0.000000,  -0.000000,   0.258516]
    |<r_e - r_h>| [Ang]:            1.650320
    Hole size [Ang]:                1.756705
      Cartesian components [Ang]: [  0.801467,   0.722800,   1.386081]
    Electron size [Ang]:            2.932668
      Cartesian components [Ang]: [  1.287736,   1.978089,   1.740529]

  Transition density matrix analysis:
  -----------------------------------
  
  CT numbers (Mulliken)
    omega =     0.8599
    <Phe> =     0.0003
  
  Exciton analysis of the transition density matrix
    Trans. dipole moment [D]:             0.002907
      Cartesian components [D]:         [ -0.000000,   0.002907,  -0.000000]
    <r_h> [Ang]:                        [  0.000000,  -0.000000,  -1.650020]
    <r_e> [Ang]:                        [ -0.000000,  -0.000000,   1.201509]
    |<r_e - r_h>| [Ang]:                  2.851530
    Hole size [Ang]:                      1.208992
      Cartesian components [Ang]:       [  0.475957,   0.406409,   1.034388]
    Electron size [Ang]:                  3.182245
      Cartesian components [Ang]:       [  1.502372,   2.472036,   1.326123]
    RMS electron-hole separation [Ang]:   4.437391
      Cartesian components [Ang]:       [  1.565189,   2.507264,   3.309720]
    Covariance(r_h, r_e) [Ang^2]:         0.014566
    Correlation coefficient:              0.003786
    Center-of-mass size [Ang]:            1.704221
      Cartesian components [Ang]:       [  0.793332,   1.251588,   0.841739]

  Decomposition into state-averaged NTOs
    H- 4 -> L+ 5:  0.6537 ( 85.5%)
                   omega =  86.0%
  ----------------------------------------------------------------------------


  Excited state 10 (singlet, B2)                                    [converged]
  ----------------------------------------------------------------------------
  Term symbol:  10 (1) B2                                   R^2 =  1.22459e-06

  Total energy:                                           -153.6515787852 a.u.
  Excitation energy:                                               8.627486 eV

  Osc. strength:                                                      0.000463
  Trans. dip. moment [a.u.]:           [  -0.000000,    0.046815,    0.000000]
  <i|r^2|0> [a.u.]:                    [   0.000000,    0.000000,   -0.000000]

  Dip. moment [a.u.]:                  [  -0.000000,    0.000000,    1.768095]
  Total dipole [Debye]:                                               4.494050
  <r^2> [a.u.]:                        [  59.223990,   25.273779,  207.936729]
  Total <r^2> [a.u.]:                                               292.434498

  V1^2 = 0.9439, V2^2 = 0.0561

  Important amplitudes:
      occ i      occ j       vir a       vir b          v   
    ---------------------------------------------------------
     3 (B1) A               1 (A2) A                  0.5466
     3 (B1) A               2 (A2) A                 -0.3831
    ---------------------------------------------------------

  Density matrix analysis:
  ------------------------
  NOs
    Occupation of frontier NOs:
       0.9497   1.0631
    Number of electrons: 26.000000
    Number of unpaired electrons: n_u =  2.70759, n_u,nl =  2.10964
    NO participation ratio (PR_NO):  4.045695
  
  
  Mulliken Population Analysis
  Atom      Charge (e)              h+              e-           Del q
  --------------------------------------------------------------------
   1 C       -0.447465        0.237885       -0.496739       -0.258854
   2 C       -0.447465        0.237885       -0.496739       -0.258854
   3 H        0.298798        0.130833       -0.015719        0.115115
   4 H        0.298798        0.130833       -0.015719        0.115115
   5 H        0.131390        0.131556       -0.011013        0.120543
   6 H        0.131390        0.131556       -0.011013        0.120543
   7 O       -1.024567        0.088723       -0.055242        0.033480
   8 H        0.059123        0.014834       -0.001922        0.012913
  --------------------------------------------------------------------
  Sum:       -1.000000        1.104105       -1.104105        0.000000
  
  Multipole moment analysis of the density matrix
    Molecular charge:                      -1.000000
    Number of electrons:                   26.000000
      Center of electronic charge [Ang]: [  0.000000,  -0.000000,  -0.035986]
    Total nuclear charge:                  25.000000
      Center of nuclear charge [Ang]:    [  0.000000,   0.000000,  -0.000000]
    Dipole moment [D]:                     4.494048
      Cartesian components [D]:          [ -0.000000,   0.000000,   4.494048]
    RMS size of the density [Ang]:         1.774351
      Cartesian components [Ang]:        [  0.798662,   0.521734,   1.496079]
  
  Exciton analysis of the difference density matrix
    <r_h> [Ang]:                  [  0.000000,  -0.000000,   0.717208]
    <r_e> [Ang]:                  [  0.000000,  -0.000000,   0.893879]
    |<r_e - r_h>| [Ang]:            0.176672
    Hole size [Ang]:                1.772990
      Cartesian components [Ang]: [  1.112770,   0.544835,   1.268224]
    Electron size [Ang]:            2.107002
      Cartesian components [Ang]: [  1.376576,   1.244209,   0.998220]

  Transition density matrix analysis:
  -----------------------------------
  
  CT numbers (Mulliken)
    omega =     0.9157
    <Phe> =    -0.0106
  
  Exciton analysis of the transition density matrix
    Trans. dipole moment [D]:             0.059496
      Cartesian components [D]:         [ -0.000000,   0.059496,   0.000000]
    <r_h> [Ang]:                        [  0.000000,   0.000000,   0.818008]
    <r_e> [Ang]:                        [  0.000000,  -0.000000,   0.998642]
    |<r_e - r_h>| [Ang]:                  0.180634
    Hole size [Ang]:                      1.629669
      Cartesian components [Ang]:       [  1.101396,   0.443548,   1.116249]
    Electron size [Ang]:                  2.099074
      Cartesian components [Ang]:       [  1.414616,   1.290633,   0.859791]
    RMS electron-hole separation [Ang]:   2.617375
      Cartesian components [Ang]:       [  1.775916,   1.363310,   1.355787]
    Covariance(r_h, r_e) [Ang^2]:         0.121956
    Correlation coefficient:              0.035651
    Center-of-mass size [Ang]:            1.351467
      Cartesian components [Ang]:       [  0.904786,   0.683067,   0.735693]

  Decomposition into state-averaged NTOs
    H- 3 -> L+ 2: -0.6585 ( 86.7%)
    H- 0 -> L+ 7:  0.1270 (  3.2%)
                   omega =  91.6%
  ----------------------------------------------------------------------------


--------------------------------------------------------------------------------
  Time of ADC calculation:  CPU 210.19 s  wall 56.00 s
================================================================================
 
 --------------------------------------------------------------
             Orbital Energies (a.u.) and Symmetries
 --------------------------------------------------------------
 
 Alpha MOs, Restricted
 -- Occupied --                  
-20.213 -11.049 -11.047  -0.930  -0.854  -0.598  -0.473  -0.384
  1 A1    2 A1    1 B1    3 A1    4 A1    2 B1    5 A1    6 A1                 
 -0.328  -0.271  -0.194  -0.129  -0.128
  3 B1    7 A1    1 B2    4 B1    2 B2                                         
 -- Virtual --                   
  0.192   0.208   0.251   0.252   0.267   0.270   0.301   0.360
  5 B1    8 A1    1 A2    9 A1    6 B1    3 B2   10 A1   11 A1                 
  0.394   0.399   0.446   0.463   0.471   0.524   0.534   0.577
  2 A2    7 B1    4 B2    8 B1   12 A1   13 A1    9 B1   14 A1                 
  0.618   0.638   0.672   0.840   0.960   0.989   1.050   1.069
 10 B1   15 A1   11 B1   16 A1   17 A1    5 B2   18 A1    3 A2                 
  1.077   1.121   1.174   1.197   1.203   1.211   1.290   1.291
 19 A1   12 B1   13 B1   14 B1    6 B2   20 A1   21 A1    4 A2                 
  1.330   1.331   1.370   1.467   1.473   1.483   1.559   1.642
 22 A1   15 B1    7 B2    8 B2   16 B1    5 A2   17 B1   23 A1                 
  1.690   1.717   1.851   1.926   1.966   2.032   2.120   2.123
 18 B1    9 B2   24 A1   19 B1   25 A1    6 A2   26 A1   10 B2                 
  2.132   2.181   2.212   2.287   2.356   2.393   2.437   2.475
 20 B1   27 A1   11 B2   28 A1    7 A2   12 B2   21 B1   22 B1                 
  2.553   2.604   2.727   2.751   2.845   3.006   3.031   3.084
 29 A1    8 A2   23 B1   30 A1   24 B1   31 A1   32 A1   33 A1                 
  3.452   3.562   3.921   3.945   3.971   4.085   4.537
 25 B1   26 B1   13 B2    9 A2   34 A1   27 B1   35 A1                         
 
 Beta MOs, Restricted
 -- Occupied --                  
-20.213 -11.049 -11.047  -0.930  -0.854  -0.598  -0.473  -0.384
  1 A1    2 A1    1 B1    3 A1    4 A1    2 B1    5 A1    6 A1                 
 -0.328  -0.271  -0.194  -0.129  -0.128
  3 B1    7 A1    1 B2    4 B1    2 B2                                         
 -- Virtual --                   
  0.192   0.208   0.251   0.252   0.267   0.270   0.301   0.360
  5 B1    8 A1    1 A2    9 A1    6 B1    3 B2   10 A1   11 A1                 
  0.394   0.399   0.446   0.463   0.471   0.524   0.534   0.577
  2 A2    7 B1    4 B2    8 B1   12 A1   13 A1    9 B1   14 A1                 
  0.618   0.638   0.672   0.840   0.960   0.989   1.050   1.069
 10 B1   15 A1   11 B1   16 A1   17 A1    5 B2   18 A1    3 A2                 
  1.077   1.121   1.174   1.197   1.203   1.211   1.290   1.291
 19 A1   12 B1   13 B1   14 B1    6 B2   20 A1   21 A1    4 A2                 
  1.330   1.331   1.370   1.467   1.473   1.483   1.559   1.642
 22 A1   15 B1    7 B2    8 B2   16 B1    5 A2   17 B1   23 A1                 
  1.690   1.717   1.851   1.926   1.966   2.032   2.120   2.123
 18 B1    9 B2   24 A1   19 B1   25 A1    6 A2   26 A1   10 B2                 
  2.132   2.181   2.212   2.287   2.356   2.393   2.437   2.475
 20 B1   27 A1   11 B2   28 A1    7 A2   12 B2   21 B1   22 B1                 
  2.553   2.604   2.727   2.751   2.845   3.006   3.031   3.084
 29 A1    8 A2   23 B1   30 A1   24 B1   31 A1   32 A1   33 A1                 
  3.452   3.562   3.921   3.945   3.971   4.085   4.537
 25 B1   26 B1   13 B2    9 A2   34 A1   27 B1   35 A1                         
 --------------------------------------------------------------
 
          Ground-State Mulliken Net Atomic Charges

     Atom                 Charge (a.u.)
  ----------------------------------------
      1 C                    -0.183394
      2 C                    -0.183394
      3 H                     0.175810
      4 H                     0.175810
      5 H                     0.005249
      6 H                     0.005249
      7 O                    -1.058030
      8 H                     0.062700
  ----------------------------------------
  Sum of atomic charges =    -1.000000

 -----------------------------------------------------------------
                    Cartesian Multipole Moments
 -----------------------------------------------------------------
    Charge (ESU x 10^10)
                -4.8032
    Dipole Moment (Debye)
         X       0.0000      Y       0.0000      Z       5.2714
       Tot       5.2714
    Quadrupole Moments (Debye-Ang)
        XX     -23.6423     XY       0.0000     YY     -26.4686
        XZ       0.0000     YZ      -0.0000     ZZ     -32.8267
    Octopole Moments (Debye-Ang^2)
       XXX      -0.0000    XXY       0.0000    XYY       0.0000
       YYY       0.0000    XXZ       0.9429    XYZ       0.0000
       YYZ      -0.1187    XZZ       0.0000    YZZ       0.0000
       ZZZ       6.1104
    Hexadecapole Moments (Debye-Ang^3)
      XXXX     -87.5505   XXXY      -0.0000   XXYY     -21.5901
      XYYY       0.0000   YYYY     -39.2212   XXXZ       0.0000
      XXYZ      -0.0000   XYYZ       0.0000   YYYZ      -0.0000
      XXZZ     -70.3426   XYZZ       0.0000   YYZZ     -65.0770
      XZZZ       0.0000   YZZZ      -0.0000   ZZZZ    -291.7457
 -----------------------------------------------------------------
 Total job time:  165.26s(wall), 258.52s(cpu) 
 Fri Mar  4 18:54:30 2022

        *************************************************************
        *                                                           *
        *  Thank you very much for using Q-Chem.  Have a nice day.  *
        *                                                           *
        *************************************************************


