/src/tsommerfeld/qchem/exe/qcprog.exe .input1.060606.14756.qcin.1 /src/jdavis/qchem.scratch/qchem14756/

                  Welcome to Q-Chem
     A Quantum Leap Into The Future Of Chemistry


 Q-Chem 5.4 (devel), Q-Chem, Inc., Pleasanton, CA (2021)

 E. Epifanovsky,  A. T. B. Gilbert,  Xintian Feng,  Joonho Lee,  Yuezhi Mao,  
 N. Mardirossian,  P. Pokhilko,  A. White,  M. Wormit,  M. P. Coons,  
 A. L. Dempwolff,  Zhengting Gan,  D. Hait,  P. R. Horn,  L. D. Jacobson,  
 I. Kaliman,  J. Kussmann,  A. W. Lange,  Ka Un Lao,  D. S. Levine,  Jie Liu,  
 S. C. McKenzie,  A. F. Morrison,  K. Nanda,  F. Plasser,  D. R. Rehn,  
 M. L. Vidal,  Zhi-Qiang You,  Ying Zhu,  B. Alam,  B. Albrecht,  
 A. Aldossary,  E. Alguire,  J. H. Andersen,  D. Barton,  K. Begam,  A. Behn,  
 Y. A. Bernard,  E. J. Berquist,  H. Burton,  A. Carreras,  K. Carter-Fenk,  
 R. Chakraborty,  A. D. Chien,  K. D. Closser,  V. Cofer-Shabica,  
 S. Dasgupta,  Jia Deng,  M. de Wergifosse,  M. Diedenhofen,  Hainam Do,  
 S. Ehlert,  Po-Tung Fang,  S. Fatehi,  Qingguo Feng,  T. Friedhoff,  
 J. Gayvert,  Qinghui Ge,  G. Gidofalvi,  M. Goldey,  J. Gomes,  
 C. Gonzalez-Espinoza,  S. Gulania,  A. Gunina,  M. W. D. Hanson-Heine,  
 P. H. P. Harbach,  A. W. Hauser,  M. F. Herbst,  M. Hernandez Vera,  
 M. Hodecker,  Z. C. Holden,  S. Houck,  Xunkun Huang,  Kerwin Hui,  
 B. C. Huynh,  M. Ivanov,  Hyunjun Ji,  Hanjie Jiang,  B. Kaduk,  S. Kaehler,  
 K. Khistyaev,  Jaehoon Kim,  P. Klunzinger,  Z. Koczor-Benda,  
 Joong Hoon Koh,  D. Kosenkov,  L. Koulias,  T. Kowalczyk,  C. M. Krauter,  
 K. Kue,  A. Kunitsa,  T. Kus,  A. Landau,  K. V. Lawler,  D. Lefrancois,  
 S. Lehtola,  Rain Li,  Yi-Pei Li,  Jiashu Liang,  M. Liebenthal,  
 Hung-Hsuan Lin,  You-Sheng Lin,  Fenglai Liu,  Kuan-Yu Liu,  
 M. Loipersberger,  A. Luenser,  A. Manjanath,  P. Manohar,  E. Mansoor,  
 S. F. Manzer,  Shan-Ping Mao,  A. V. Marenich,  T. Markovich,  S. Mason,  
 S. A. Maurer,  P. F. McLaughlin,  M. F. S. J. Menger,  J.-M. Mewes,  
 S. A. Mewes,  P. Morgante,  J. W. Mullinax,  K. J. Oosterbaan,  G. Paran,  
 Alexander C. Paul,  Suranjan K. Paul,  F. Pavosevic,  Zheng Pei,  S. Prager,  
 E. I. Proynov,  E. Ramos,  B. Rana,  A. E. Rask,  A. Rettig,  R. M. Richard,  
 F. Rob,  E. Rossomme,  T. Scheele,  M. Scheurer,  M. Schneider,  
 N. Sergueev,  S. M. Sharada,  W. Skomorowski,  D. W. Small,  C. J. Stein,  
 Yu-Chuan Su,  E. J. Sundstrom,  Zhen Tao,  J. Thirman,  T. Tsuchimochi,  
 N. M. Tubman,  S. P. Veccham,  O. Vydrov,  J. Wenzel,  J. Witte,  A. Yamada,  
 Kun Yao,  S. Yeganeh,  S. R. Yost,  A. Zech,  Igor Ying Zhang,  Xing Zhang,  
 Yu Zhang,  D. Zuev,  A. Aspuru-Guzik,  A. T. Bell,  N. A. Besley,  
 K. B. Bravaya,  B. R. Brooks,  D. Casanova,  Jeng-Da Chai,  S. Coriani,  
 C. J. Cramer,  A. E. DePrince, III,  R. A. DiStasio Jr.,  A. Dreuw,  
 B. D. Dunietz,  T. R. Furlani,  W. A. Goddard III,  S. Grimme,  
 S. Hammes-Schiffer,  T. Head-Gordon,  W. J. Hehre,  Chao-Ping Hsu,  
 T.-C. Jagau,  Yousung Jung,  A. Klamt,  Jing Kong,  D. S. Lambrecht,  
 WanZhen Liang,  N. J. Mayhall,  C. W. McCurdy,  J. B. Neaton,  
 C. Ochsenfeld,  J. A. Parkhill,  R. Peverati,  V. A. Rassolov,  Yihan Shao,  
 L. V. Slipchenko,  T. Stauch,  R. P. Steele,  J. E. Subotnik,  
 A. J. W. Thom,  A. Tkatchenko,  D. G. Truhlar,  T. Van Voorhis,  
 T. A. Wesolowski,  K. B. Whaley,  H. L. Woodcock III,  P. M. Zimmerman,  
 S. Faraji,  P. M. W. Gill,  M. Head-Gordon,  J. M. Herbert,  A. I. Krylov

 Additional authors for Version 5.4.1: 
 S. Kotaru,  Shaozhi Li,  Xiangyuan Li,  F. Matz,  A. Molle,  Haisheng Ren,  
 Yingli Su,  Hung-Yi Tsai,  C. Utku,  Fang Wang

 Contributors to earlier versions of Q-Chem not listed above: 
 R. D. Adamson,  B. Austin,  R. Baer,  J. Baker,  G. J. O. Beran,  
 K. Brandhorst,  S. T. Brown,  E. F. C. Byrd,  A. K. Chakraborty,  
 G. K. L. Chan,  Chun-Min Chang,  Yunqing Chen,  C.-L. Cheng,  
 Siu Hung Chien,  D. M. Chipman,  D. L. Crittenden,  H. Dachsel,  
 R. J. Doerksen,  A. D. Dutoi,  R. G. Edgar,  J. Fosso-Tande,  
 L. Fusti-Molnar,  D. Ghosh,  A. Ghysels,  A. Golubeva-Zadorozhnaya,  
 J. Gonthier,  M. S. Gordon,  S. R. Gwaltney,  G. Hawkins,  J. E. Herr,  
 A. Heyden,  S. Hirata,  E. G. Hohenstein,  G. Kedziora,  F. J. Keil,  
 C. Kelley,  Jihan Kim,  R. A. King,  R. Z. Khaliullin,  P. P. Korambath,  
 W. Kurlancheek,  A. Laurent,  A. M. Lee,  M. S. Lee,  S. V. Levchenko,  
 Ching Yeh Lin,  D. Liotard,  E. Livshits,  R. C. Lochan,  I. Lotan,  
 L. A. Martinez-Martinez,  P. E. Maslen,  N. Nair,  D. P. O'Neill,  
 D. Neuhauser,  E. Neuscamman,  C. M. Oana,  R. Olivares-Amaya,  R. Olson,  
 T. M. Perrine,  B. Peters,  P. A. Pieniazek,  A. Prociuk,  Y. M. Rhee,  
 J. Ritchie,  M. A. Rohrdanz,  E. Rosta,  N. J. Russ,  H. F. Schaefer III,  
 M. W. Schmidt,  N. E. Schultz,  S. Sharma,  N. Shenvi,  C. D. Sherrill,  
 A. C. Simmonett,  A. Sodt,  T. Stein,  D. Stuck,  K. S. Thanthiriwatte,  
 V. Vanovschi,  L. Vogt,  Tao Wang,  A. Warshel,  M. A. Watson,  
 C. F. Williams,  Q. Wu,  X. Xu,  Jun Yang,  W. Zhang,  Yan Zhao

 Please cite Q-Chem as follows:
 Y. Shao et al., Mol. Phys. 113, 184-215 (2015)
 DOI: 10.1080/00268976.2014.952696

 Q-Chem 5.4.1 for Intel X86 EM64T Linux

 Parts of Q-Chem use Armadillo 9.900.5 (Nocturnal Misbehaviour).
 http://arma.sourceforge.net/

 Q-Chem begins on Fri Mar  4 18:57:16 2022  

 Host: node01
0

     Scratch files written to /src/jdavis/qchem.scratch/qchem14756//
 Processing $rem in /src/tsommerfeld/qchem/config/preferences:
 Processing $rem in /home/jdavis/.qchemrc:

 Checking the input file for inconsistencies... 	...done.

--------------------------------------------------------------
User input:
--------------------------------------------------------------
$molecule
-1 1
C        -0.6645000000    0.0000000000    1.1619088658
C         0.6645000000    0.0000000000    1.1619088658
H        -1.1590800000    0.0000000000    0.1995598658
H         1.1590800000    0.0000000000    0.1995598658
H        -1.1590800000    0.0000000000    2.1242568658
H         1.1590800000    0.0000000000    2.1242568658
O         0.0000000000    0.0000000000   -1.5841414040
H         0.0000000000    0.0000000000   -2.5471307683
$end
$rem
   METHOD adc(2)
   BASIS gen
   PURECART 11
   EE_STATES [0,0,0,10]
   scf_convergence 8
   ADC_DAVIDSON_MAXITER 120
   ADC_DAVIDSON_MAXSUBSPACE 200
   adc_nguess_singles 100
   THRESH 14
   S2THRESH 14
   adc_davidson_conv 5
   adc_davidson_thresh 14
   THREADS 10
   MEM_TOTAL 95000
   STATE_ANALYSIS TRUE
$end
$basis
C 1
S   9   1.00
      6.665000D+03           6.920000D-04
      1.000000D+03           5.329000D-03
      2.280000D+02           2.707700D-02
      6.471000D+01           1.017180D-01
      2.106000D+01           2.747400D-01
      7.495000D+00           4.485640D-01
      2.797000D+00           2.850740D-01
      5.215000D-01           1.520400D-02
      1.596000D-01          -3.191000D-03
S   9   1.00
      6.665000D+03          -1.460000D-04
      1.000000D+03          -1.154000D-03
      2.280000D+02          -5.725000D-03
      6.471000D+01          -2.331200D-02
      2.106000D+01          -6.395500D-02
      7.495000D+00          -1.499810D-01
      2.797000D+00          -1.272620D-01
      5.215000D-01           5.445290D-01
      1.596000D-01           5.804960D-01
S   1   1.00
      1.596000D-01           1.000000D+00
S   1   1.00
      0.0469000              1.0000000
P   4   1.00
      9.439000D+00           3.810900D-02
      2.002000D+00           2.094800D-01
      5.456000D-01           5.085570D-01
      1.517000D-01           4.688420D-01
P   1   1.00
      1.517000D-01           1.000000D+00
P   1   1.00
      0.0459697      1.0000000
D   1   1.00
      5.500000D-01           1.0000000
****
C 2
S   9   1.00
      6.665000D+03           6.920000D-04
      1.000000D+03           5.329000D-03
      2.280000D+02           2.707700D-02
      6.471000D+01           1.017180D-01
      2.106000D+01           2.747400D-01
      7.495000D+00           4.485640D-01
      2.797000D+00           2.850740D-01
      5.215000D-01           1.520400D-02
      1.596000D-01          -3.191000D-03
S   9   1.00
      6.665000D+03          -1.460000D-04
      1.000000D+03          -1.154000D-03
      2.280000D+02          -5.725000D-03
      6.471000D+01          -2.331200D-02
      2.106000D+01          -6.395500D-02
      7.495000D+00          -1.499810D-01
      2.797000D+00          -1.272620D-01
      5.215000D-01           5.445290D-01
      1.596000D-01           5.804960D-01
S   1   1.00
      1.596000D-01           1.000000D+00
S   1   1.00
      0.0469000              1.0000000
P   4   1.00
      9.439000D+00           3.810900D-02
      2.002000D+00           2.094800D-01
      5.456000D-01           5.085570D-01
      1.517000D-01           4.688420D-01
P   1   1.00
      1.517000D-01           1.000000D+00
P   1   1.00
      0.0459697      1.0000000
D   1   1.00
      5.500000D-01           1.0000000
****
H 3
cc-pVDZ
****
H 4
cc-pVDZ
****
H 5
cc-pVDZ
****
H 6
cc-pVDZ
****
O 7
aug-cc-pVDZ
****
H 8
cc-pVDZ
****
$end
--------------------------------------------------------------
 ----------------------------------------------------------------
             Standard Nuclear Orientation (Angstroms)
    I     Atom           X                Y                Z
 ----------------------------------------------------------------
    1      C      -0.6645000000    -0.0000000000     1.0270977517
    2      C       0.6645000000     0.0000000000     1.0270977517
    3      H      -1.1590800000    -0.0000000000     0.0647487517
    4      H       1.1590800000     0.0000000000     0.0647487517
    5      H      -1.1590800000    -0.0000000000     1.9894457517
    6      H       1.1590800000     0.0000000000     1.9894457517
    7      O       0.0000000000    -0.0000000000    -1.7189525181
    8      H       0.0000000000    -0.0000000000    -2.6819418824
 ----------------------------------------------------------------
 Molecular Point Group                 C2v   NOp =  4
 Largest Abelian Subgroup              C2v   NOp =  4
 Nuclear Repulsion Energy =          64.38561153 hartrees
 There are       13 alpha and       13 beta electrons
 Requested basis set is non-standard
 There are 40 shells and 84 basis functions
 Total memory of 95000 MB is distributed as follows: 
   MEM_STATIC is set to 192 MB
   QALLOC/CCMAN JOB total memory use is  94808 MB
 Warning: actual memory use might exceed 95000 MB

 Total QAlloc Memory Limit  95000 MB
 Mega-Array Size       188 MB
 MEM_STATIC part       192 MB

                       Distance Matrix (Angstroms)
             C (  1)   C (  2)   H (  3)   H (  4)   H (  5)   H (  6)
   C (  2)  1.329000
   H (  3)  1.082000  2.061931
   H (  4)  2.061931  1.082000  2.318160
   H (  5)  1.082000  2.061931  1.924697  3.013026
   H (  6)  2.061931  1.082000  3.013026  1.924697  2.318160
   O (  7)  2.825306  2.825306  2.127218  2.127218  3.885316  3.885316
   H (  8)  3.768094  3.768094  2.981237  2.981237  4.813037  4.813037
             O (  7)
   H (  8)  0.962989
 
 A cutoff of  1.0D-14 yielded    820 shell pairs
 There are      3652 function pairs (      4018 Cartesian)
 Smallest overlap matrix eigenvalue = 2.25E-04

 Scale SEOQF with 1.000000e-01/1.000000e-01/1.000000e-01

 Standard Electronic Orientation quadrupole field applied
 Nucleus-field energy     =    -0.0000000051 hartrees
 ================ Generating on-the-fly SAD Guess ================
Attempting to make child job directory: /src/jdavis/qchem.scratch/qchem14756//Frg1/
Attempting to make child job directory: /src/jdavis/qchem.scratch/qchem14756//Frg2/
Attempting to make child job directory: /src/jdavis/qchem.scratch/qchem14756//Frg3/
Creating input file /src/jdavis/qchem.scratch/qchem14756/Frg1.input
using default PutDataFrgm: nothing
calling putenv with: QCSCRATCH=/src/jdavis/qchem.scratch/qchem14756/ 
Spawning Job For Fragment 0
Done Job For Fragment 0
calling putenv with: QCSCRATCH=/src/jdavis/qchem.scratch 
calling putenv with: QCTHREADS=1 
Creating input file /src/jdavis/qchem.scratch/qchem14756/Frg2.input
using default PutDataFrgm: nothing
calling putenv with: QCSCRATCH=/src/jdavis/qchem.scratch/qchem14756/ 
Spawning Job For Fragment 1
Done Job For Fragment 1
calling putenv with: QCSCRATCH=/src/jdavis/qchem.scratch 
calling putenv with: QCTHREADS=1 
Creating input file /src/jdavis/qchem.scratch/qchem14756/Frg3.input
using default PutDataFrgm: nothing
calling putenv with: QCSCRATCH=/src/jdavis/qchem.scratch/qchem14756/ 
Spawning Job For Fragment 2
Done Job For Fragment 2
calling putenv with: QCSCRATCH=/src/jdavis/qchem.scratch 
calling putenv with: QCTHREADS=1 
 Time for running child jobs:  CPU 1.77 s  wall 80.82 s
 ============= Method Specific SAD Guess Constructed =============
 Guess from on-the-fly superposition of atomic densities
 Warning: Energy on first SCF cycle will be non-variational
 A restricted Hartree-Fock SCF calculation will be
 performed using Pulay DIIS extrapolation
 SCF converges when DIIS error is below 1.0E-08
 using 10 threads for integral computing
 -------------------------------------------------------
 OpenMP Integral computing Module                
 Release: version 1.0, May 2013, Q-Chem Inc. Pittsburgh 
 -------------------------------------------------------
 ---------------------------------------
  Cycle       Energy         DIIS Error
 ---------------------------------------
    1    -153.5737940836      6.41E-02
    2    -153.2897076318      1.31E-02
    3    -153.3570648343      1.09E-02
    4    -153.4401260138      8.01E-04
    5    -153.4410341750      2.26E-04
    6    -153.4411063308      4.88E-05
    7    -153.4411115082      1.27E-05
    8    -153.4411120454      3.80E-06
    9    -153.4411120918      7.99E-07
   10    -153.4411120934      1.38E-07
   11    -153.4411120934      3.75E-08
   12    -153.4411120935      1.05E-08
   13    -153.4411120934      2.08E-09 Convergence criterion met
 ---------------------------------------
 SCF time:  CPU 13.82 s  wall 1.39 s
 SCF   energy in the final basis set = -153.44111209
 Total energy in the final basis set = -153.44111209
================================================================================
|                                                                              |
|                                 A D C  M A N                                 |
|                                                                              |
 ------------------------------------------------------------------------------ 
|                                                                              |
| Components:                                                                  |
|                                                                              |
| - libvmm - 1.3-trunk                                                         |
|   Authors:                                                                   |
|   Evgeny Epifanovsky, Ilya Kaliman                                           |
|                                                                              |
| - libtensor - 2.5-trunk                                                      |
|   Authors:                                                                   |
|   Evgeny Epifanovsky, Michael Wormit, Dmitry Zuev, Sam Manzer,               |
|   Ilya Kaliman                                                               |
|                                                                              |
| - libwfa - 1.1-trunk                                                         |
|   Authors:                                                                   |
|   Felix Plasser, Stefanie Mewes (Baeppler), Benjamin Thomitzni,              |
|   Michael Wormit, Feng Chen, Anna I. Krylov, Pavel Pokhilko                  |
|                                                                              |
| - libadc - 1.1-trunk                                                         |
|   Authors:                                                                   |
|   Michael Wormit, Adrian L. Dempwolff, Philipp H. P. Harbach,                |
|   Caroline Krauter, Dirk Rehn, Matthias Schneider, Jan Wenzel                |
|                                                                              |
| - adcman - 2.6-trunk                                                         |
|   Authors:                                                                   |
|   Michael Wormit, Adrian L. Dempwolff, Philipp H. P. Harbach,                |
|   Caroline Krauter, Daniel Lefrancois, Jan-Michael Mewes, Dirk Rehn,         |
|   Matthias Schneider, Jan Wenzel, Andreas Dreuw                              |
|                                                                              |
| Authors of earlier versions of ADCMAN:                                       |
| Andreas Dreuw, Jan Hendrik Starcke, Dirk Rehn, Michael Wormit                |
|                                                                              |
================================================================================

 
 Alpha MOs, Restricted
 -- Occupied --                  
-20.213 -11.049 -11.047  -0.930  -0.854  -0.598  -0.473  -0.384
  1 A1    2 A1    1 B1    3 A1    4 A1    2 B1    5 A1    6 A1                 
 -0.328  -0.271  -0.194  -0.129  -0.128
  3 B1    7 A1    1 B2    4 B1    2 B2                                         
 -- Virtual --                   
  0.211   0.214   0.259   0.262   0.278   0.283   0.306   0.363
  5 B1    8 A1    1 A2    9 A1    6 B1    3 B2   10 A1   11 A1                 
  0.394   0.403   0.446   0.463   0.479   0.523   0.528   0.577
  7 B1    2 A2    4 B2    8 B1   12 A1   13 A1    9 B1   14 A1                 
  0.627   0.643   0.667   0.853   0.965   1.005   1.052   1.077
 10 B1   15 A1   11 B1   16 A1   17 A1    5 B2   18 A1   19 A1                 
  1.083   1.100   1.173   1.204   1.204   1.209   1.291   1.297
  3 A2   12 B1   13 B1    6 B2   14 B1   20 A1    4 A2   21 A1                 
  1.330   1.333   1.370   1.467   1.483   1.494   1.558   1.642
 22 A1   15 B1    7 B2    8 B2    5 A2   16 B1   17 B1   23 A1                 
  1.691   1.717   1.853   1.926   1.970   2.035   2.123   2.123
 18 B1    9 B2   24 A1   19 B1   25 A1    6 A2   26 A1   10 B2                 
  2.124   2.185   2.212   2.290   2.357   2.393   2.436   2.486
 20 B1   27 A1   11 B2   28 A1    7 A2   12 B2   21 B1   22 B1                 
  2.554   2.604   2.734   2.753   2.843   3.006   3.032   3.085
 29 A1    8 A2   23 B1   30 A1   24 B1   31 A1   32 A1   33 A1                 
  3.457   3.562   3.921   3.945   3.971   4.084   4.538
 25 B1   26 B1   13 B2    9 A2   34 A1   27 B1   35 A1                         
 
 Beta MOs, Restricted
 -- Occupied --                  
-20.213 -11.049 -11.047  -0.930  -0.854  -0.598  -0.473  -0.384
  1 A1    2 A1    1 B1    3 A1    4 A1    2 B1    5 A1    6 A1                 
 -0.328  -0.271  -0.194  -0.129  -0.128
  3 B1    7 A1    1 B2    4 B1    2 B2                                         
 -- Virtual --                   
  0.211   0.214   0.259   0.262   0.278   0.283   0.306   0.363
  5 B1    8 A1    1 A2    9 A1    6 B1    3 B2   10 A1   11 A1                 
  0.394   0.403   0.446   0.463   0.479   0.523   0.528   0.577
  7 B1    2 A2    4 B2    8 B1   12 A1   13 A1    9 B1   14 A1                 
  0.627   0.643   0.667   0.853   0.965   1.005   1.052   1.077
 10 B1   15 A1   11 B1   16 A1   17 A1    5 B2   18 A1   19 A1                 
  1.083   1.100   1.173   1.204   1.204   1.209   1.291   1.297
  3 A2   12 B1   13 B1    6 B2   14 B1   20 A1    4 A2   21 A1                 
  1.330   1.333   1.370   1.467   1.483   1.494   1.558   1.642
 22 A1   15 B1    7 B2    8 B2    5 A2   16 B1   17 B1   23 A1                 
  1.691   1.717   1.853   1.926   1.970   2.035   2.123   2.123
 18 B1    9 B2   24 A1   19 B1   25 A1    6 A2   26 A1   10 B2                 
  2.124   2.185   2.212   2.290   2.357   2.393   2.436   2.486
 20 B1   27 A1   11 B2   28 A1    7 A2   12 B2   21 B1   22 B1                 
  2.554   2.604   2.734   2.753   2.843   3.006   3.032   3.085
 29 A1    8 A2   23 B1   30 A1   24 B1   31 A1   32 A1   33 A1                 
  3.457   3.562   3.921   3.945   3.971   4.084   4.538
 25 B1   26 B1   13 B2    9 A2   34 A1   27 B1   35 A1                         

--------------------------------------------------------------------------------
                                   HF Summary                                   
--------------------------------------------------------------------------------
  Energy:                                                 -153.4411120934 a.u.
  Dip. moment [a.u.]:                  [  -0.000000,    0.000000,    2.077042]
  Total dipole [Debye]:                                               5.279316
  <r^2> [a.u.]:                        [  55.681350,   19.664083,  208.013333]
  Total <r^2> [a.u.]:                                               283.358766
--------------------------------------------------------------------------------

--------------------------------------------------------------------------------
                                 MP(2) Summary                                  
--------------------------------------------------------------------------------
  MP energy contribution:                                   -0.5276309726 a.u.
  Total energy:                                           -153.9687430661 a.u.
  Dip. moment [a.u.]:                  [   0.000000,   -0.000000,    2.141293]
  Total dipole [Debye]:                                               5.442626
  <r^2> [a.u.]:                        [  56.623020,   20.325204,  209.237359]
  Total <r^2> [a.u.]:                                               286.185583

  Density matrix analysis:
  ------------------------
  NOs
    Occupation of frontier NOs:
       0.0446   1.9358
    Number of electrons: 26.000000
    Number of unpaired electrons: n_u =  0.71493, n_u,nl =  0.08527
    NO participation ratio (PR_NO): 23.016903
  
  
  Mulliken Population Analysis
  Atom      Charge (e)              h+              e-           Del q
  --------------------------------------------------------------------
   1 C       -0.189460        0.092766       -0.097058       -0.004293
   2 C       -0.189460        0.092766       -0.097058       -0.004293
   3 H        0.183893        0.017029       -0.009327        0.007702
   4 H        0.183893        0.017029       -0.009327        0.007702
   5 H        0.013288        0.018399       -0.012725        0.005674
   6 H        0.013288        0.018399       -0.012725        0.005674
   7 O       -1.062887        0.275082       -0.276738       -0.001656
   8 H        0.047445        0.015895       -0.032406       -0.016511
  --------------------------------------------------------------------
  Sum:       -1.000000        0.547364       -0.547364       -0.000000
  
  Multipole moment analysis of the density matrix
    Molecular charge:                      -1.000000
    Number of electrons:                   26.000000
      Center of electronic charge [Ang]: [ -0.000000,   0.000000,  -0.043582]
    Total nuclear charge:                  25.000000
      Center of nuclear charge [Ang]:    [  0.000000,   0.000000,  -0.000000]
    Dipole moment [D]:                     5.442624
      Cartesian components [D]:          [  0.000000,  -0.000000,   5.442624]
    RMS size of the density [Ang]:         1.755111
      Cartesian components [Ang]:        [  0.780928,   0.467877,   1.500552]
  
  Exciton analysis of the difference density matrix
    <r_h> [Ang]:                  [ -0.000000,   0.000000,  -0.467324]
    <r_e> [Ang]:                  [ -0.000000,   0.000000,  -0.529440]
    |<r_e - r_h>| [Ang]:            0.062116
    Hole size [Ang]:                1.923599
      Cartesian components [Ang]: [  0.847932,   0.712259,   1.572873]
    Electron size [Ang]:            2.254884
      Cartesian components [Ang]: [  1.095784,   0.919532,   1.743049]
--------------------------------------------------------------------------------
  Starting Davidson for singlet states of irrep B2 ... 
--------------------------------------------------------------------------------
   It NVec Conv  Avg. Norm  Max. Norm  Conv. states           Remark
--------------------------------------------------------------------------------
       100    0  1.486e-01  5.586e-01  0.2742 n n n n n n n n Guess.
    1  110    0  2.675e-02  1.707e-01  0.1216 n n n n n n n n 
    2  120    0  5.216e-03  4.101e-02  0.1208 n n n n n n n n 
    3  130    0  6.405e-03  6.173e-02  0.1208 n n n n n n n n 
    4  140    0  4.248e-03  4.156e-02  0.1208 n n n n n n n n 
    5  150    3  6.649e-04  6.313e-03  0.1208 y y n n n y n n 
    6  160    7  1.064e-04  1.005e-03  0.1208 y y y y y y n y 
    7  170    8  1.469e-05  1.378e-04  0.1208 y y y y y y y y 
    8  180    9  1.481e-06  1.388e-05  0.1208 y y y y y y y y 
    9  190   10  1.566e-07  1.469e-06  0.1208 y y y y y y y y Converged.
--------------------------------------------------------------------------------
  Davidson Summary: 
 ------------------------------------------------------------
  State  0: excitation energy =   0.1208 a.u.   (converged)
  State  1: excitation energy =   0.1212 a.u.   (converged)
  State  2: excitation energy =   0.1335 a.u.   (converged)
  State  3: excitation energy =   0.1724 a.u.   (converged)
  State  4: excitation energy =   0.2191 a.u.   (converged)
  State  5: excitation energy =   0.2297 a.u.   (converged)
  State  6: excitation energy =   0.2467 a.u.   (converged)
  State  7: excitation energy =   0.2848 a.u.   (converged)
  State  8: excitation energy =   0.3173 a.u.   (converged)
  State  9: excitation energy =   0.3191 a.u.   (converged)
 ------------------------------------------------------------


--------------------------------------------------------------------------------
                   State-averaged natural transition orbitals
--------------------------------------------------------------------------------
--------------------------------------------------------------------------------

--------------------------------------------------------------------------------
                             Excited State Summary
--------------------------------------------------------------------------------
--------------------------------------------------------------------------------

  Excited state 1 (singlet, B2)                                    [converged]
  ----------------------------------------------------------------------------
  Term symbol:  1 (1) B2                                    R^2 =  3.13062e-10

  Total energy:                                           -153.8479378824 a.u.
  Excitation energy:                                               3.287276 eV

  Osc. strength:                                                      0.058933
  Trans. dip. moment [a.u.]:           [   0.000000,   -0.855422,   -0.000000]
  <i|r^2|0> [a.u.]:                    [   0.000000,    0.000000,    0.000000]

  Dip. moment [a.u.]:                  [  -0.000000,    0.000000,    1.595183]
  Total dipole [Debye]:                                               4.054551
  <r^2> [a.u.]:                        [  63.124364,   24.971725,  228.008839]
  Total <r^2> [a.u.]:                                               316.104928

  V1^2 = 0.8912, V2^2 = 0.1088

  Important amplitudes:
      occ i      occ j       vir a       vir b          v   
    ---------------------------------------------------------
     2 (B2) A               9 (A1) A                 -0.4588
     2 (B2) A              10 (A1) A                 -0.3782
    ---------------------------------------------------------

  Density matrix analysis:
  ------------------------
  NOs
    Occupation of frontier NOs:
       0.9662   0.9953
    Number of electrons: 26.000000
    Number of unpaired electrons: n_u =  2.72268, n_u,nl =  2.10464
    NO participation ratio (PR_NO):  3.796917
  
  
  Mulliken Population Analysis
  Atom      Charge (e)              h+              e-           Del q
  --------------------------------------------------------------------
   1 C       -0.629200        0.019007       -0.458747       -0.439739
   2 C       -0.629200        0.019007       -0.458747       -0.439739
   3 H        0.134974        0.000314       -0.049233       -0.048919
   4 H        0.134974        0.000314       -0.049233       -0.048919
   5 H        0.065712        0.023587        0.028836        0.052424
   6 H        0.065712        0.023587        0.028836        0.052424
   7 O       -0.828239        1.294809       -1.060161        0.234649
   8 H        0.685265        0.175321        0.462499        0.637820
  --------------------------------------------------------------------
  Sum:       -1.000000        1.555948       -1.555948        0.000000
  
  Multipole moment analysis of the density matrix
    Molecular charge:                      -1.000000
    Number of electrons:                   26.000000
      Center of electronic charge [Ang]: [  0.000000,  -0.000000,  -0.032467]
    Total nuclear charge:                  25.000000
      Center of nuclear charge [Ang]:    [  0.000000,   0.000000,  -0.000000]
    Dipole moment [D]:                     4.054550
      Cartesian components [D]:          [ -0.000000,   0.000000,   4.054550]
    RMS size of the density [Ang]:         1.844858
      Cartesian components [Ang]:        [  0.824542,   0.518607,   1.566741]
  
  Exciton analysis of the difference density matrix
    <r_h> [Ang]:                  [ -0.000000,   0.000000,  -1.575835]
    <r_e> [Ang]:                  [  0.000000,   0.000000,  -1.390103]
    |<r_e - r_h>| [Ang]:            0.185732
    Hole size [Ang]:                1.644185
      Cartesian components [Ang]: [  0.786721,   0.868467,   1.153333]
    Electron size [Ang]:            2.939198
      Cartesian components [Ang]: [  1.337533,   1.261144,   2.293339]

  Transition density matrix analysis:
  -----------------------------------
  
  CT numbers (Mulliken)
    omega =     0.8735
    <Phe> =    -0.0095
  
  Exciton analysis of the transition density matrix
    Trans. dipole moment [D]:             1.087133
      Cartesian components [D]:         [  0.000000,  -1.087133,  -0.000000]
    <r_h> [Ang]:                        [  0.000000,  -0.000000,  -1.745063]
    <r_e> [Ang]:                        [  0.000000,   0.000000,  -1.476001]
    |<r_e - r_h>| [Ang]:                  0.269062
    Hole size [Ang]:                      1.083340
      Cartesian components [Ang]:       [  0.473430,   0.815758,   0.532945]
    Electron size [Ang]:                  3.451023
      Cartesian components [Ang]:       [  1.549222,   1.482705,   2.703897]
    RMS electron-hole separation [Ang]:   3.619245
      Cartesian components [Ang]:       [  1.619395,   1.687109,   2.762274]
    Covariance(r_h, r_e) [Ang^2]:         0.028324
    Correlation coefficient:              0.007576
    Center-of-mass size [Ang]:            1.812446
      Cartesian components [Ang]:       [  0.810248,   0.848736,   1.381341]

  Decomposition into state-averaged NTOs
    H- 0 -> L+ 3:  0.4592 ( 42.2%)
    H- 0 -> L+ 0:  0.3475 ( 24.2%)
    H- 0 -> L+ 1: -0.2616 ( 13.7%)
    H- 0 -> L+ 4: -0.1868 (  7.0%)
                   omega =  87.3%
  ----------------------------------------------------------------------------


  Excited state 2 (singlet, B2)                                    [converged]
  ----------------------------------------------------------------------------
  Term symbol:  2 (1) B2                                    R^2 =  3.44320e-10

  Total energy:                                           -153.8475080148 a.u.
  Excitation energy:                                               3.298974 eV

  Osc. strength:                                                      0.002181
  Trans. dip. moment [a.u.]:           [  -0.000000,    0.164280,    0.000000]
  <i|r^2|0> [a.u.]:                    [  -0.000000,   -0.000000,   -0.000000]

  Dip. moment [a.u.]:                  [   0.000000,    0.000000,   -4.284232]
  Total dipole [Debye]:                                              10.889433
  <r^2> [a.u.]:                        [  75.006881,   26.022574,  214.670973]
  Total <r^2> [a.u.]:                                               315.700429

  V1^2 = 0.8694, V2^2 = 0.1306

  Important amplitudes:
      occ i      occ j       vir a       vir b          v   
    ---------------------------------------------------------
     2 (B2) A               8 (A1) A                 -0.6022
     2 (B2) A               9 (A1) A                  0.2239
    ---------------------------------------------------------

  Density matrix analysis:
  ------------------------
  NOs
    Occupation of frontier NOs:
       0.9638   0.9925
    Number of electrons: 26.000000
    Number of unpaired electrons: n_u =  2.74983, n_u,nl =  2.11509
    NO participation ratio (PR_NO):  3.887839
  
  
  Mulliken Population Analysis
  Atom      Charge (e)              h+              e-           Del q
  --------------------------------------------------------------------
   1 C       -0.802770        0.047644       -0.660953       -0.613309
   2 C       -0.802770        0.047644       -0.660953       -0.613309
   3 H        0.165843       -0.000690       -0.017360       -0.018050
   4 H        0.165843       -0.000690       -0.017360       -0.018050
   5 H        0.180132        0.041266        0.125577        0.166843
   6 H        0.180132        0.041266        0.125577        0.166843
   7 O       -0.276049        1.378672       -0.591833        0.786838
   8 H        0.189639        0.130798        0.011397        0.142194
  --------------------------------------------------------------------
  Sum:       -1.000000        1.685909       -1.685909        0.000000
  
  Multipole moment analysis of the density matrix
    Molecular charge:                      -1.000000
    Number of electrons:                   26.000000
      Center of electronic charge [Ang]: [ -0.000000,  -0.000000,   0.087197]
    Total nuclear charge:                  25.000000
      Center of nuclear charge [Ang]:    [  0.000000,   0.000000,  -0.000000]
    Dipole moment [D]:                     10.889430
      Cartesian components [D]:          [  0.000000,   0.000000, -10.889430]
    RMS size of the density [Ang]:         1.841899
      Cartesian components [Ang]:        [  0.898804,   0.529407,   1.518049]
  
  Exciton analysis of the difference density matrix
    <r_h> [Ang]:                  [ -0.000000,   0.000000,  -1.423041]
    <r_e> [Ang]:                  [ -0.000000,  -0.000000,   0.593819]
    |<r_e - r_h>| [Ang]:            2.016860
    Hole size [Ang]:                1.764295
      Cartesian components [Ang]: [  0.823295,   0.846078,   1.311135]
    Electron size [Ang]:            3.112485
      Cartesian components [Ang]: [  1.931674,   1.289255,   2.072201]

  Transition density matrix analysis:
  -----------------------------------
  
  CT numbers (Mulliken)
    omega =     0.8528
    <Phe> =    -0.0010
  
  Exciton analysis of the transition density matrix
    Trans. dipole moment [D]:             0.208779
      Cartesian components [D]:         [ -0.000000,   0.208779,   0.000000]
    <r_h> [Ang]:                        [  0.000000,  -0.000000,  -1.728605]
    <r_e> [Ang]:                        [ -0.000000,  -0.000000,   1.801942]
    |<r_e - r_h>| [Ang]:                  3.530548
    Hole size [Ang]:                      1.111463
      Cartesian components [Ang]:       [  0.476657,   0.818425,   0.581661]
    Electron size [Ang]:                  3.292183
      Cartesian components [Ang]:       [  2.406982,   1.581883,   1.594538]
    RMS electron-hole separation [Ang]:   4.950618
      Cartesian components [Ang]:       [  2.453200,   1.778416,   3.915057]
    Covariance(r_h, r_e) [Ang^2]:         0.014985
    Correlation coefficient:              0.004095
    Center-of-mass size [Ang]:            1.739525
      Cartesian components [Ang]:       [  1.227125,   0.891850,   0.851302]

  Decomposition into state-averaged NTOs
    H- 0 -> L+ 1: -0.5560 ( 61.8%)
    H- 0 -> L+ 0: -0.3343 ( 22.4%)
                   omega =  85.3%
  ----------------------------------------------------------------------------


  Excited state 3 (singlet, B2)                                    [converged]
  ----------------------------------------------------------------------------
  Term symbol:  3 (1) B2                                    R^2 =  9.06380e-10

  Total energy:                                           -153.8352375283 a.u.
  Excitation energy:                                               3.632870 eV

  Osc. strength:                                                      0.001195
  Trans. dip. moment [a.u.]:           [   0.000000,    0.115873,    0.000000]
  <i|r^2|0> [a.u.]:                    [  -0.000000,   -0.000000,   -0.000000]

  Dip. moment [a.u.]:                  [   0.000000,   -0.000000,   -2.799350]
  Total dipole [Debye]:                                               7.115239
  <r^2> [a.u.]:                        [  64.863285,   28.597697,  202.331713]
  Total <r^2> [a.u.]:                                               295.792695

  V1^2 = 0.8721, V2^2 = 0.1279

  Important amplitudes:
      occ i      occ j       vir a       vir b          v   
    ---------------------------------------------------------
     4 (B1) A               1 (A2) A                 -0.6348
     4 (B1) A               2 (A2) A                  0.1776
    ---------------------------------------------------------

  Density matrix analysis:
  ------------------------
  NOs
    Occupation of frontier NOs:
       0.9673   0.9936
    Number of electrons: 26.000000
    Number of unpaired electrons: n_u =  2.72783, n_u,nl =  2.10353
    NO participation ratio (PR_NO):  3.814573
  
  
  Mulliken Population Analysis
  Atom      Charge (e)              h+              e-           Del q
  --------------------------------------------------------------------
   1 C       -0.622043        0.081365       -0.513947       -0.432583
   2 C       -0.622043        0.081365       -0.513947       -0.432583
   3 H        0.116784       -0.000634       -0.066475       -0.067109
   4 H        0.116784       -0.000634       -0.066475       -0.067109
   5 H        0.013214        0.012053       -0.012128       -0.000075
   6 H        0.013214        0.012053       -0.012128       -0.000075
   7 O       -0.160948        1.360890       -0.458951        0.901939
   8 H        0.145039        0.118504       -0.020911        0.097594
  --------------------------------------------------------------------
  Sum:       -1.000000        1.664962       -1.664962        0.000000
  
  Multipole moment analysis of the density matrix
    Molecular charge:                      -1.000000
    Number of electrons:                   26.000000
      Center of electronic charge [Ang]: [ -0.000000,   0.000000,   0.056975]
    Total nuclear charge:                  25.000000
      Center of nuclear charge [Ang]:    [  0.000000,   0.000000,  -0.000000]
    Dipole moment [D]:                     7.115237
      Cartesian components [D]:          [  0.000000,  -0.000000,  -7.115237]
    RMS size of the density [Ang]:         1.783967
      Cartesian components [Ang]:        [  0.835822,   0.554983,   1.475104]
  
  Exciton analysis of the difference density matrix
    <r_h> [Ang]:                  [ -0.000000,   0.000000,  -1.421717]
    <r_e> [Ang]:                  [ -0.000000,   0.000000,   0.148575]
    |<r_e - r_h>| [Ang]:            1.570292
    Hole size [Ang]:                1.695689
      Cartesian components [Ang]: [  0.890734,   0.736286,   1.240902]
    Electron size [Ang]:            2.547622
      Cartesian components [Ang]: [  1.476256,   1.390489,   1.541942]

  Transition density matrix analysis:
  -----------------------------------
  
  CT numbers (Mulliken)
    omega =     0.8478
    <Phe> =    -0.0005
  
  Exciton analysis of the transition density matrix
    Trans. dipole moment [D]:             0.147260
      Cartesian components [D]:         [  0.000000,   0.147260,   0.000000]
    <r_h> [Ang]:                        [ -0.000000,   0.000000,  -1.695594]
    <r_e> [Ang]:                        [ -0.000000,   0.000000,   1.019097]
    |<r_e - r_h>| [Ang]:                  2.714691
    Hole size [Ang]:                      1.165206
      Cartesian components [Ang]:       [  0.816330,   0.465808,   0.688717]
    Electron size [Ang]:                  2.629143
      Cartesian components [Ang]:       [  1.766355,   1.676306,   0.991152]
    RMS electron-hole separation [Ang]:   3.952247
      Cartesian components [Ang]:       [  1.941686,   1.739456,   2.970590]
    Covariance(r_h, r_e) [Ang^2]:         0.009695
    Correlation coefficient:              0.003165
    Center-of-mass size [Ang]:            1.439573
      Cartesian components [Ang]:       [  0.975021,   0.870093,   0.603857]

  Decomposition into state-averaged NTOs
    H- 2 -> L+ 2:  0.6234 ( 77.7%)
    H- 2 -> L+ 6:  0.1842 (  6.8%)
                   omega =  84.8%
  ----------------------------------------------------------------------------


  Excited state 4 (singlet, B2)                                    [converged]
  ----------------------------------------------------------------------------
  Term symbol:  4 (1) B2                                    R^2 =  1.12158e-09

  Total energy:                                           -153.7963391080 a.u.
  Excitation energy:                                               4.691350 eV

  Osc. strength:                                                      0.001366
  Trans. dip. moment [a.u.]:           [  -0.000000,    0.109037,   -0.000000]
  <i|r^2|0> [a.u.]:                    [   0.000000,    0.000000,    0.000000]

  Dip. moment [a.u.]:                  [  -0.000000,    0.000000,   -2.034291]
  Total dipole [Debye]:                                               5.170654
  <r^2> [a.u.]:                        [  70.541852,   23.772179,  218.968754]
  Total <r^2> [a.u.]:                                               313.282784

  V1^2 = 0.8793, V2^2 = 0.1207

  Important amplitudes:
      occ i      occ j       vir a       vir b          v   
    ---------------------------------------------------------
     2 (B2) A              10 (A1) A                  0.4665
     2 (B2) A               9 (A1) A                 -0.4121
    ---------------------------------------------------------

  Density matrix analysis:
  ------------------------
  NOs
    Occupation of frontier NOs:
       0.9651   0.9934
    Number of electrons: 26.000000
    Number of unpaired electrons: n_u =  2.73908, n_u,nl =  2.11068
    NO participation ratio (PR_NO):  3.851262
  
  
  Mulliken Population Analysis
  Atom      Charge (e)              h+              e-           Del q
  --------------------------------------------------------------------
   1 C       -0.583191        0.041712       -0.435442       -0.393730
   2 C       -0.583191        0.041712       -0.435442       -0.393730
   3 H        0.181072        0.002148       -0.004970       -0.002821
   4 H        0.181072        0.002148       -0.004970       -0.002821
   5 H        0.048312        0.034861        0.000163        0.035024
   6 H        0.048312        0.034861        0.000163        0.035024
   7 O       -0.636876        1.336459       -0.910447        0.426012
   8 H        0.344489        0.146410        0.150634        0.297044
  --------------------------------------------------------------------
  Sum:       -1.000000        1.640311       -1.640311        0.000000
  
  Multipole moment analysis of the density matrix
    Molecular charge:                      -1.000000
    Number of electrons:                   26.000000
      Center of electronic charge [Ang]: [  0.000000,  -0.000000,   0.041404]
    Total nuclear charge:                  25.000000
      Center of nuclear charge [Ang]:    [  0.000000,   0.000000,  -0.000000]
    Dipole moment [D]:                     5.170652
      Cartesian components [D]:          [ -0.000000,   0.000000,  -5.170652]
    RMS size of the density [Ang]:         1.836422
      Cartesian components [Ang]:        [  0.871641,   0.505998,   1.535139]
  
  Exciton analysis of the difference density matrix
    <r_h> [Ang]:                  [ -0.000000,   0.000000,  -1.448316]
    <r_e> [Ang]:                  [  0.000000,   0.000000,  -0.101240]
    |<r_e - r_h>| [Ang]:            1.347076
    Hole size [Ang]:                1.742857
      Cartesian components [Ang]: [  0.812944,   0.849798,   1.286281]
    Electron size [Ang]:            3.122638
      Cartesian components [Ang]: [  1.742715,   1.144820,   2.324478]

  Transition density matrix analysis:
  -----------------------------------
  
  CT numbers (Mulliken)
    omega =     0.8623
    <Phe> =    -0.0031
  
  Exciton analysis of the transition density matrix
    Trans. dipole moment [D]:             0.138572
      Cartesian components [D]:         [ -0.000000,   0.138572,  -0.000000]
    <r_h> [Ang]:                        [  0.000000,  -0.000000,  -1.731567]
    <r_e> [Ang]:                        [  0.000000,   0.000000,   0.549074]
    |<r_e - r_h>| [Ang]:                  2.280641
    Hole size [Ang]:                      1.104930
      Cartesian components [Ang]:       [  0.475106,   0.817298,   0.571987]
    Electron size [Ang]:                  3.616141
      Cartesian components [Ang]:       [  2.116667,   1.364787,   2.594909]
    RMS electron-hole separation [Ang]:   4.407121
      Cartesian components [Ang]:       [  2.168835,   1.590804,   3.491161]
    Covariance(r_h, r_e) [Ang^2]:         0.037979
    Correlation coefficient:              0.009505
    Center-of-mass size [Ang]:            1.895607
      Cartesian components [Ang]:       [  1.084915,   0.795390,   1.335530]

  Decomposition into state-averaged NTOs
    H- 0 -> L+ 0:  0.4427 ( 39.2%)
    H- 0 -> L+ 3: -0.4003 ( 32.0%)
    H- 0 -> L+ 1: -0.2131 (  9.1%)
    H- 0 -> L+ 4:  0.1676 (  5.6%)
                   omega =  86.2%
  ----------------------------------------------------------------------------


  Excited state 5 (singlet, B2)                                    [converged]
  ----------------------------------------------------------------------------
  Term symbol:  5 (1) B2                                    R^2 =  4.94863e-09

  Total energy:                                           -153.7496295814 a.u.
  Excitation energy:                                               5.962381 eV

  Osc. strength:                                                      0.002848
  Trans. dip. moment [a.u.]:           [  -0.000000,    0.139630,   -0.000000]
  <i|r^2|0> [a.u.]:                    [   0.000000,   -0.000000,   -0.000000]

  Dip. moment [a.u.]:                  [   0.000000,    0.000000,   -1.675459]
  Total dipole [Debye]:                                               4.258594
  <r^2> [a.u.]:                        [  62.656299,   30.703839,  205.532884]
  Total <r^2> [a.u.]:                                               298.893022

  V1^2 = 0.8856, V2^2 = 0.1144

  Important amplitudes:
      occ i      occ j       vir a       vir b          v   
    ---------------------------------------------------------
     2 (B2) A              11 (A1) A                 -0.6112
     2 (B2) A              10 (A1) A                  0.2340
    ---------------------------------------------------------

  Density matrix analysis:
  ------------------------
  NOs
    Occupation of frontier NOs:
       0.9697   0.9901
    Number of electrons: 26.000000
    Number of unpaired electrons: n_u =  2.73954, n_u,nl =  2.11011
    NO participation ratio (PR_NO):  3.848433
  
  
  Mulliken Population Analysis
  Atom      Charge (e)              h+              e-           Del q
  --------------------------------------------------------------------
   1 C       -0.662973        0.045506       -0.519018       -0.473513
   2 C       -0.662973        0.045506       -0.519018       -0.473513
   3 H        0.219663        0.001081        0.034689        0.035770
   4 H        0.219663        0.001081        0.034689        0.035770
   5 H        0.025808        0.010281        0.002239        0.012520
   6 H        0.025808        0.010281        0.002239        0.012520
   7 O       -0.367117        1.340807       -0.645037        0.695770
   8 H        0.202121        0.126410        0.028266        0.154676
  --------------------------------------------------------------------
  Sum:       -1.000000        1.580954       -1.580954        0.000000
  
  Multipole moment analysis of the density matrix
    Molecular charge:                      -1.000000
    Number of electrons:                   26.000000
      Center of electronic charge [Ang]: [ -0.000000,  -0.000000,   0.034101]
    Total nuclear charge:                  25.000000
      Center of nuclear charge [Ang]:    [  0.000000,   0.000000,  -0.000000]
    Dipole moment [D]:                     4.258593
      Cartesian components [D]:          [  0.000000,   0.000000,  -4.258593]
    RMS size of the density [Ang]:         1.793882
      Cartesian components [Ang]:        [  0.821480,   0.575057,   1.487445]
  
  Exciton analysis of the difference density matrix
    <r_h> [Ang]:                  [ -0.000000,   0.000000,  -1.529855]
    <r_e> [Ang]:                  [ -0.000000,   0.000000,  -0.252311]
    |<r_e - r_h>| [Ang]:            1.277544
    Hole size [Ang]:                1.636905
      Cartesian components [Ang]: [  0.783645,   0.858979,   1.152177]
    Electron size [Ang]:            2.684599
      Cartesian components [Ang]: [  1.297209,   1.605047,   1.717017]

  Transition density matrix analysis:
  -----------------------------------
  
  CT numbers (Mulliken)
    omega =     0.8680
    <Phe> =    -0.0009
  
  Exciton analysis of the transition density matrix
    Trans. dipole moment [D]:             0.177453
      Cartesian components [D]:         [ -0.000000,   0.177453,  -0.000000]
    <r_h> [Ang]:                        [  0.000000,  -0.000000,  -1.714606]
    <r_e> [Ang]:                        [ -0.000000,  -0.000000,   0.354873]
    |<r_e - r_h>| [Ang]:                  2.069479
    Hole size [Ang]:                      1.124868
      Cartesian components [Ang]:       [  0.476443,   0.815999,   0.610309]
    Electron size [Ang]:                  2.981099
      Cartesian components [Ang]:       [  1.485304,   1.945755,   1.701430]
    RMS electron-hole separation [Ang]:   3.785461
      Cartesian components [Ang]:       [  1.559383,   2.102578,   2.734449]
    Covariance(r_h, r_e) [Ang^2]:         0.052653
    Correlation coefficient:              0.015702
    Center-of-mass size [Ang]:            1.601373
      Cartesian components [Ang]:       [  0.780156,   1.058631,   0.913812]

  Decomposition into state-averaged NTOs
    H- 0 -> L+ 4:  0.6046 ( 73.1%)
    H- 0 -> L+ 3:  0.2562 ( 13.1%)
                   omega =  86.8%
  ----------------------------------------------------------------------------


  Excited state 6 (singlet, B2)                                    [converged]
  ----------------------------------------------------------------------------
  Term symbol:  6 (1) B2                                    R^2 =  3.26998e-10

  Total energy:                                           -153.7390729059 a.u.
  Excitation energy:                                               6.249643 eV

  Osc. strength:                                                      0.066658
  Trans. dip. moment [a.u.]:           [  -0.000000,    0.659810,    0.000000]
  <i|r^2|0> [a.u.]:                    [  -0.000000,   -0.000000,   -0.000000]

  Dip. moment [a.u.]:                  [   0.000000,   -0.000000,   -0.889732]
  Total dipole [Debye]:                                               2.261473
  <r^2> [a.u.]:                        [  65.146336,   25.074474,  231.615901]
  Total <r^2> [a.u.]:                                               321.836710

  V1^2 = 0.9475, V2^2 = 0.0525

  Important amplitudes:
      occ i      occ j       vir a       vir b          v   
    ---------------------------------------------------------
     1 (B2) A               8 (A1) A                 -0.6625
     1 (B2) A              10 (A1) A                  0.1125
    ---------------------------------------------------------

  Density matrix analysis:
  ------------------------
  NOs
    Occupation of frontier NOs:
       0.9885   0.9888
    Number of electrons: 26.000000
    Number of unpaired electrons: n_u =  2.61695, n_u,nl =  2.06788
    NO participation ratio (PR_NO):  3.471877
  
  
  Mulliken Population Analysis
  Atom      Charge (e)              h+              e-           Del q
  --------------------------------------------------------------------
   1 C       -0.470398        0.518397       -0.799334       -0.280937
   2 C       -0.470398        0.518397       -0.799334       -0.280937
   3 H        0.231937        0.049109       -0.001065        0.048044
   4 H        0.231937        0.049109       -0.001065        0.048044
   5 H        0.256261        0.125485        0.117487        0.242972
   6 H        0.256261        0.125485        0.117487        0.242972
   7 O       -1.099734        0.046982       -0.083829       -0.036847
   8 H        0.064134        0.021136       -0.004447        0.016689
  --------------------------------------------------------------------
  Sum:       -1.000000        1.454099       -1.454099        0.000000
  
  Multipole moment analysis of the density matrix
    Molecular charge:                      -1.000000
    Number of electrons:                   26.000000
      Center of electronic charge [Ang]: [ -0.000000,   0.000000,   0.018109]
    Total nuclear charge:                  25.000000
      Center of nuclear charge [Ang]:    [  0.000000,   0.000000,  -0.000000]
    Dipole moment [D]:                     2.261472
      Cartesian components [D]:          [  0.000000,  -0.000000,  -2.261472]
    RMS size of the density [Ang]:         1.861709
      Cartesian components [Ang]:        [  0.837644,   0.519673,   1.579320]
  
  Exciton analysis of the difference density matrix
    <r_h> [Ang]:                  [  0.000000,   0.000000,   0.943156]
    <r_e> [Ang]:                  [ -0.000000,   0.000000,   2.046210]
    |<r_e - r_h>| [Ang]:            1.103053
    Hole size [Ang]:                1.759082
      Cartesian components [Ang]: [  1.026182,   0.902244,   1.107825]
    Electron size [Ang]:            2.581198
      Cartesian components [Ang]: [  1.641480,   1.314782,   1.496487]

  Transition density matrix analysis:
  -----------------------------------
  
  CT numbers (Mulliken)
    omega =     0.9161
    <Phe> =    -0.0080
  
  Exciton analysis of the transition density matrix
    Trans. dipole moment [D]:             0.838535
      Cartesian components [D]:         [ -0.000000,   0.838535,   0.000000]
    <r_h> [Ang]:                        [ -0.000000,  -0.000000,   1.000393]
    <r_e> [Ang]:                        [ -0.000000,  -0.000000,   2.667002]
    |<r_e - r_h>| [Ang]:                  1.666608
    Hole size [Ang]:                      1.322424
      Cartesian components [Ang]:       [  0.764567,   0.890668,   0.609060]
    Electron size [Ang]:                  2.693190
      Cartesian components [Ang]:       [  1.872293,   1.526076,   1.191169]
    RMS electron-hole separation [Ang]:   3.418756
      Cartesian components [Ang]:       [  2.016200,   1.759722,   2.127490]
    Covariance(r_h, r_e) [Ang^2]:         0.045883
    Correlation coefficient:              0.012883
    Center-of-mass size [Ang]:            1.507800
      Cartesian components [Ang]:       [  1.014276,   0.887098,   0.676581]

  Decomposition into state-averaged NTOs
    H- 1 -> L+ 1:  0.6708 ( 90.0%)
                   omega =  91.6%
  ----------------------------------------------------------------------------


  Excited state 7 (singlet, B2)                                    [converged]
  ----------------------------------------------------------------------------
  Term symbol:  7 (1) B2                                    R^2 =  2.07058e-08

  Total energy:                                           -153.7220740953 a.u.
  Excitation energy:                                               6.712204 eV

  Osc. strength:                                                      0.006632
  Trans. dip. moment [a.u.]:           [  -0.000000,    0.200824,   -0.000000]
  <i|r^2|0> [a.u.]:                    [   0.000000,    0.000000,    0.000000]

  Dip. moment [a.u.]:                  [   0.000000,    0.000000,   -2.781129]
  Total dipole [Debye]:                                               7.068927
  <r^2> [a.u.]:                        [  66.215026,   30.041658,  202.980111]
  Total <r^2> [a.u.]:                                               299.236796

  V1^2 = 0.8663, V2^2 = 0.1337

  Important amplitudes:
      occ i      occ j       vir a       vir b          v   
    ---------------------------------------------------------
     4 (B1) A               2 (A2) A                 -0.6288
     4 (B1) A               1 (A2) A                 -0.1815
    ---------------------------------------------------------

  Density matrix analysis:
  ------------------------
  NOs
    Occupation of frontier NOs:
       0.9698   0.9852
    Number of electrons: 26.000000
    Number of unpaired electrons: n_u =  2.74884, n_u,nl =  2.10942
    NO participation ratio (PR_NO):  3.894107
  
  
  Mulliken Population Analysis
  Atom      Charge (e)              h+              e-           Del q
  --------------------------------------------------------------------
   1 C       -0.595887        0.102344       -0.508770       -0.406426
   2 C       -0.595887        0.102344       -0.508770       -0.406426
   3 H        0.106604       -0.003450       -0.073839       -0.077289
   4 H        0.106604       -0.003450       -0.073839       -0.077289
   5 H        0.001426        0.009532       -0.021395       -0.011863
   6 H        0.001426        0.009532       -0.021395       -0.011863
   7 O       -0.166683        1.344362       -0.448157        0.896204
   8 H        0.142398        0.115509       -0.020556        0.094953
  --------------------------------------------------------------------
  Sum:       -1.000000        1.676722       -1.676722        0.000000
  
  Multipole moment analysis of the density matrix
    Molecular charge:                      -1.000000
    Number of electrons:                   26.000000
      Center of electronic charge [Ang]: [ -0.000000,  -0.000000,   0.056604]
    Total nuclear charge:                  25.000000
      Center of nuclear charge [Ang]:    [  0.000000,   0.000000,  -0.000000]
    Dipole moment [D]:                     7.068925
      Cartesian components [D]:          [  0.000000,   0.000000,  -7.068925]
    RMS size of the density [Ang]:         1.794345
      Cartesian components [Ang]:        [  0.844487,   0.568822,   1.477484]
  
  Exciton analysis of the difference density matrix
    <r_h> [Ang]:                  [ -0.000000,   0.000000,  -1.376620]
    <r_e> [Ang]:                  [ -0.000000,  -0.000000,   0.176907]
    |<r_e - r_h>| [Ang]:            1.553528
    Hole size [Ang]:                1.701081
      Cartesian components [Ang]: [  0.880668,   0.714923,   1.267669]
    Electron size [Ang]:            2.633845
      Cartesian components [Ang]: [  1.541925,   1.460772,   1.557483]

  Transition density matrix analysis:
  -----------------------------------
  
  CT numbers (Mulliken)
    omega =     0.8424
    <Phe> =    -0.0009
  
  Exciton analysis of the transition density matrix
    Trans. dipole moment [D]:             0.255222
      Cartesian components [D]:         [ -0.000000,   0.255222,  -0.000000]
    <r_h> [Ang]:                        [ -0.000000,   0.000000,  -1.669735]
    <r_e> [Ang]:                        [ -0.000000,  -0.000000,   1.028589]
    |<r_e - r_h>| [Ang]:                  2.698324
    Hole size [Ang]:                      1.198251
      Cartesian components [Ang]:       [  0.818969,   0.464260,   0.741322]
    Electron size [Ang]:                  2.787815
      Cartesian components [Ang]:       [  1.860126,   1.797196,   1.040158]
    RMS electron-hole separation [Ang]:   4.057617
      Cartesian components [Ang]:       [  2.028365,   1.855926,   2.984213]
    Covariance(r_h, r_e) [Ang^2]:         0.012206
    Correlation coefficient:              0.003654
    Center-of-mass size [Ang]:            1.519221
      Cartesian components [Ang]:       [  1.018245,   0.928230,   0.639999]

  Decomposition into state-averaged NTOs
    H- 2 -> L+ 6:  0.6234 ( 77.7%)
    H- 2 -> L+ 2: -0.1730 (  6.0%)
                   omega =  84.2%
  ----------------------------------------------------------------------------


  Excited state 8 (singlet, B2)                                    [converged]
  ----------------------------------------------------------------------------
  Term symbol:  8 (1) B2                                    R^2 =  3.18351e-09

  Total energy:                                           -153.6839296967 a.u.
  Excitation energy:                                               7.750166 eV

  Osc. strength:                                                      0.025750
  Trans. dip. moment [a.u.]:           [  -0.000000,    0.368262,   -0.000000]
  <i|r^2|0> [a.u.]:                    [   0.000000,    0.000000,    0.000000]

  Dip. moment [a.u.]:                  [   0.000000,   -0.000000,    2.724161]
  Total dipole [Debye]:                                               6.924128
  <r^2> [a.u.]:                        [  75.681501,   24.325874,  214.151521]
  Total <r^2> [a.u.]:                                               314.158896

  V1^2 = 0.9476, V2^2 = 0.0524

  Important amplitudes:
      occ i      occ j       vir a       vir b          v   
    ---------------------------------------------------------
     1 (B2) A               9 (A1) A                  0.6673
     1 (B2) A               8 (A1) A                 -0.0836
    ---------------------------------------------------------

  Density matrix analysis:
  ------------------------
  NOs
    Occupation of frontier NOs:
       0.9839   0.9925
    Number of electrons: 26.000000
    Number of unpaired electrons: n_u =  2.60586, n_u,nl =  2.06515
    NO participation ratio (PR_NO):  3.446708
  
  
  Mulliken Population Analysis
  Atom      Charge (e)              h+              e-           Del q
  --------------------------------------------------------------------
   1 C       -0.481325        0.521858       -0.813722       -0.291865
   2 C       -0.481325        0.521858       -0.813722       -0.291865
   3 H        0.332816        0.087480        0.061443        0.148923
   4 H        0.332816        0.087480        0.061443        0.148923
   5 H        0.097735        0.095999       -0.011552        0.084447
   6 H        0.097735        0.095999       -0.011552        0.084447
   7 O       -0.973648        0.047035        0.042204        0.089239
   8 H        0.075196        0.019044        0.008707        0.027751
  --------------------------------------------------------------------
  Sum:       -1.000000        1.476752       -1.476752        0.000000
  
  Multipole moment analysis of the density matrix
    Molecular charge:                      -1.000000
    Number of electrons:                   26.000000
      Center of electronic charge [Ang]: [ -0.000000,   0.000000,  -0.055445]
    Total nuclear charge:                  25.000000
      Center of nuclear charge [Ang]:    [  0.000000,   0.000000,  -0.000000]
    Dipole moment [D]:                     6.924125
      Cartesian components [D]:          [  0.000000,  -0.000000,   6.924125]
    RMS size of the density [Ang]:         1.838619
      Cartesian components [Ang]:        [  0.902837,   0.511857,   1.517698]
  
  Exciton analysis of the difference density matrix
    <r_h> [Ang]:                  [ -0.000000,   0.000000,   0.900008]
    <r_e> [Ang]:                  [ -0.000000,   0.000000,   0.691144]
    |<r_e - r_h>| [Ang]:            0.208864
    Hole size [Ang]:                1.739600
      Cartesian components [Ang]: [  1.033639,   0.888512,   1.080899]
    Electron size [Ang]:            2.943292
      Cartesian components [Ang]: [  2.163878,   1.244218,   1.559655]

  Transition density matrix analysis:
  -----------------------------------
  
  CT numbers (Mulliken)
    omega =     0.9166
    <Phe> =    -0.0025
  
  Exciton analysis of the transition density matrix
    Trans. dipole moment [D]:             0.468014
      Cartesian components [D]:         [ -0.000000,   0.468014,  -0.000000]
    <r_h> [Ang]:                        [  0.000000,  -0.000000,   1.024682]
    <r_e> [Ang]:                        [ -0.000000,  -0.000000,   0.678640]
    |<r_e - r_h>| [Ang]:                  0.346041
    Hole size [Ang]:                      1.299131
      Cartesian components [Ang]:       [  0.766683,   0.890472,   0.554074]
    Electron size [Ang]:                  3.406769
      Cartesian components [Ang]:       [  2.548764,   1.455782,   1.729328]
    RMS electron-hole separation [Ang]:   3.656062
      Cartesian components [Ang]:       [  2.654687,   1.703259,   1.848873]
    Covariance(r_h, r_e) [Ang^2]:         0.023388
    Correlation coefficient:              0.005284
    Center-of-mass size [Ang]:            1.826239
      Cartesian components [Ang]:       [  1.334226,   0.854897,   0.907822]

  Decomposition into state-averaged NTOs
    H- 1 -> L+ 0:  0.6724 ( 90.4%)
                   omega =  91.7%
  ----------------------------------------------------------------------------


  Excited state 9 (singlet, B2)                                    [converged]
  ----------------------------------------------------------------------------
  Term symbol:  9 (1) B2                                    R^2 =  5.43353e-07

  Total energy:                                           -153.6514174441 a.u.
  Excitation energy:                                               8.634869 eV

  Osc. strength:                                                      0.000034
  Trans. dip. moment [a.u.]:           [  -0.000000,    0.012636,   -0.000000]
  <i|r^2|0> [a.u.]:                    [   0.000000,   -0.000000,    0.000000]

  Dip. moment [a.u.]:                  [   0.000000,   -0.000000,    1.241147]
  Total dipole [Debye]:                                               3.154683
  <r^2> [a.u.]:                        [  59.251059,   26.442695,  207.444198]
  Total <r^2> [a.u.]:                                               293.137952

  V1^2 = 0.9363, V2^2 = 0.0637

  Important amplitudes:
      occ i      occ j       vir a       vir b          v   
    ---------------------------------------------------------
     3 (B1) A               1 (A2) A                  0.5293
     3 (B1) A               2 (A2) A                 -0.3388
    ---------------------------------------------------------

  Density matrix analysis:
  ------------------------
  NOs
    Occupation of frontier NOs:
       0.8463   1.1656
    Number of electrons: 26.000000
    Number of unpaired electrons: n_u =  2.73049, n_u,nl =  2.15405
    NO participation ratio (PR_NO):  5.025313
  
  
  Mulliken Population Analysis
  Atom      Charge (e)              h+              e-           Del q
  --------------------------------------------------------------------
   1 C       -0.466559        0.216480       -0.493580       -0.277099
   2 C       -0.466559        0.216480       -0.493580       -0.277099
   3 H        0.278877        0.112104       -0.017120        0.094984
   4 H        0.278877        0.112104       -0.017120        0.094984
   5 H        0.120157        0.116443       -0.009574        0.106869
   6 H        0.120157        0.116443       -0.009574        0.106869
   7 O       -0.953899        0.201003       -0.092014        0.108988
   8 H        0.088950        0.044396       -0.002891        0.041505
  --------------------------------------------------------------------
  Sum:       -1.000000        1.135453       -1.135453       -0.000000
  
  Multipole moment analysis of the density matrix
    Molecular charge:                      -1.000000
    Number of electrons:                   26.000000
      Center of electronic charge [Ang]: [ -0.000000,   0.000000,  -0.025261]
    Total nuclear charge:                  25.000000
      Center of nuclear charge [Ang]:    [  0.000000,   0.000000,  -0.000000]
    Dipole moment [D]:                     3.154682
      Cartesian components [D]:          [  0.000000,  -0.000000,   3.154682]
    RMS size of the density [Ang]:         1.776669
      Cartesian components [Ang]:        [  0.798845,   0.533663,   1.494525]
  
  Exciton analysis of the difference density matrix
    <r_h> [Ang]:                  [ -0.000000,   0.000000,   0.392097]
    <r_e> [Ang]:                  [ -0.000000,   0.000000,   0.811610]
    |<r_e - r_h>| [Ang]:            0.419513
    Hole size [Ang]:                1.925820
      Cartesian components [Ang]: [  1.069312,   0.568435,   1.497409]
    Electron size [Ang]:            2.217752
      Cartesian components [Ang]: [  1.338493,   1.353452,   1.137994]

  Transition density matrix analysis:
  -----------------------------------
  
  CT numbers (Mulliken)
    omega =     0.9089
    <Phe> =    -0.0075
  
  Exciton analysis of the transition density matrix
    Trans. dipole moment [D]:             0.016058
      Cartesian components [D]:         [ -0.000000,   0.016058,  -0.000000]
    <r_h> [Ang]:                        [  0.000000,   0.000000,   0.548684]
    <r_e> [Ang]:                        [ -0.000000,   0.000000,   1.013225]
    |<r_e - r_h>| [Ang]:                  0.464540
    Hole size [Ang]:                      1.764115
      Cartesian components [Ang]:       [  1.052202,   0.440405,   1.345740]
    Electron size [Ang]:                  2.180546
      Cartesian components [Ang]:       [  1.389506,   1.416683,   0.903915]
    RMS electron-hole separation [Ang]:   2.788457
      Cartesian components [Ang]:       [  1.683025,   1.486604,   1.653156]
    Covariance(r_h, r_e) [Ang^2]:         0.153595
    Correlation coefficient:              0.039929
    Center-of-mass size [Ang]:            1.429517
      Cartesian components [Ang]:       [  0.900436,   0.740254,   0.827501]

  Decomposition into state-averaged NTOs
    H- 3 -> L+ 2: -0.6198 ( 76.8%)
    H- 4 -> L+ 5: -0.2228 (  9.9%)
    H- 0 -> L+ 7:  0.1237 (  3.1%)
                   omega =  90.9%
  ----------------------------------------------------------------------------


  Excited state 10 (singlet, B2)                                    [converged]
  ----------------------------------------------------------------------------
  Term symbol:  10 (1) B2                                   R^2 =  1.46894e-06

  Total energy:                                           -153.6496823212 a.u.
  Excitation energy:                                               8.682084 eV

  Osc. strength:                                                      0.000002
  Trans. dip. moment [a.u.]:           [  -0.000000,    0.003323,   -0.000000]
  <i|r^2|0> [a.u.]:                    [   0.000000,   -0.000000,    0.000000]

  Dip. moment [a.u.]:                  [   0.000000,   -0.000000,   -2.373294]
  Total dipole [Debye]:                                               6.032313
  <r^2> [a.u.]:                        [  61.703220,   37.188808,  204.705790]
  Total <r^2> [a.u.]:                                               303.597818

  V1^2 = 0.8880, V2^2 = 0.1120

  Important amplitudes:
      occ i      occ j       vir a       vir b          v   
    ---------------------------------------------------------
     7 (A1) A               3 (B2) A                 -0.6169
     3 (B1) A               1 (A2) A                  0.1929
    ---------------------------------------------------------

  Density matrix analysis:
  ------------------------
  NOs
    Occupation of frontier NOs:
       0.8775   1.0970
    Number of electrons: 26.000000
    Number of unpaired electrons: n_u =  2.81850, n_u,nl =  2.21476
    NO participation ratio (PR_NO):  4.787883
  
  
  Mulliken Population Analysis
  Atom      Charge (e)              h+              e-           Del q
  --------------------------------------------------------------------
   1 C       -0.627701        0.087380       -0.525620       -0.438240
   2 C       -0.627701        0.087380       -0.525620       -0.438240
   3 H        0.153381        0.005404       -0.035916       -0.030512
   4 H        0.153381        0.005404       -0.035916       -0.030512
   5 H        0.043750        0.035532       -0.005071        0.030462
   6 H        0.043750        0.035532       -0.005071        0.030462
   7 O       -0.425333        1.032615       -0.395061        0.637554
   8 H        0.286473        0.253000       -0.013972        0.239028
  --------------------------------------------------------------------
  Sum:       -1.000000        1.542246       -1.542246       -0.000000
  
  Multipole moment analysis of the density matrix
    Molecular charge:                      -1.000000
    Number of electrons:                   26.000000
      Center of electronic charge [Ang]: [ -0.000000,   0.000000,   0.048304]
    Total nuclear charge:                  25.000000
      Center of nuclear charge [Ang]:    [  0.000000,   0.000000,  -0.000000]
    Dipole moment [D]:                     6.032311
      Cartesian components [D]:          [  0.000000,  -0.000000,  -6.032311]
    RMS size of the density [Ang]:         1.807627
      Cartesian components [Ang]:        [  0.815208,   0.632879,   1.484054]
  
  Exciton analysis of the difference density matrix
    <r_h> [Ang]:                  [ -0.000000,   0.000000,  -1.247119]
    <r_e> [Ang]:                  [ -0.000000,   0.000000,   0.301931]
    |<r_e - r_h>| [Ang]:            1.549051
    Hole size [Ang]:                1.841666
      Cartesian components [Ang]: [  0.821038,   0.710185,   1.487705]
    Electron size [Ang]:            2.831510
      Cartesian components [Ang]: [  1.263536,   1.888470,   1.689558]

  Transition density matrix analysis:
  -----------------------------------
  
  CT numbers (Mulliken)
    omega =     0.8673
    <Phe> =    -0.0030
  
  Exciton analysis of the transition density matrix
    Trans. dipole moment [D]:             0.004222
      Cartesian components [D]:         [ -0.000000,   0.004222,  -0.000000]
    <r_h> [Ang]:                        [ -0.000000,   0.000000,  -1.340494]
    <r_e> [Ang]:                        [ -0.000000,   0.000000,   1.154717]
    |<r_e - r_h>| [Ang]:                  2.495211
    Hole size [Ang]:                      1.510256
      Cartesian components [Ang]:       [  0.592088,   0.408476,   1.327950]
    Electron size [Ang]:                  2.970515
      Cartesian components [Ang]:       [  1.441894,   2.279658,   1.244209]
    RMS electron-hole separation [Ang]:   4.185796
      Cartesian components [Ang]:       [  1.597557,   2.315913,   3.099233]
    Covariance(r_h, r_e) [Ang^2]:        -0.094991
    Correlation coefficient:             -0.021174
    Center-of-mass size [Ang]:            1.651881
      Cartesian components [Ang]:       [  0.759451,   1.158009,   0.900534]

  Decomposition into state-averaged NTOs
    H- 4 -> L+ 5:  0.6151 ( 75.7%)
    H- 3 -> L+ 2: -0.2305 ( 10.6%)
                   omega =  86.7%
  ----------------------------------------------------------------------------


--------------------------------------------------------------------------------
  Time of ADC calculation:  CPU 241.92 s  wall 63.99 s
================================================================================
 
 --------------------------------------------------------------
             Orbital Energies (a.u.) and Symmetries
 --------------------------------------------------------------
 
 Alpha MOs, Restricted
 -- Occupied --                  
-20.213 -11.049 -11.047  -0.930  -0.854  -0.598  -0.473  -0.384
  1 A1    2 A1    1 B1    3 A1    4 A1    2 B1    5 A1    6 A1                 
 -0.328  -0.271  -0.194  -0.129  -0.128
  3 B1    7 A1    1 B2    4 B1    2 B2                                         
 -- Virtual --                   
  0.211   0.214   0.259   0.262   0.278   0.283   0.306   0.363
  5 B1    8 A1    1 A2    9 A1    6 B1    3 B2   10 A1   11 A1                 
  0.394   0.403   0.446   0.463   0.479   0.523   0.528   0.577
  7 B1    2 A2    4 B2    8 B1   12 A1   13 A1    9 B1   14 A1                 
  0.627   0.643   0.667   0.853   0.965   1.005   1.052   1.077
 10 B1   15 A1   11 B1   16 A1   17 A1    5 B2   18 A1   19 A1                 
  1.083   1.100   1.173   1.204   1.204   1.209   1.291   1.297
  3 A2   12 B1   13 B1    6 B2   14 B1   20 A1    4 A2   21 A1                 
  1.330   1.333   1.370   1.467   1.483   1.494   1.558   1.642
 22 A1   15 B1    7 B2    8 B2    5 A2   16 B1   17 B1   23 A1                 
  1.691   1.717   1.853   1.926   1.970   2.035   2.123   2.123
 18 B1    9 B2   24 A1   19 B1   25 A1    6 A2   26 A1   10 B2                 
  2.124   2.185   2.212   2.290   2.357   2.393   2.436   2.486
 20 B1   27 A1   11 B2   28 A1    7 A2   12 B2   21 B1   22 B1                 
  2.554   2.604   2.734   2.753   2.843   3.006   3.032   3.085
 29 A1    8 A2   23 B1   30 A1   24 B1   31 A1   32 A1   33 A1                 
  3.457   3.562   3.921   3.945   3.971   4.084   4.538
 25 B1   26 B1   13 B2    9 A2   34 A1   27 B1   35 A1                         
 
 Beta MOs, Restricted
 -- Occupied --                  
-20.213 -11.049 -11.047  -0.930  -0.854  -0.598  -0.473  -0.384
  1 A1    2 A1    1 B1    3 A1    4 A1    2 B1    5 A1    6 A1                 
 -0.328  -0.271  -0.194  -0.129  -0.128
  3 B1    7 A1    1 B2    4 B1    2 B2                                         
 -- Virtual --                   
  0.211   0.214   0.259   0.262   0.278   0.283   0.306   0.363
  5 B1    8 A1    1 A2    9 A1    6 B1    3 B2   10 A1   11 A1                 
  0.394   0.403   0.446   0.463   0.479   0.523   0.528   0.577
  7 B1    2 A2    4 B2    8 B1   12 A1   13 A1    9 B1   14 A1                 
  0.627   0.643   0.667   0.853   0.965   1.005   1.052   1.077
 10 B1   15 A1   11 B1   16 A1   17 A1    5 B2   18 A1   19 A1                 
  1.083   1.100   1.173   1.204   1.204   1.209   1.291   1.297
  3 A2   12 B1   13 B1    6 B2   14 B1   20 A1    4 A2   21 A1                 
  1.330   1.333   1.370   1.467   1.483   1.494   1.558   1.642
 22 A1   15 B1    7 B2    8 B2    5 A2   16 B1   17 B1   23 A1                 
  1.691   1.717   1.853   1.926   1.970   2.035   2.123   2.123
 18 B1    9 B2   24 A1   19 B1   25 A1    6 A2   26 A1   10 B2                 
  2.124   2.185   2.212   2.290   2.357   2.393   2.436   2.486
 20 B1   27 A1   11 B2   28 A1    7 A2   12 B2   21 B1   22 B1                 
  2.554   2.604   2.734   2.753   2.843   3.006   3.032   3.085
 29 A1    8 A2   23 B1   30 A1   24 B1   31 A1   32 A1   33 A1                 
  3.457   3.562   3.921   3.945   3.971   4.084   4.538
 25 B1   26 B1   13 B2    9 A2   34 A1   27 B1   35 A1                         
 --------------------------------------------------------------
 
          Ground-State Mulliken Net Atomic Charges

     Atom                 Charge (a.u.)
  ----------------------------------------
      1 C                    -0.185168
      2 C                    -0.185168
      3 H                     0.176191
      4 H                     0.176191
      5 H                     0.007614
      6 H                     0.007614
      7 O                    -1.061231
      8 H                     0.063956
  ----------------------------------------
  Sum of atomic charges =    -1.000000

 -----------------------------------------------------------------
                    Cartesian Multipole Moments
 -----------------------------------------------------------------
    Charge (ESU x 10^10)
                -4.8032
    Dipole Moment (Debye)
         X      -0.0000      Y       0.0000      Z       5.2793
       Tot       5.2793
    Quadrupole Moments (Debye-Ang)
        XX     -23.6307     XY       0.0000     YY     -26.4489
        XZ      -0.0000     YZ      -0.0000     ZZ     -32.8306
    Octopole Moments (Debye-Ang^2)
       XXX      -0.0000    XXY      -0.0000    XYY      -0.0000
       YYY      -0.0000    XXZ       0.9806    XYZ       0.0000
       YYZ      -0.0751    XZZ      -0.0000    YZZ      -0.0000
       ZZZ       6.2383
    Hexadecapole Moments (Debye-Ang^3)
      XXXX     -87.3764   XXXY      -0.0000   XXYY     -21.4825
      XYYY       0.0000   YYYY     -38.7820   XXXZ      -0.0000
      XXYZ      -0.0000   XYYZ      -0.0000   YYYZ      -0.0000
      XXZZ     -70.2836   XYZZ       0.0000   YYZZ     -64.9811
      XZZZ      -0.0000   YZZZ      -0.0000   ZZZZ    -291.7623
 -----------------------------------------------------------------
 Total job time:  173.15s(wall), 289.59s(cpu) 
 Fri Mar  4 19:00:09 2022

        *************************************************************
        *                                                           *
        *  Thank you very much for using Q-Chem.  Have a nice day.  *
        *                                                           *
        *************************************************************


