/src/tsommerfeld/qchem/exe/qcprog.exe .input1.69697.15957.qcin.1 /src/jdavis/qchem.scratch/qchem15957/

                  Welcome to Q-Chem
     A Quantum Leap Into The Future Of Chemistry


 Q-Chem 5.4 (devel), Q-Chem, Inc., Pleasanton, CA (2021)

 E. Epifanovsky,  A. T. B. Gilbert,  Xintian Feng,  Joonho Lee,  Yuezhi Mao,  
 N. Mardirossian,  P. Pokhilko,  A. White,  M. Wormit,  M. P. Coons,  
 A. L. Dempwolff,  Zhengting Gan,  D. Hait,  P. R. Horn,  L. D. Jacobson,  
 I. Kaliman,  J. Kussmann,  A. W. Lange,  Ka Un Lao,  D. S. Levine,  Jie Liu,  
 S. C. McKenzie,  A. F. Morrison,  K. Nanda,  F. Plasser,  D. R. Rehn,  
 M. L. Vidal,  Zhi-Qiang You,  Ying Zhu,  B. Alam,  B. Albrecht,  
 A. Aldossary,  E. Alguire,  J. H. Andersen,  D. Barton,  K. Begam,  A. Behn,  
 Y. A. Bernard,  E. J. Berquist,  H. Burton,  A. Carreras,  K. Carter-Fenk,  
 R. Chakraborty,  A. D. Chien,  K. D. Closser,  V. Cofer-Shabica,  
 S. Dasgupta,  Jia Deng,  M. de Wergifosse,  M. Diedenhofen,  Hainam Do,  
 S. Ehlert,  Po-Tung Fang,  S. Fatehi,  Qingguo Feng,  T. Friedhoff,  
 J. Gayvert,  Qinghui Ge,  G. Gidofalvi,  M. Goldey,  J. Gomes,  
 C. Gonzalez-Espinoza,  S. Gulania,  A. Gunina,  M. W. D. Hanson-Heine,  
 P. H. P. Harbach,  A. W. Hauser,  M. F. Herbst,  M. Hernandez Vera,  
 M. Hodecker,  Z. C. Holden,  S. Houck,  Xunkun Huang,  Kerwin Hui,  
 B. C. Huynh,  M. Ivanov,  Hyunjun Ji,  Hanjie Jiang,  B. Kaduk,  S. Kaehler,  
 K. Khistyaev,  Jaehoon Kim,  P. Klunzinger,  Z. Koczor-Benda,  
 Joong Hoon Koh,  D. Kosenkov,  L. Koulias,  T. Kowalczyk,  C. M. Krauter,  
 K. Kue,  A. Kunitsa,  T. Kus,  A. Landau,  K. V. Lawler,  D. Lefrancois,  
 S. Lehtola,  Rain Li,  Yi-Pei Li,  Jiashu Liang,  M. Liebenthal,  
 Hung-Hsuan Lin,  You-Sheng Lin,  Fenglai Liu,  Kuan-Yu Liu,  
 M. Loipersberger,  A. Luenser,  A. Manjanath,  P. Manohar,  E. Mansoor,  
 S. F. Manzer,  Shan-Ping Mao,  A. V. Marenich,  T. Markovich,  S. Mason,  
 S. A. Maurer,  P. F. McLaughlin,  M. F. S. J. Menger,  J.-M. Mewes,  
 S. A. Mewes,  P. Morgante,  J. W. Mullinax,  K. J. Oosterbaan,  G. Paran,  
 Alexander C. Paul,  Suranjan K. Paul,  F. Pavosevic,  Zheng Pei,  S. Prager,  
 E. I. Proynov,  E. Ramos,  B. Rana,  A. E. Rask,  A. Rettig,  R. M. Richard,  
 F. Rob,  E. Rossomme,  T. Scheele,  M. Scheurer,  M. Schneider,  
 N. Sergueev,  S. M. Sharada,  W. Skomorowski,  D. W. Small,  C. J. Stein,  
 Yu-Chuan Su,  E. J. Sundstrom,  Zhen Tao,  J. Thirman,  T. Tsuchimochi,  
 N. M. Tubman,  S. P. Veccham,  O. Vydrov,  J. Wenzel,  J. Witte,  A. Yamada,  
 Kun Yao,  S. Yeganeh,  S. R. Yost,  A. Zech,  Igor Ying Zhang,  Xing Zhang,  
 Yu Zhang,  D. Zuev,  A. Aspuru-Guzik,  A. T. Bell,  N. A. Besley,  
 K. B. Bravaya,  B. R. Brooks,  D. Casanova,  Jeng-Da Chai,  S. Coriani,  
 C. J. Cramer,  A. E. DePrince, III,  R. A. DiStasio Jr.,  A. Dreuw,  
 B. D. Dunietz,  T. R. Furlani,  W. A. Goddard III,  S. Grimme,  
 S. Hammes-Schiffer,  T. Head-Gordon,  W. J. Hehre,  Chao-Ping Hsu,  
 T.-C. Jagau,  Yousung Jung,  A. Klamt,  Jing Kong,  D. S. Lambrecht,  
 WanZhen Liang,  N. J. Mayhall,  C. W. McCurdy,  J. B. Neaton,  
 C. Ochsenfeld,  J. A. Parkhill,  R. Peverati,  V. A. Rassolov,  Yihan Shao,  
 L. V. Slipchenko,  T. Stauch,  R. P. Steele,  J. E. Subotnik,  
 A. J. W. Thom,  A. Tkatchenko,  D. G. Truhlar,  T. Van Voorhis,  
 T. A. Wesolowski,  K. B. Whaley,  H. L. Woodcock III,  P. M. Zimmerman,  
 S. Faraji,  P. M. W. Gill,  M. Head-Gordon,  J. M. Herbert,  A. I. Krylov

 Additional authors for Version 5.4.1: 
 S. Kotaru,  Shaozhi Li,  Xiangyuan Li,  F. Matz,  A. Molle,  Haisheng Ren,  
 Yingli Su,  Hung-Yi Tsai,  C. Utku,  Fang Wang

 Contributors to earlier versions of Q-Chem not listed above: 
 R. D. Adamson,  B. Austin,  R. Baer,  J. Baker,  G. J. O. Beran,  
 K. Brandhorst,  S. T. Brown,  E. F. C. Byrd,  A. K. Chakraborty,  
 G. K. L. Chan,  Chun-Min Chang,  Yunqing Chen,  C.-L. Cheng,  
 Siu Hung Chien,  D. M. Chipman,  D. L. Crittenden,  H. Dachsel,  
 R. J. Doerksen,  A. D. Dutoi,  R. G. Edgar,  J. Fosso-Tande,  
 L. Fusti-Molnar,  D. Ghosh,  A. Ghysels,  A. Golubeva-Zadorozhnaya,  
 J. Gonthier,  M. S. Gordon,  S. R. Gwaltney,  G. Hawkins,  J. E. Herr,  
 A. Heyden,  S. Hirata,  E. G. Hohenstein,  G. Kedziora,  F. J. Keil,  
 C. Kelley,  Jihan Kim,  R. A. King,  R. Z. Khaliullin,  P. P. Korambath,  
 W. Kurlancheek,  A. Laurent,  A. M. Lee,  M. S. Lee,  S. V. Levchenko,  
 Ching Yeh Lin,  D. Liotard,  E. Livshits,  R. C. Lochan,  I. Lotan,  
 L. A. Martinez-Martinez,  P. E. Maslen,  N. Nair,  D. P. O'Neill,  
 D. Neuhauser,  E. Neuscamman,  C. M. Oana,  R. Olivares-Amaya,  R. Olson,  
 T. M. Perrine,  B. Peters,  P. A. Pieniazek,  A. Prociuk,  Y. M. Rhee,  
 J. Ritchie,  M. A. Rohrdanz,  E. Rosta,  N. J. Russ,  H. F. Schaefer III,  
 M. W. Schmidt,  N. E. Schultz,  S. Sharma,  N. Shenvi,  C. D. Sherrill,  
 A. C. Simmonett,  A. Sodt,  T. Stein,  D. Stuck,  K. S. Thanthiriwatte,  
 V. Vanovschi,  L. Vogt,  Tao Wang,  A. Warshel,  M. A. Watson,  
 C. F. Williams,  Q. Wu,  X. Xu,  Jun Yang,  W. Zhang,  Yan Zhao

 Please cite Q-Chem as follows:
 Y. Shao et al., Mol. Phys. 113, 184-215 (2015)
 DOI: 10.1080/00268976.2014.952696

 Q-Chem 5.4.1 for Intel X86 EM64T Linux

 Parts of Q-Chem use Armadillo 9.900.5 (Nocturnal Misbehaviour).
 http://arma.sourceforge.net/

 Q-Chem begins on Fri Mar  4 19:38:31 2022  

 Host: node01
0

     Scratch files written to /src/jdavis/qchem.scratch/qchem15957//
 Processing $rem in /src/tsommerfeld/qchem/config/preferences:
 Processing $rem in /home/jdavis/.qchemrc:

 Checking the input file for inconsistencies... 	...done.

--------------------------------------------------------------
User input:
--------------------------------------------------------------
$molecule
-1 1
C        -0.6645000000    0.0000000000    1.1619088658
C         0.6645000000    0.0000000000    1.1619088658
H        -1.1590800000    0.0000000000    0.1995598658
H         1.1590800000    0.0000000000    0.1995598658
H        -1.1590800000    0.0000000000    2.1242568658
H         1.1590800000    0.0000000000    2.1242568658
O         0.0000000000    0.0000000000   -1.5841414040
H         0.0000000000    0.0000000000   -2.5471307683
$end
$rem
   METHOD adc(2)
   BASIS gen
   PURECART 11
   EE_STATES [0,0,0,10]
   scf_convergence 8
   ADC_DAVIDSON_MAXITER 120
   ADC_DAVIDSON_MAXSUBSPACE 200
   adc_nguess_singles 100
   THRESH 14
   S2THRESH 14
   adc_davidson_conv 5
   adc_davidson_thresh 14
   THREADS 10
   MEM_TOTAL 95000
   STATE_ANALYSIS TRUE
$end
$basis
C 1
S   9   1.00
      6.665000D+03           6.920000D-04
      1.000000D+03           5.329000D-03
      2.280000D+02           2.707700D-02
      6.471000D+01           1.017180D-01
      2.106000D+01           2.747400D-01
      7.495000D+00           4.485640D-01
      2.797000D+00           2.850740D-01
      5.215000D-01           1.520400D-02
      1.596000D-01          -3.191000D-03
S   9   1.00
      6.665000D+03          -1.460000D-04
      1.000000D+03          -1.154000D-03
      2.280000D+02          -5.725000D-03
      6.471000D+01          -2.331200D-02
      2.106000D+01          -6.395500D-02
      7.495000D+00          -1.499810D-01
      2.797000D+00          -1.272620D-01
      5.215000D-01           5.445290D-01
      1.596000D-01           5.804960D-01
S   1   1.00
      1.596000D-01           1.000000D+00
S   1   1.00
      0.0469000              1.0000000
P   4   1.00
      9.439000D+00           3.810900D-02
      2.002000D+00           2.094800D-01
      5.456000D-01           5.085570D-01
      1.517000D-01           4.688420D-01
P   1   1.00
      1.517000D-01           1.000000D+00
P   1   1.00
      0.0735515      1.0000000
D   1   1.00
      5.500000D-01           1.0000000
****
C 2
S   9   1.00
      6.665000D+03           6.920000D-04
      1.000000D+03           5.329000D-03
      2.280000D+02           2.707700D-02
      6.471000D+01           1.017180D-01
      2.106000D+01           2.747400D-01
      7.495000D+00           4.485640D-01
      2.797000D+00           2.850740D-01
      5.215000D-01           1.520400D-02
      1.596000D-01          -3.191000D-03
S   9   1.00
      6.665000D+03          -1.460000D-04
      1.000000D+03          -1.154000D-03
      2.280000D+02          -5.725000D-03
      6.471000D+01          -2.331200D-02
      2.106000D+01          -6.395500D-02
      7.495000D+00          -1.499810D-01
      2.797000D+00          -1.272620D-01
      5.215000D-01           5.445290D-01
      1.596000D-01           5.804960D-01
S   1   1.00
      1.596000D-01           1.000000D+00
S   1   1.00
      0.0469000              1.0000000
P   4   1.00
      9.439000D+00           3.810900D-02
      2.002000D+00           2.094800D-01
      5.456000D-01           5.085570D-01
      1.517000D-01           4.688420D-01
P   1   1.00
      1.517000D-01           1.000000D+00
P   1   1.00
      0.0735515      1.0000000
D   1   1.00
      5.500000D-01           1.0000000
****
H 3
cc-pVDZ
****
H 4
cc-pVDZ
****
H 5
cc-pVDZ
****
H 6
cc-pVDZ
****
O 7
aug-cc-pVDZ
****
H 8
cc-pVDZ
****
$end
--------------------------------------------------------------
 ----------------------------------------------------------------
             Standard Nuclear Orientation (Angstroms)
    I     Atom           X                Y                Z
 ----------------------------------------------------------------
    1      C      -0.6645000000    -0.0000000000     1.0270977517
    2      C       0.6645000000     0.0000000000     1.0270977517
    3      H      -1.1590800000    -0.0000000000     0.0647487517
    4      H       1.1590800000     0.0000000000     0.0647487517
    5      H      -1.1590800000    -0.0000000000     1.9894457517
    6      H       1.1590800000     0.0000000000     1.9894457517
    7      O       0.0000000000    -0.0000000000    -1.7189525181
    8      H       0.0000000000    -0.0000000000    -2.6819418824
 ----------------------------------------------------------------
 Molecular Point Group                 C2v   NOp =  4
 Largest Abelian Subgroup              C2v   NOp =  4
 Nuclear Repulsion Energy =          64.38561153 hartrees
 There are       13 alpha and       13 beta electrons
 Requested basis set is non-standard
 There are 40 shells and 84 basis functions
 Total memory of 95000 MB is distributed as follows: 
   MEM_STATIC is set to 192 MB
   QALLOC/CCMAN JOB total memory use is  94808 MB
 Warning: actual memory use might exceed 95000 MB

 Total QAlloc Memory Limit  95000 MB
 Mega-Array Size       188 MB
 MEM_STATIC part       192 MB

                       Distance Matrix (Angstroms)
             C (  1)   C (  2)   H (  3)   H (  4)   H (  5)   H (  6)
   C (  2)  1.329000
   H (  3)  1.082000  2.061931
   H (  4)  2.061931  1.082000  2.318160
   H (  5)  1.082000  2.061931  1.924697  3.013026
   H (  6)  2.061931  1.082000  3.013026  1.924697  2.318160
   O (  7)  2.825306  2.825306  2.127218  2.127218  3.885316  3.885316
   H (  8)  3.768094  3.768094  2.981237  2.981237  4.813037  4.813037
             O (  7)
   H (  8)  0.962989
 
 A cutoff of  1.0D-14 yielded    820 shell pairs
 There are      3652 function pairs (      4018 Cartesian)
 Smallest overlap matrix eigenvalue = 1.29E-03

 Scale SEOQF with 1.000000e-01/1.000000e-01/1.000000e-01

 Standard Electronic Orientation quadrupole field applied
 Nucleus-field energy     =    -0.0000000051 hartrees
 ================ Generating on-the-fly SAD Guess ================
Attempting to make child job directory: /src/jdavis/qchem.scratch/qchem15957//Frg1/
Attempting to make child job directory: /src/jdavis/qchem.scratch/qchem15957//Frg2/
Attempting to make child job directory: /src/jdavis/qchem.scratch/qchem15957//Frg3/
Creating input file /src/jdavis/qchem.scratch/qchem15957/Frg1.input
using default PutDataFrgm: nothing
calling putenv with: QCSCRATCH=/src/jdavis/qchem.scratch/qchem15957/ 
Spawning Job For Fragment 0
Done Job For Fragment 0
calling putenv with: QCSCRATCH=/src/jdavis/qchem.scratch 
calling putenv with: QCTHREADS=1 
Creating input file /src/jdavis/qchem.scratch/qchem15957/Frg2.input
using default PutDataFrgm: nothing
calling putenv with: QCSCRATCH=/src/jdavis/qchem.scratch/qchem15957/ 
Spawning Job For Fragment 1
Done Job For Fragment 1
calling putenv with: QCSCRATCH=/src/jdavis/qchem.scratch 
calling putenv with: QCTHREADS=1 
Creating input file /src/jdavis/qchem.scratch/qchem15957/Frg3.input
using default PutDataFrgm: nothing
calling putenv with: QCSCRATCH=/src/jdavis/qchem.scratch/qchem15957/ 
Spawning Job For Fragment 2
Done Job For Fragment 2
calling putenv with: QCSCRATCH=/src/jdavis/qchem.scratch 
calling putenv with: QCTHREADS=1 
 Time for running child jobs:  CPU 1.77 s  wall 80.79 s
 ============= Method Specific SAD Guess Constructed =============
 Guess from on-the-fly superposition of atomic densities
 Warning: Energy on first SCF cycle will be non-variational
 A restricted Hartree-Fock SCF calculation will be
 performed using Pulay DIIS extrapolation
 SCF converges when DIIS error is below 1.0E-08
 using 10 threads for integral computing
 -------------------------------------------------------
 OpenMP Integral computing Module                
 Release: version 1.0, May 2013, Q-Chem Inc. Pittsburgh 
 -------------------------------------------------------
 ---------------------------------------
  Cycle       Energy         DIIS Error
 ---------------------------------------
    1    -153.5721966191      6.41E-02
    2    -153.2891785223      1.31E-02
    3    -153.3561806877      1.09E-02
    4    -153.4394748634      7.98E-04
    5    -153.4403715507      2.25E-04
    6    -153.4404403873      4.67E-05
    7    -153.4404449109      1.20E-05
    8    -153.4404453419      3.49E-06
    9    -153.4404453781      7.60E-07
   10    -153.4404453795      1.44E-07
   11    -153.4404453796      4.07E-08
   12    -153.4404453796      1.05E-08
   13    -153.4404453796      2.10E-09 Convergence criterion met
 ---------------------------------------
 SCF time:  CPU 14.43 s  wall 1.45 s
 SCF   energy in the final basis set = -153.44044538
 Total energy in the final basis set = -153.44044538
================================================================================
|                                                                              |
|                                 A D C  M A N                                 |
|                                                                              |
 ------------------------------------------------------------------------------ 
|                                                                              |
| Components:                                                                  |
|                                                                              |
| - libvmm - 1.3-trunk                                                         |
|   Authors:                                                                   |
|   Evgeny Epifanovsky, Ilya Kaliman                                           |
|                                                                              |
| - libtensor - 2.5-trunk                                                      |
|   Authors:                                                                   |
|   Evgeny Epifanovsky, Michael Wormit, Dmitry Zuev, Sam Manzer,               |
|   Ilya Kaliman                                                               |
|                                                                              |
| - libwfa - 1.1-trunk                                                         |
|   Authors:                                                                   |
|   Felix Plasser, Stefanie Mewes (Baeppler), Benjamin Thomitzni,              |
|   Michael Wormit, Feng Chen, Anna I. Krylov, Pavel Pokhilko                  |
|                                                                              |
| - libadc - 1.1-trunk                                                         |
|   Authors:                                                                   |
|   Michael Wormit, Adrian L. Dempwolff, Philipp H. P. Harbach,                |
|   Caroline Krauter, Dirk Rehn, Matthias Schneider, Jan Wenzel                |
|                                                                              |
| - adcman - 2.6-trunk                                                         |
|   Authors:                                                                   |
|   Michael Wormit, Adrian L. Dempwolff, Philipp H. P. Harbach,                |
|   Caroline Krauter, Daniel Lefrancois, Jan-Michael Mewes, Dirk Rehn,         |
|   Matthias Schneider, Jan Wenzel, Andreas Dreuw                              |
|                                                                              |
| Authors of earlier versions of ADCMAN:                                       |
| Andreas Dreuw, Jan Hendrik Starcke, Dirk Rehn, Michael Wormit                |
|                                                                              |
================================================================================

 
 Alpha MOs, Restricted
 -- Occupied --                  
-20.212 -11.047 -11.045  -0.929  -0.853  -0.597  -0.472  -0.383
  1 A1    2 A1    1 B1    3 A1    4 A1    2 B1    5 A1    6 A1                 
 -0.327  -0.270  -0.193  -0.129  -0.128
  3 B1    7 A1    1 B2    4 B1    2 B2                                         
 -- Virtual --                   
  0.218   0.249   0.296   0.300   0.351   0.367   0.374   0.400
  5 B1    8 A1    1 A2    9 A1   10 A1    3 B2    6 B1   11 A1                 
  0.443   0.454   0.467   0.475   0.508   0.534   0.550   0.578
  4 B2    7 B1    8 B1    2 A2   12 A1   13 A1    9 B1   14 A1                 
  0.682   0.691   0.770   0.936   1.029   1.043   1.097   1.106
 15 A1   10 B1   11 B1   16 A1   17 A1   18 A1   19 A1   12 B1                 
  1.123   1.196   1.201   1.206   1.208   1.285   1.291   1.328
  5 B2    3 A2   20 A1   13 B1    6 B2   14 B1    4 A2   21 A1                 
  1.332   1.332   1.370   1.443   1.470   1.484   1.567   1.650
 15 B1   22 A1    7 B2   16 B1    8 B2    5 A2   17 B1   23 A1                 
  1.714   1.715   1.865   1.922   2.013   2.052   2.117   2.128
  9 B2   18 B1   24 A1   19 B1   25 A1    6 A2   26 A1   10 B2                 
  2.172   2.213   2.225   2.317   2.363   2.394   2.418   2.503
 20 B1   11 B2   27 A1   28 A1    7 A2   12 B2   21 B1   22 B1                 
  2.570   2.605   2.762   2.770   2.854   3.010   3.032   3.097
 29 A1    8 A2   30 A1   23 B1   24 B1   31 A1   32 A1   33 A1                 
  3.452   3.562   3.922   3.946   3.972   4.088   4.545
 25 B1   26 B1   13 B2    9 A2   34 A1   27 B1   35 A1                         
 
 Beta MOs, Restricted
 -- Occupied --                  
-20.212 -11.047 -11.045  -0.929  -0.853  -0.597  -0.472  -0.383
  1 A1    2 A1    1 B1    3 A1    4 A1    2 B1    5 A1    6 A1                 
 -0.327  -0.270  -0.193  -0.129  -0.128
  3 B1    7 A1    1 B2    4 B1    2 B2                                         
 -- Virtual --                   
  0.218   0.249   0.296   0.300   0.351   0.367   0.374   0.400
  5 B1    8 A1    1 A2    9 A1   10 A1    3 B2    6 B1   11 A1                 
  0.443   0.454   0.467   0.475   0.508   0.534   0.550   0.578
  4 B2    7 B1    8 B1    2 A2   12 A1   13 A1    9 B1   14 A1                 
  0.682   0.691   0.770   0.936   1.029   1.043   1.097   1.106
 15 A1   10 B1   11 B1   16 A1   17 A1   18 A1   19 A1   12 B1                 
  1.123   1.196   1.201   1.206   1.208   1.285   1.291   1.328
  5 B2    3 A2   20 A1   13 B1    6 B2   14 B1    4 A2   21 A1                 
  1.332   1.332   1.370   1.443   1.470   1.484   1.567   1.650
 15 B1   22 A1    7 B2   16 B1    8 B2    5 A2   17 B1   23 A1                 
  1.714   1.715   1.865   1.922   2.013   2.052   2.117   2.128
  9 B2   18 B1   24 A1   19 B1   25 A1    6 A2   26 A1   10 B2                 
  2.172   2.213   2.225   2.317   2.363   2.394   2.418   2.503
 20 B1   11 B2   27 A1   28 A1    7 A2   12 B2   21 B1   22 B1                 
  2.570   2.605   2.762   2.770   2.854   3.010   3.032   3.097
 29 A1    8 A2   30 A1   23 B1   24 B1   31 A1   32 A1   33 A1                 
  3.452   3.562   3.922   3.946   3.972   4.088   4.545
 25 B1   26 B1   13 B2    9 A2   34 A1   27 B1   35 A1                         

--------------------------------------------------------------------------------
                                   HF Summary                                   
--------------------------------------------------------------------------------
  Energy:                                                 -153.4404453796 a.u.
  Dip. moment [a.u.]:                  [  -0.000000,    0.000000,    2.090869]
  Total dipole [Debye]:                                               5.314459
  <r^2> [a.u.]:                        [  55.638030,   19.543274,  207.995197]
  Total <r^2> [a.u.]:                                               283.176500
--------------------------------------------------------------------------------

--------------------------------------------------------------------------------
                                 MP(2) Summary                                  
--------------------------------------------------------------------------------
  MP energy contribution:                                   -0.5285774521 a.u.
  Total energy:                                           -153.9690228317 a.u.
  Dip. moment [a.u.]:                  [  -0.000000,    0.000000,    2.157567]
  Total dipole [Debye]:                                               5.483991
  <r^2> [a.u.]:                        [  56.583499,   20.219083,  209.237590]
  Total <r^2> [a.u.]:                                               286.040172

  Density matrix analysis:
  ------------------------
  NOs
    Occupation of frontier NOs:
       0.0448   1.9357
    Number of electrons: 26.000000
    Number of unpaired electrons: n_u =  0.71573, n_u,nl =  0.08550
    NO participation ratio (PR_NO): 23.006717
  
  
  Mulliken Population Analysis
  Atom      Charge (e)              h+              e-           Del q
  --------------------------------------------------------------------
   1 C       -0.216317        0.090842       -0.095765       -0.004923
   2 C       -0.216317        0.090842       -0.095765       -0.004923
   3 H        0.196409        0.017858       -0.011084        0.006773
   4 H        0.196409        0.017858       -0.011084        0.006773
   5 H        0.033535        0.019356       -0.011822        0.007533
   6 H        0.033535        0.019356       -0.011822        0.007533
   7 O       -1.082566        0.277296       -0.279604       -0.002308
   8 H        0.055313        0.015171       -0.031630       -0.016459
  --------------------------------------------------------------------
  Sum:       -1.000000        0.548579       -0.548579        0.000000
  
  Multipole moment analysis of the density matrix
    Molecular charge:                      -1.000000
    Number of electrons:                   26.000000
      Center of electronic charge [Ang]: [  0.000000,  -0.000000,  -0.043913]
    Total nuclear charge:                  25.000000
      Center of nuclear charge [Ang]:    [  0.000000,   0.000000,  -0.000000]
    Dipole moment [D]:                     5.483989
      Cartesian components [D]:          [ -0.000000,   0.000000,   5.483989]
    RMS size of the density [Ang]:         1.754656
      Cartesian components [Ang]:        [  0.780655,   0.466654,   1.500543]
  
  Exciton analysis of the difference density matrix
    <r_h> [Ang]:                  [ -0.000000,  -0.000000,  -0.473697]
    <r_e> [Ang]:                  [  0.000000,  -0.000000,  -0.538037]
    |<r_e - r_h>| [Ang]:            0.064340
    Hole size [Ang]:                1.916708
      Cartesian components [Ang]: [  0.836091,   0.709785,   1.571918]
    Electron size [Ang]:            2.251770
      Cartesian components [Ang]: [  1.087048,   0.921287,   1.743567]
--------------------------------------------------------------------------------
  Starting Davidson for singlet states of irrep B2 ... 
--------------------------------------------------------------------------------
   It NVec Conv  Avg. Norm  Max. Norm  Conv. states           Remark
--------------------------------------------------------------------------------
       100    0  1.503e-01  5.833e-01  0.2748 n n n n n n n n Guess.
    1  110    0  1.731e-02  7.994e-02  0.1231 n n n n n n n n 
    2  120    0  1.647e-02  1.225e-01  0.1223 n n n n n n n n 
    3  130    0  4.346e-03  2.882e-02  0.1223 n n n n n n n n 
    4  140    0  6.798e-04  4.266e-03  0.1223 n n n n n n n n 
    5  150    3  8.902e-05  6.116e-04  0.1223 y y n n y n n n 
    6  160    6  1.202e-05  7.977e-05  0.1223 y y y y y y n n 
    7  170   10  1.364e-06  8.762e-06  0.1223 y y y y y y y y Converged.
--------------------------------------------------------------------------------
  Davidson Summary: 
 ------------------------------------------------------------
  State  0: excitation energy =   0.1223 a.u.   (converged)
  State  1: excitation energy =   0.1461 a.u.   (converged)
  State  2: excitation energy =   0.1492 a.u.   (converged)
  State  3: excitation energy =   0.2219 a.u.   (converged)
  State  4: excitation energy =   0.2484 a.u.   (converged)
  State  5: excitation energy =   0.2698 a.u.   (converged)
  State  6: excitation energy =   0.3168 a.u.   (converged)
  State  7: excitation energy =   0.3187 a.u.   (converged)
  State  8: excitation energy =   0.3198 a.u.   (converged)
  State  9: excitation energy =   0.3267 a.u.   (converged)
 ------------------------------------------------------------


--------------------------------------------------------------------------------
                   State-averaged natural transition orbitals
--------------------------------------------------------------------------------
--------------------------------------------------------------------------------

--------------------------------------------------------------------------------
                             Excited State Summary
--------------------------------------------------------------------------------
--------------------------------------------------------------------------------

  Excited state 1 (singlet, B2)                                    [converged]
  ----------------------------------------------------------------------------
  Term symbol:  1 (1) B2                                    R^2 =  4.05290e-08

  Total energy:                                           -153.8467335910 a.u.
  Excitation energy:                                               3.327659 eV

  Osc. strength:                                                      0.050463
  Trans. dip. moment [a.u.]:           [   0.000000,   -0.786752,   -0.000000]
  <i|r^2|0> [a.u.]:                    [   0.000000,    0.000000,   -0.000000]

  Dip. moment [a.u.]:                  [   0.000000,   -0.000000,    2.532469]
  Total dipole [Debye]:                                               6.436897
  <r^2> [a.u.]:                        [  63.297914,   25.270238,  222.784869]
  Total <r^2> [a.u.]:                                               311.353020

  V1^2 = 0.8933, V2^2 = 0.1067

  Important amplitudes:
      occ i      occ j       vir a       vir b          v   
    ---------------------------------------------------------
     2 (B2) A               9 (A1) A                 -0.5337
     2 (B2) A               8 (A1) A                  0.3737
    ---------------------------------------------------------

  Density matrix analysis:
  ------------------------
  NOs
    Occupation of frontier NOs:
       0.9659   0.9951
    Number of electrons: 26.000000
    Number of unpaired electrons: n_u =  2.72079, n_u,nl =  2.10404
    NO participation ratio (PR_NO):  3.794275
  
  
  Mulliken Population Analysis
  Atom      Charge (e)              h+              e-           Del q
  --------------------------------------------------------------------
   1 C       -0.566109        0.017457       -0.367249       -0.349792
   2 C       -0.566109        0.017457       -0.367249       -0.349792
   3 H        0.163916        0.003801       -0.036294       -0.032493
   4 H        0.163916        0.003801       -0.036294       -0.032493
   5 H        0.027350        0.013564       -0.019750       -0.006185
   6 H        0.027350        0.013564       -0.019750       -0.006185
   7 O       -1.087042        1.279525       -1.284001       -0.004476
   8 H        0.836729        0.181726        0.599690        0.781416
  --------------------------------------------------------------------
  Sum:       -1.000000        1.530896       -1.530896        0.000000
  
  Multipole moment analysis of the density matrix
    Molecular charge:                      -1.000000
    Number of electrons:                   26.000000
      Center of electronic charge [Ang]: [ -0.000000,   0.000000,  -0.051543]
    Total nuclear charge:                  25.000000
      Center of nuclear charge [Ang]:    [  0.000000,   0.000000,  -0.000000]
    Dipole moment [D]:                     6.436895
      Cartesian components [D]:          [  0.000000,  -0.000000,   6.436895]
    RMS size of the density [Ang]:         1.830496
      Cartesian components [Ang]:        [  0.825675,   0.521698,   1.548163]
  
  Exciton analysis of the difference density matrix
    <r_h> [Ang]:                  [  0.000000,  -0.000000,  -1.620839]
    <r_e> [Ang]:                  [ -0.000000,   0.000000,  -1.750430]
    |<r_e - r_h>| [Ang]:            0.129590
    Hole size [Ang]:                1.589770
      Cartesian components [Ang]: [  0.779546,   0.866666,   1.081003]
    Electron size [Ang]:            2.592424
      Cartesian components [Ang]: [  1.354946,   1.294240,   1.791570]

  Transition density matrix analysis:
  -----------------------------------
  
  CT numbers (Mulliken)
    omega =     0.8753
    <Phe> =    -0.0105
  
  Exciton analysis of the transition density matrix
    Trans. dipole moment [D]:             0.999862
      Cartesian components [D]:         [  0.000000,  -0.999862,  -0.000000]
    <r_h> [Ang]:                        [  0.000000,  -0.000000,  -1.743359]
    <r_e> [Ang]:                        [  0.000000,   0.000000,  -1.970709]
    |<r_e - r_h>| [Ang]:                  0.227349
    Hole size [Ang]:                      1.087316
      Cartesian components [Ang]:       [  0.474094,   0.817886,   0.537171]
    Electron size [Ang]:                  2.979367
      Cartesian components [Ang]:       [  1.565623,   1.517375,   2.030523]
    RMS electron-hole separation [Ang]:   3.168636
      Cartesian components [Ang]:       [  1.635241,   1.718611,   2.100623]
    Covariance(r_h, r_e) [Ang^2]:         0.035158
    Correlation coefficient:              0.010853
    Center-of-mass size [Ang]:            1.591320
      Cartesian components [Ang]:       [  0.818210,   0.864451,   1.056199]

  Decomposition into state-averaged NTOs
    H- 0 -> L+ 0: -0.4666 ( 43.5%)
    H- 0 -> L+ 3:  0.3443 ( 23.7%)
    H- 0 -> L+ 4: -0.2635 ( 13.9%)
    H- 0 -> L+ 1: -0.1680 (  5.6%)
                   omega =  87.5%
  ----------------------------------------------------------------------------


  Excited state 2 (singlet, B2)                                    [converged]
  ----------------------------------------------------------------------------
  Term symbol:  2 (1) B2                                    R^2 =  3.64938e-08

  Total energy:                                           -153.8228874424 a.u.
  Excitation energy:                                               3.976546 eV

  Osc. strength:                                                      0.006084
  Trans. dip. moment [a.u.]:           [  -0.000000,    0.249888,   -0.000000]
  <i|r^2|0> [a.u.]:                    [   0.000000,    0.000000,    0.000000]

  Dip. moment [a.u.]:                  [  -0.000000,    0.000000,   -2.143251]
  Total dipole [Debye]:                                               5.447602
  <r^2> [a.u.]:                        [  65.756477,   26.118036,  220.097840]
  Total <r^2> [a.u.]:                                               311.972353

  V1^2 = 0.8766, V2^2 = 0.1234

  Important amplitudes:
      occ i      occ j       vir a       vir b          v   
    ---------------------------------------------------------
     2 (B2) A               8 (A1) A                  0.5351
     2 (B2) A               9 (A1) A                  0.3578
    ---------------------------------------------------------

  Density matrix analysis:
  ------------------------
  NOs
    Occupation of frontier NOs:
       0.9689   0.9890
    Number of electrons: 26.000000
    Number of unpaired electrons: n_u =  2.74974, n_u,nl =  2.11471
    NO participation ratio (PR_NO):  3.881841
  
  
  Mulliken Population Analysis
  Atom      Charge (e)              h+              e-           Del q
  --------------------------------------------------------------------
   1 C       -0.753643        0.047827       -0.585153       -0.537326
   2 C       -0.753643        0.047827       -0.585153       -0.537326
   3 H        0.194787        0.002616       -0.004238       -0.001622
   4 H        0.194787        0.002616       -0.004238       -0.001622
   5 H        0.263293        0.035083        0.194675        0.229759
   6 H        0.263293        0.035083        0.194675        0.229759
   7 O       -0.786414        1.323809       -1.027657        0.296152
   8 H        0.377539        0.151463        0.170763        0.322226
  --------------------------------------------------------------------
  Sum:       -1.000000        1.646325       -1.646325        0.000000
  
  Multipole moment analysis of the density matrix
    Molecular charge:                      -1.000000
    Number of electrons:                   26.000000
      Center of electronic charge [Ang]: [  0.000000,  -0.000000,   0.043622]
    Total nuclear charge:                  25.000000
      Center of nuclear charge [Ang]:    [  0.000000,   0.000000,  -0.000000]
    Dipole moment [D]:                     5.447600
      Cartesian components [D]:          [ -0.000000,   0.000000,  -5.447600]
    RMS size of the density [Ang]:         1.832523
      Cartesian components [Ang]:        [  0.841557,   0.530377,   1.539033]
  
  Exciton analysis of the difference density matrix
    <r_h> [Ang]:                  [  0.000000,  -0.000000,  -1.436560]
    <r_e> [Ang]:                  [ -0.000000,  -0.000000,  -0.054151]
    |<r_e - r_h>| [Ang]:            1.382410
    Hole size [Ang]:                1.742384
      Cartesian components [Ang]: [  0.812201,   0.849893,   1.286045]
    Electron size [Ang]:            3.083433
      Cartesian components [Ang]: [  1.489943,   1.313655,   2.358376]

  Transition density matrix analysis:
  -----------------------------------
  
  CT numbers (Mulliken)
    omega =     0.8591
    <Phe> =    -0.0023
  
  Exciton analysis of the transition density matrix
    Trans. dipole moment [D]:             0.317576
      Cartesian components [D]:         [ -0.000000,   0.317576,  -0.000000]
    <r_h> [Ang]:                        [  0.000000,  -0.000000,  -1.732032]
    <r_e> [Ang]:                        [  0.000000,  -0.000000,   0.617281]
    |<r_e - r_h>| [Ang]:                  2.349313
    Hole size [Ang]:                      1.106904
      Cartesian components [Ang]:       [  0.478471,   0.818519,   0.571250]
    Electron size [Ang]:                  3.560805
      Cartesian components [Ang]:       [  1.775860,   1.595453,   2.642004]
    RMS electron-hole separation [Ang]:   4.398432
      Cartesian components [Ang]:       [  1.838606,   1.789499,   3.572594]
    Covariance(r_h, r_e) [Ang^2]:         0.038816
    Correlation coefficient:              0.009848
    Center-of-mass size [Ang]:            1.869639
      Cartesian components [Ang]:       [  0.919886,   0.898413,   1.357282]

  Decomposition into state-averaged NTOs
    H- 0 -> L+ 1: -0.5271 ( 55.6%)
    H- 0 -> L+ 3: -0.2926 ( 17.1%)
    H- 0 -> L+ 4:  0.2117 (  9.0%)
    H- 0 -> L+ 0: -0.1351 (  3.6%)
                   omega =  85.9%
  ----------------------------------------------------------------------------


  Excited state 3 (singlet, B2)                                    [converged]
  ----------------------------------------------------------------------------
  Term symbol:  3 (1) B2                                    R^2 =  1.29842e-07

  Total energy:                                           -153.8198579381 a.u.
  Excitation energy:                                               4.058983 eV

  Osc. strength:                                                      0.001042
  Trans. dip. moment [a.u.]:           [  -0.000000,    0.102343,    0.000000]
  <i|r^2|0> [a.u.]:                    [   0.000000,    0.000000,    0.000000]

  Dip. moment [a.u.]:                  [   0.000000,    0.000000,   -2.779907]
  Total dipole [Debye]:                                               7.065819
  <r^2> [a.u.]:                        [  60.954095,   24.337071,  201.434009]
  Total <r^2> [a.u.]:                                               286.725175

  V1^2 = 0.8703, V2^2 = 0.1297

  Important amplitudes:
      occ i      occ j       vir a       vir b          v   
    ---------------------------------------------------------
     4 (B1) A               1 (A2) A                  0.6443
     4 (B1) A               2 (A2) A                  0.1305
    ---------------------------------------------------------

  Density matrix analysis:
  ------------------------
  NOs
    Occupation of frontier NOs:
       0.9707   0.9924
    Number of electrons: 26.000000
    Number of unpaired electrons: n_u =  2.72355, n_u,nl =  2.10146
    NO participation ratio (PR_NO):  3.795478
  
  
  Mulliken Population Analysis
  Atom      Charge (e)              h+              e-           Del q
  --------------------------------------------------------------------
   1 C       -0.625800        0.111469       -0.520951       -0.409483
   2 C       -0.625800        0.111469       -0.520951       -0.409483
   3 H        0.120869        0.005238       -0.080777       -0.075540
   4 H        0.120869        0.005238       -0.080777       -0.075540
   5 H        0.020489        0.009997       -0.023043       -0.013046
   6 H        0.020489        0.009997       -0.023043       -0.013046
   7 O       -0.178360        1.344079       -0.439872        0.904206
   8 H        0.147243        0.111864       -0.019934        0.091930
  --------------------------------------------------------------------
  Sum:       -1.000000        1.709349       -1.709349        0.000000
  
  Multipole moment analysis of the density matrix
    Molecular charge:                      -1.000000
    Number of electrons:                   26.000000
      Center of electronic charge [Ang]: [ -0.000000,  -0.000000,   0.056579]
    Total nuclear charge:                  25.000000
      Center of nuclear charge [Ang]:    [  0.000000,   0.000000,  -0.000000]
    Dipole moment [D]:                     7.065817
      Cartesian components [D]:          [  0.000000,   0.000000,  -7.065817]
    RMS size of the density [Ang]:         1.756395
      Cartesian components [Ang]:        [  0.810244,   0.511975,   1.471839]
  
  Exciton analysis of the difference density matrix
    <r_h> [Ang]:                  [  0.000000,  -0.000000,  -1.322433]
    <r_e> [Ang]:                  [ -0.000000,  -0.000000,   0.206102]
    |<r_e - r_h>| [Ang]:            1.528535
    Hole size [Ang]:                1.736445
      Cartesian components [Ang]: [  0.889693,   0.724870,   1.303170]
    Electron size [Ang]:            2.198593
      Cartesian components [Ang]: [  1.227824,   1.095469,   1.458151]

  Transition density matrix analysis:
  -----------------------------------
  
  CT numbers (Mulliken)
    omega =     0.8423
    <Phe> =    -0.0008
  
  Exciton analysis of the transition density matrix
    Trans. dipole moment [D]:             0.130064
      Cartesian components [D]:         [ -0.000000,   0.130064,   0.000000]
    <r_h> [Ang]:                        [  0.000000,  -0.000000,  -1.684709]
    <r_e> [Ang]:                        [ -0.000000,  -0.000000,   1.028170]
    |<r_e - r_h>| [Ang]:                  2.712879
    Hole size [Ang]:                      1.178803
      Cartesian components [Ang]:       [  0.815751,   0.467459,   0.711062]
    Electron size [Ang]:                  2.025057
      Cartesian components [Ang]:       [  1.390054,   1.262949,   0.757342]
    RMS electron-hole separation [Ang]:   3.582173
      Cartesian components [Ang]:       [  1.606833,   1.346310,   2.904737]
    Covariance(r_h, r_e) [Ang^2]:         0.009092
    Correlation coefficient:              0.003809
    Center-of-mass size [Ang]:            1.173522
      Cartesian components [Ang]:       [  0.808314,   0.673529,   0.519752]

  Decomposition into state-averaged NTOs
    H- 2 -> L+ 2:  0.6394 ( 81.8%)
    H- 2 -> L+ 6:  0.0994 (  2.0%)
                   omega =  84.2%
  ----------------------------------------------------------------------------


  Excited state 4 (singlet, B2)                                    [converged]
  ----------------------------------------------------------------------------
  Term symbol:  4 (1) B2                                    R^2 =  1.82349e-07

  Total energy:                                           -153.7471269339 a.u.
  Excitation energy:                                               6.038094 eV

  Osc. strength:                                                      0.008063
  Trans. dip. moment [a.u.]:           [   0.000000,   -0.233460,    0.000000]
  <i|r^2|0> [a.u.]:                    [   0.000000,   -0.000000,    0.000000]

  Dip. moment [a.u.]:                  [  -0.000000,    0.000000,   -3.246508]
  Total dipole [Debye]:                                               8.251801
  <r^2> [a.u.]:                        [  63.814319,   22.158571,  214.165992]
  Total <r^2> [a.u.]:                                               300.138882

  V1^2 = 0.8756, V2^2 = 0.1244

  Important amplitudes:
      occ i      occ j       vir a       vir b          v   
    ---------------------------------------------------------
     2 (B2) A              10 (A1) A                  0.6169
     2 (B2) A               9 (A1) A                 -0.1459
    ---------------------------------------------------------

  Density matrix analysis:
  ------------------------
  NOs
    Occupation of frontier NOs:
       0.9685   0.9874
    Number of electrons: 26.000000
    Number of unpaired electrons: n_u =  2.75068, n_u,nl =  2.11471
    NO participation ratio (PR_NO):  3.892462
  
  
  Mulliken Population Analysis
  Atom      Charge (e)              h+              e-           Del q
  --------------------------------------------------------------------
   1 C       -0.646691        0.053770       -0.484143       -0.430373
   2 C       -0.646691        0.053770       -0.484143       -0.430373
   3 H        0.220909        0.006528        0.017971        0.024500
   4 H        0.220909        0.006528        0.017971        0.024500
   5 H       -0.018155        0.033857       -0.085546       -0.051690
   6 H       -0.018155        0.033857       -0.085546       -0.051690
   7 O       -0.255321        1.347684       -0.520439        0.827245
   8 H        0.143195        0.119136       -0.031254        0.087882
  --------------------------------------------------------------------
  Sum:       -1.000000        1.655129       -1.655129       -0.000000
  
  Multipole moment analysis of the density matrix
    Molecular charge:                      -1.000000
    Number of electrons:                   26.000000
      Center of electronic charge [Ang]: [  0.000000,  -0.000000,   0.066076]
    Total nuclear charge:                  25.000000
      Center of nuclear charge [Ang]:    [  0.000000,   0.000000,  -0.000000]
    Dipole moment [D]:                     8.251799
      Cartesian components [D]:          [ -0.000000,   0.000000,  -8.251799]
    RMS size of the density [Ang]:         1.796727
      Cartesian components [Ang]:        [  0.829036,   0.488523,   1.517324]
  
  Exciton analysis of the difference density matrix
    <r_h> [Ang]:                  [  0.000000,  -0.000000,  -1.394006]
    <r_e> [Ang]:                  [  0.000000,  -0.000000,   0.333782]
    |<r_e - r_h>| [Ang]:            1.727788
    Hole size [Ang]:                1.748597
      Cartesian components [Ang]: [  0.792192,   0.837583,   1.314716]
    Electron size [Ang]:            2.697178
      Cartesian components [Ang]: [  1.360492,   1.014734,   2.096222]

  Transition density matrix analysis:
  -----------------------------------
  
  CT numbers (Mulliken)
    omega =     0.8575
    <Phe> =    -0.0013
  
  Exciton analysis of the transition density matrix
    Trans. dipole moment [D]:             0.296698
      Cartesian components [D]:         [  0.000000,  -0.296698,   0.000000]
    <r_h> [Ang]:                        [  0.000000,  -0.000000,  -1.701409]
    <r_e> [Ang]:                        [  0.000000,  -0.000000,   1.280222]
    |<r_e - r_h>| [Ang]:                  2.981631
    Hole size [Ang]:                      1.146567
      Cartesian components [Ang]:       [  0.479337,   0.818740,   0.643830]
    Electron size [Ang]:                  2.813320
      Cartesian components [Ang]:       [  1.600136,   1.188422,   1.985444]
    RMS electron-hole separation [Ang]:   4.241363
      Cartesian components [Ang]:       [  1.669780,   1.441800,   3.622459]
    Covariance(r_h, r_e) [Ang^2]:         0.065176
    Correlation coefficient:              0.020205
    Center-of-mass size [Ang]:            1.529684
      Cartesian components [Ang]:       [  0.835499,   0.722250,   1.058410]

  Decomposition into state-averaged NTOs
    H- 0 -> L+ 0: -0.4384 ( 38.4%)
    H- 0 -> L+ 1:  0.3364 ( 22.6%)
    H- 0 -> L+ 3: -0.2970 ( 17.6%)
    H- 0 -> L+ 4:  0.1669 (  5.6%)
                   omega =  85.8%
  ----------------------------------------------------------------------------


  Excited state 5 (singlet, B2)                                    [converged]
  ----------------------------------------------------------------------------
  Term symbol:  5 (1) B2                                    R^2 =  3.10690e-08

  Total energy:                                           -153.7205747290 a.u.
  Excitation energy:                                               6.760617 eV

  Osc. strength:                                                      0.114022
  Trans. dip. moment [a.u.]:           [  -0.000000,   -0.829700,    0.000000]
  <i|r^2|0> [a.u.]:                    [  -0.000000,   -0.000000,   -0.000000]

  Dip. moment [a.u.]:                  [  -0.000000,    0.000000,    0.164012]
  Total dipole [Debye]:                                               0.416878
  <r^2> [a.u.]:                        [  62.996890,   26.003353,  222.871070]
  Total <r^2> [a.u.]:                                               311.871313

  V1^2 = 0.9482, V2^2 = 0.0518

  Important amplitudes:
      occ i      occ j       vir a       vir b          v   
    ---------------------------------------------------------
     1 (B2) A               8 (A1) A                  0.6641
     1 (B2) A              10 (A1) A                 -0.1248
    ---------------------------------------------------------

  Density matrix analysis:
  ------------------------
  NOs
    Occupation of frontier NOs:
       0.9872   0.9874
    Number of electrons: 26.000000
    Number of unpaired electrons: n_u =  2.61670, n_u,nl =  2.06804
    NO participation ratio (PR_NO):  3.480163
  
  
  Mulliken Population Analysis
  Atom      Charge (e)              h+              e-           Del q
  --------------------------------------------------------------------
   1 C       -0.498772        0.520303       -0.802757       -0.282454
   2 C       -0.498772        0.520303       -0.802757       -0.282454
   3 H        0.257003        0.046823        0.013771        0.060594
   4 H        0.257003        0.046823        0.013771        0.060594
   5 H        0.264058        0.112504        0.118019        0.230523
   6 H        0.264058        0.112504        0.118019        0.230523
   7 O       -1.113845        0.048580       -0.079858       -0.031279
   8 H        0.069267        0.017451       -0.003497        0.013954
  --------------------------------------------------------------------
  Sum:       -1.000000        1.425291       -1.425291       -0.000000
  
  Multipole moment analysis of the density matrix
    Molecular charge:                      -1.000000
    Number of electrons:                   26.000000
      Center of electronic charge [Ang]: [  0.000000,  -0.000000,  -0.003338]
    Total nuclear charge:                  25.000000
      Center of nuclear charge [Ang]:    [  0.000000,   0.000000,  -0.000000]
    Dipole moment [D]:                     0.416878
      Cartesian components [D]:          [ -0.000000,   0.000000,   0.416878]
    RMS size of the density [Ang]:         1.832742
      Cartesian components [Ang]:        [  0.823709,   0.529211,   1.549317]
  
  Exciton analysis of the difference density matrix
    <r_h> [Ang]:                  [  0.000000,  -0.000000,   0.931287]
    <r_e> [Ang]:                  [  0.000000,  -0.000000,   1.671447]
    |<r_e - r_h>| [Ang]:            0.740161
    Hole size [Ang]:                1.720399
      Cartesian components [Ang]: [  1.005338,   0.889089,   1.076377]
    Electron size [Ang]:            2.471519
      Cartesian components [Ang]: [  1.506901,   1.388136,   1.382293]

  Transition density matrix analysis:
  -----------------------------------
  
  CT numbers (Mulliken)
    omega =     0.9167
    <Phe> =    -0.0124
  
  Exciton analysis of the transition density matrix
    Trans. dipole moment [D]:             1.054444
      Cartesian components [D]:         [ -0.000000,  -1.054444,   0.000000]
    <r_h> [Ang]:                        [  0.000000,  -0.000000,   0.990879]
    <r_e> [Ang]:                        [  0.000000,  -0.000000,   2.098564]
    |<r_e - r_h>| [Ang]:                  1.107685
    Hole size [Ang]:                      1.314297
      Cartesian components [Ang]:       [  0.758278,   0.878376,   0.617128]
    Electron size [Ang]:                  2.656814
      Cartesian components [Ang]:       [  1.696065,   1.609395,   1.261695]
    RMS electron-hole separation [Ang]:   3.157213
      Cartesian components [Ang]:       [  1.850265,   1.822658,   1.795113]
    Covariance(r_h, r_e) [Ang^2]:         0.022508
    Correlation coefficient:              0.006446
    Center-of-mass size [Ang]:            1.485855
      Cartesian components [Ang]:       [  0.932707,   0.922132,   0.698208]

  Decomposition into state-averaged NTOs
    H- 1 -> L+ 1: -0.6338 ( 80.3%)
    H- 1 -> L+ 0: -0.2313 ( 10.7%)
                   omega =  91.7%
  ----------------------------------------------------------------------------


  Excited state 6 (singlet, B2)                                    [converged]
  ----------------------------------------------------------------------------
  Term symbol:  6 (1) B2                                    R^2 =  8.29009e-07

  Total energy:                                           -153.6991903510 a.u.
  Excitation energy:                                               7.342515 eV

  Osc. strength:                                                      0.006168
  Trans. dip. moment [a.u.]:           [  -0.000000,   -0.185170,   -0.000000]
  <i|r^2|0> [a.u.]:                    [  -0.000000,   -0.000000,   -0.000000]

  Dip. moment [a.u.]:                  [  -0.000000,    0.000000,   -2.934779]
  Total dipole [Debye]:                                               7.459466
  <r^2> [a.u.]:                        [  66.174042,   25.735265,  203.913738]
  Total <r^2> [a.u.]:                                               295.823045

  V1^2 = 0.8771, V2^2 = 0.1229

  Important amplitudes:
      occ i      occ j       vir a       vir b          v   
    ---------------------------------------------------------
     2 (B2) A              11 (A1) A                  0.6379
     2 (B2) A              10 (A1) A                 -0.1481
    ---------------------------------------------------------

  Density matrix analysis:
  ------------------------
  NOs
    Occupation of frontier NOs:
       0.9652   0.9919
    Number of electrons: 26.000000
    Number of unpaired electrons: n_u =  2.74274, n_u,nl =  2.11186
    NO participation ratio (PR_NO):  3.866386
  
  
  Mulliken Population Analysis
  Atom      Charge (e)              h+              e-           Del q
  --------------------------------------------------------------------
   1 C       -0.641305        0.052656       -0.477644       -0.424987
   2 C       -0.641305        0.052656       -0.477644       -0.424987
   3 H        0.152891        0.002776       -0.046293       -0.043518
   4 H        0.152891        0.002776       -0.046293       -0.043518
   5 H       -0.007544        0.015742       -0.056821       -0.041078
   6 H       -0.007544        0.015742       -0.056821       -0.041078
   7 O       -0.162576        1.368801       -0.448811        0.919990
   8 H        0.154491        0.118789       -0.019612        0.099178
  --------------------------------------------------------------------
  Sum:       -1.000000        1.629939       -1.629939        0.000000
  
  Multipole moment analysis of the density matrix
    Molecular charge:                      -1.000000
    Number of electrons:                   26.000000
      Center of electronic charge [Ang]: [  0.000000,  -0.000000,   0.059731]
    Total nuclear charge:                  25.000000
      Center of nuclear charge [Ang]:    [  0.000000,   0.000000,  -0.000000]
    Dipole moment [D]:                     7.459464
      Cartesian components [D]:          [ -0.000000,   0.000000,  -7.459464]
    RMS size of the density [Ang]:         1.783968
      Cartesian components [Ang]:        [  0.844225,   0.526476,   1.480760]
  
  Exciton analysis of the difference density matrix
    <r_h> [Ang]:                  [ -0.000000,  -0.000000,  -1.485664]
    <r_e> [Ang]:                  [ -0.000000,  -0.000000,   0.167621]
    |<r_e - r_h>| [Ang]:            1.653285
    Hole size [Ang]:                1.673187
      Cartesian components [Ang]: [  0.795729,   0.848929,   1.202369]
    Electron size [Ang]:            2.580578
      Cartesian components [Ang]: [  1.510255,   1.291657,   1.646249]

  Transition density matrix analysis:
  -----------------------------------
  
  CT numbers (Mulliken)
    omega =     0.8595
    <Phe> =    -0.0004
  
  Exciton analysis of the transition density matrix
    Trans. dipole moment [D]:             0.235328
      Cartesian components [D]:         [ -0.000000,  -0.235328,  -0.000000]
    <r_h> [Ang]:                        [ -0.000000,  -0.000000,  -1.718471]
    <r_e> [Ang]:                        [ -0.000000,  -0.000000,   1.074653]
    |<r_e - r_h>| [Ang]:                  2.793124
    Hole size [Ang]:                      1.124409
      Cartesian components [Ang]:       [  0.477611,   0.819016,   0.604481]
    Electron size [Ang]:                  2.657407
      Cartesian components [Ang]:       [  1.796951,   1.560436,   1.182293]
    RMS electron-hole separation [Ang]:   4.011318
      Cartesian components [Ang]:       [  1.858858,   1.757380,   3.089812]
    Covariance(r_h, r_e) [Ang^2]:         0.018487
    Correlation coefficient:              0.006187
    Center-of-mass size [Ang]:            1.445950
      Cartesian components [Ang]:       [  0.929911,   0.883617,   0.667276]

  Decomposition into state-averaged NTOs
    H- 0 -> L+ 5:  0.6499 ( 84.5%)
                   omega =  86.0%
  ----------------------------------------------------------------------------


  Excited state 7 (singlet, B2)                                    [converged]
  ----------------------------------------------------------------------------
  Term symbol:  7 (1) B2                                    R^2 =  5.26536e-06

  Total energy:                                           -153.6521755334 a.u.
  Excitation energy:                                               8.621853 eV

  Osc. strength:                                                      0.013033
  Trans. dip. moment [a.u.]:           [   0.000000,    0.248392,    0.000000]
  <i|r^2|0> [a.u.]:                    [  -0.000000,    0.000000,   -0.000000]

  Dip. moment [a.u.]:                  [  -0.000000,    0.000000,    1.091819]
  Total dipole [Debye]:                                               2.775127
  <r^2> [a.u.]:                        [  61.136879,   24.140933,  209.024627]
  Total <r^2> [a.u.]:                                               294.302439

  V1^2 = 0.9296, V2^2 = 0.0704

  Important amplitudes:
      occ i      occ j       vir a       vir b          v   
    ---------------------------------------------------------
     3 (B1) A               1 (A2) A                 -0.4152
     4 (B1) A               2 (A2) A                 -0.2794
    ---------------------------------------------------------

  Density matrix analysis:
  ------------------------
  NOs
    Occupation of frontier NOs:
       0.4466   1.5560
    Number of electrons: 26.000000
    Number of unpaired electrons: n_u =  2.74190, n_u,nl =  1.96644
    NO participation ratio (PR_NO): 10.415009
  
  
  Mulliken Population Analysis
  Atom      Charge (e)              h+              e-           Del q
  --------------------------------------------------------------------
   1 C       -0.435036        0.237476       -0.456194       -0.218719
   2 C       -0.435036        0.237476       -0.456194       -0.218719
   3 H        0.211876        0.049167       -0.033700        0.015467
   4 H        0.211876        0.049167       -0.033700        0.015467
   5 H        0.091822        0.076527       -0.018240        0.058287
   6 H        0.091822        0.076527       -0.018240        0.058287
   7 O       -0.865103        0.384388       -0.166925        0.217463
   8 H        0.127779        0.044090        0.028376        0.072466
  --------------------------------------------------------------------
  Sum:       -1.000000        1.154817       -1.154817        0.000000
  
  Multipole moment analysis of the density matrix
    Molecular charge:                      -1.000000
    Number of electrons:                   26.000000
      Center of electronic charge [Ang]: [  0.000000,  -0.000000,  -0.022222]
    Total nuclear charge:                  25.000000
      Center of nuclear charge [Ang]:    [  0.000000,   0.000000,  -0.000000]
    Dipole moment [D]:                     2.775126
      Cartesian components [D]:          [ -0.000000,   0.000000,   2.775126]
    RMS size of the density [Ang]:         1.780236
      Cartesian components [Ang]:        [  0.811458,   0.509908,   1.500257]
  
  Exciton analysis of the difference density matrix
    <r_h> [Ang]:                  [  0.000000,  -0.000000,   0.004609]
    <r_e> [Ang]:                  [  0.000000,  -0.000000,   0.492972]
    |<r_e - r_h>| [Ang]:            0.488363
    Hole size [Ang]:                2.053572
      Cartesian components [Ang]: [  0.996170,   0.747464,   1.632819]
    Electron size [Ang]:            2.444924
      Cartesian components [Ang]: [  1.447927,   1.228699,   1.539954]

  Transition density matrix analysis:
  -----------------------------------
  
  CT numbers (Mulliken)
    omega =     0.9018
    <Phe> =    -0.0129
  
  Exciton analysis of the transition density matrix
    Trans. dipole moment [D]:             0.315675
      Cartesian components [D]:         [  0.000000,   0.315675,   0.000000]
    <r_h> [Ang]:                        [  0.000000,  -0.000000,   0.195968]
    <r_e> [Ang]:                        [  0.000000,  -0.000000,   0.736136]
    |<r_e - r_h>| [Ang]:                  0.540168
    Hole size [Ang]:                      1.839007
      Cartesian components [Ang]:       [  0.919223,   0.633254,   1.461494]
    Electron size [Ang]:                  2.426170
      Cartesian components [Ang]:       [  1.511395,   1.273384,   1.407294]
    RMS electron-hole separation [Ang]:   3.027884
      Cartesian components [Ang]:       [  1.757351,   1.420217,   2.015634]
    Covariance(r_h, r_e) [Ang^2]:         0.195973
    Correlation coefficient:              0.043923
    Center-of-mass size [Ang]:            1.554042
      Cartesian components [Ang]:       [  0.890265,   0.712043,   1.056159]

  Decomposition into state-averaged NTOs
    H- 3 -> L+ 2: -0.4387 ( 38.5%)
    H- 1 -> L+ 0:  0.3268 ( 21.4%)
    H- 2 -> L+ 6:  0.2825 ( 16.0%)
    H- 0 -> L+ 4: -0.1955 (  7.6%)
    H- 0 -> L+ 3: -0.1278 (  3.3%)
    H- 1 -> L+ 1: -0.1141 (  2.6%)
                   omega =  90.2%
  ----------------------------------------------------------------------------


  Excited state 8 (singlet, B2)                                    [converged]
  ----------------------------------------------------------------------------
  Term symbol:  8 (1) B2                                    R^2 =  5.12180e-06

  Total energy:                                           -153.6503432490 a.u.
  Excitation energy:                                               8.671712 eV

  Osc. strength:                                                      0.028827
  Trans. dip. moment [a.u.]:           [  -0.000000,   -0.368356,   -0.000000]
  <i|r^2|0> [a.u.]:                    [  -0.000000,    0.000000,   -0.000000]

  Dip. moment [a.u.]:                  [  -0.000000,    0.000000,    1.708997]
  Total dipole [Debye]:                                               4.343838
  <r^2> [a.u.]:                        [  63.641410,   24.017617,  214.154510]
  Total <r^2> [a.u.]:                                               301.813537

  V1^2 = 0.9359, V2^2 = 0.0641

  Important amplitudes:
      occ i      occ j       vir a       vir b          v   
    ---------------------------------------------------------
     1 (B2) A              10 (A1) A                  0.3889
     1 (B2) A               9 (A1) A                 -0.3840
    ---------------------------------------------------------

  Density matrix analysis:
  ------------------------
  NOs
    Occupation of frontier NOs:
       0.6989   1.2623
    Number of electrons: 26.000000
    Number of unpaired electrons: n_u =  2.70856, n_u,nl =  2.10610
    NO participation ratio (PR_NO):  6.373278
  
  
  Mulliken Population Analysis
  Atom      Charge (e)              h+              e-           Del q
  --------------------------------------------------------------------
   1 C       -0.465820        0.367250       -0.616752       -0.249502
   2 C       -0.465820        0.367250       -0.616752       -0.249502
   3 H        0.260821        0.037517        0.026895        0.064412
   4 H        0.260821        0.037517        0.026895        0.064412
   5 H        0.069471        0.066594       -0.030658        0.035936
   6 H        0.069471        0.066594       -0.030658        0.035936
   7 O       -0.897982        0.289097       -0.104514        0.184584
   8 H        0.169038        0.039793        0.073932        0.113725
  --------------------------------------------------------------------
  Sum:       -1.000000        1.271612       -1.271612        0.000000
  
  Multipole moment analysis of the density matrix
    Molecular charge:                      -1.000000
    Number of electrons:                   26.000000
      Center of electronic charge [Ang]: [  0.000000,  -0.000000,  -0.034783]
    Total nuclear charge:                  25.000000
      Center of nuclear charge [Ang]:    [  0.000000,   0.000000,  -0.000000]
    Dipole moment [D]:                     4.343837
      Cartesian components [D]:          [ -0.000000,   0.000000,   4.343837]
    RMS size of the density [Ang]:         1.802615
      Cartesian components [Ang]:        [  0.827912,   0.508604,   1.518323]
  
  Exciton analysis of the difference density matrix
    <r_h> [Ang]:                  [  0.000000,  -0.000000,   0.323034]
    <r_e> [Ang]:                  [  0.000000,  -0.000000,   0.509705]
    |<r_e - r_h>| [Ang]:            0.186671
    Hole size [Ang]:                2.005372
      Cartesian components [Ang]: [  0.974900,   0.862816,   1.525331]
    Electron size [Ang]:            2.709171
      Cartesian components [Ang]: [  1.582622,   1.257357,   1.803876]

  Transition density matrix analysis:
  -----------------------------------
  
  CT numbers (Mulliken)
    omega =     0.9063
    <Phe> =    -0.0018
  
  Exciton analysis of the transition density matrix
    Trans. dipole moment [D]:             0.468133
      Cartesian components [D]:         [ -0.000000,  -0.468133,  -0.000000]
    <r_h> [Ang]:                        [  0.000000,  -0.000000,   0.407093]
    <r_e> [Ang]:                        [  0.000000,  -0.000000,   0.615935]
    |<r_e - r_h>| [Ang]:                  0.208842
    Hole size [Ang]:                      1.698986
      Cartesian components [Ang]:       [  0.771731,   0.807492,   1.280212]
    Electron size [Ang]:                  2.878174
      Cartesian components [Ang]:       [  1.717716,   1.371066,   1.858365]
    RMS electron-hole separation [Ang]:   3.284236
      Cartesian components [Ang]:       [  1.875994,   1.587793,   2.178478]
    Covariance(r_h, r_e) [Ang^2]:         0.213927
    Correlation coefficient:              0.043748
    Center-of-mass size [Ang]:            1.702814
      Cartesian components [Ang]:       [  0.945103,   0.797283,   1.170766]

  Decomposition into state-averaged NTOs
    H- 1 -> L+ 0: -0.5327 ( 56.8%)
    H- 2 -> L+ 6:  0.2350 ( 11.0%)
    H- 1 -> L+ 1:  0.1964 (  7.7%)
    H- 0 -> L+ 4: -0.1670 (  5.6%)
    H- 3 -> L+ 2: -0.1656 (  5.5%)
    H- 0 -> L+ 3: -0.1332 (  3.5%)
                   omega =  90.6%
  ----------------------------------------------------------------------------


  Excited state 9 (singlet, B2)                                    [converged]
  ----------------------------------------------------------------------------
  Term symbol:  9 (1) B2                                    R^2 =  7.38074e-06

  Total energy:                                           -153.6492642575 a.u.
  Excitation energy:                                               8.701073 eV

  Osc. strength:                                                      0.020814
  Trans. dip. moment [a.u.]:           [  -0.000000,    0.312475,   -0.000000]
  <i|r^2|0> [a.u.]:                    [  -0.000000,   -0.000000,   -0.000000]

  Dip. moment [a.u.]:                  [  -0.000000,   -0.000000,   -0.857197]
  Total dipole [Debye]:                                               2.178778
  <r^2> [a.u.]:                        [  62.320525,   22.212804,  205.278597]
  Total <r^2> [a.u.]:                                               289.811926

  V1^2 = 0.8974, V2^2 = 0.1026

  Important amplitudes:
      occ i      occ j       vir a       vir b          v   
    ---------------------------------------------------------
     2 (B2) A              12 (A1) A                 -0.5208
     4 (B1) A               2 (A2) A                 -0.2896
    ---------------------------------------------------------

  Density matrix analysis:
  ------------------------
  NOs
    Occupation of frontier NOs:
       0.7392   1.2179
    Number of electrons: 26.000000
    Number of unpaired electrons: n_u =  2.78343, n_u,nl =  2.25869
    NO participation ratio (PR_NO):  5.925000
  
  
  Mulliken Population Analysis
  Atom      Charge (e)              h+              e-           Del q
  --------------------------------------------------------------------
   1 C       -0.193091        0.061379       -0.038152        0.023226
   2 C       -0.193091        0.061379       -0.038152        0.023226
   3 H       -0.107994       -0.003403       -0.301001       -0.304403
   4 H       -0.107994       -0.003403       -0.301001       -0.304403
   5 H        0.041643        0.012881       -0.004773        0.008108
   6 H        0.041643        0.012881       -0.004773        0.008108
   7 O       -0.624781        1.164070       -0.706285        0.457785
   8 H        0.143667        0.097200       -0.008847        0.088354
  --------------------------------------------------------------------
  Sum:       -1.000000        1.402983       -1.402983        0.000000
  
  Multipole moment analysis of the density matrix
    Molecular charge:                      -1.000000
    Number of electrons:                   26.000000
      Center of electronic charge [Ang]: [  0.000000,   0.000000,   0.017447]
    Total nuclear charge:                  25.000000
      Center of nuclear charge [Ang]:    [  0.000000,   0.000000,  -0.000000]
    Dipole moment [D]:                     2.178777
      Cartesian components [D]:          [ -0.000000,  -0.000000,  -2.178777]
    RMS size of the density [Ang]:         1.766654
      Cartesian components [Ang]:        [  0.819276,   0.489121,   1.486813]
  
  Exciton analysis of the difference density matrix
    <r_h> [Ang]:                  [ -0.000000,  -0.000000,  -1.460462]
    <r_e> [Ang]:                  [ -0.000000,   0.000000,  -0.323354]
    |<r_e - r_h>| [Ang]:            1.137109
    Hole size [Ang]:                1.665024
      Cartesian components [Ang]: [  0.814071,   0.837031,   1.187001]
    Electron size [Ang]:            2.356591
      Cartesian components [Ang]: [  1.344542,   1.048121,   1.627012]

  Transition density matrix analysis:
  -----------------------------------
  
  CT numbers (Mulliken)
    omega =     0.8754
    <Phe> =    -0.0068
  
  Exciton analysis of the transition density matrix
    Trans. dipole moment [D]:             0.397116
      Cartesian components [D]:         [ -0.000000,   0.397116,  -0.000000]
    <r_h> [Ang]:                        [  0.000000,  -0.000000,  -1.561807]
    <r_e> [Ang]:                        [ -0.000000,   0.000000,   0.034254]
    |<r_e - r_h>| [Ang]:                  1.596061
    Hole size [Ang]:                      1.308191
      Cartesian components [Ang]:       [  0.605435,   0.741228,   0.891849]
    Electron size [Ang]:                  2.451415
      Cartesian components [Ang]:       [  1.469525,   1.125957,   1.606908]
    RMS electron-hole separation [Ang]:   3.148767
      Cartesian components [Ang]:       [  1.585657,   1.347714,   2.363068]
    Covariance(r_h, r_e) [Ang^2]:         0.176739
    Correlation coefficient:              0.055112
    Center-of-mass size [Ang]:            1.420764
      Cartesian components [Ang]:       [  0.796524,   0.674178,   0.964160]

  Decomposition into state-averaged NTOs
    H- 0 -> L+ 4:  0.4673 ( 43.7%)
    H- 0 -> L+ 3:  0.3255 ( 21.2%)
    H- 2 -> L+ 6:  0.2904 ( 16.9%)
    H- 3 -> L+ 2: -0.1493 (  4.5%)
                   omega =  87.5%
  ----------------------------------------------------------------------------


  Excited state 10 (singlet, B2)                                    [converged]
  ----------------------------------------------------------------------------
  Term symbol:  10 (1) B2                                   R^2 =  8.76220e-06

  Total energy:                                           -153.6423651914 a.u.
  Excitation energy:                                               8.888806 eV

  Osc. strength:                                                      0.004060
  Trans. dip. moment [a.u.]:           [  -0.000000,   -0.136536,    0.000000]
  <i|r^2|0> [a.u.]:                    [   0.000000,   -0.000000,    0.000000]

  Dip. moment [a.u.]:                  [   0.000000,    0.000000,   -0.466702]
  Total dipole [Debye]:                                               1.186238
  <r^2> [a.u.]:                        [  61.128649,   25.735062,  205.287295]
  Total <r^2> [a.u.]:                                               292.151006

  V1^2 = 0.9040, V2^2 = 0.0960

  Important amplitudes:
      occ i      occ j       vir a       vir b          v   
    ---------------------------------------------------------
     4 (B1) A               2 (A2) A                  0.4419
     3 (B1) A               1 (A2) A                 -0.4382
    ---------------------------------------------------------

  Density matrix analysis:
  ------------------------
  NOs
    Occupation of frontier NOs:
       0.5760   1.4159
    Number of electrons: 26.000000
    Number of unpaired electrons: n_u =  2.79467, n_u,nl =  2.32633
    NO participation ratio (PR_NO):  7.532380
  
  
  Mulliken Population Analysis
  Atom      Charge (e)              h+              e-           Del q
  --------------------------------------------------------------------
   1 C       -0.539857        0.163969       -0.487509       -0.323540
   2 C       -0.539857        0.163969       -0.487509       -0.323540
   3 H        0.207078        0.043517       -0.032848        0.010669
   4 H        0.207078        0.043517       -0.032848        0.010669
   5 H        0.084447        0.056223       -0.005311        0.050913
   6 H        0.084447        0.056223       -0.005311        0.050913
   7 O       -0.614814        0.709339       -0.241586        0.467752
   8 H        0.111477        0.064832       -0.008668        0.056164
  --------------------------------------------------------------------
  Sum:       -1.000000        1.301590       -1.301590        0.000000
  
  Multipole moment analysis of the density matrix
    Molecular charge:                      -1.000000
    Number of electrons:                   26.000000
      Center of electronic charge [Ang]: [ -0.000000,  -0.000000,   0.009499]
    Total nuclear charge:                  25.000000
      Center of nuclear charge [Ang]:    [  0.000000,   0.000000,  -0.000000]
    Dipole moment [D]:                     1.186238
      Cartesian components [D]:          [  0.000000,   0.000000,  -1.186238]
    RMS size of the density [Ang]:         1.773830
      Cartesian components [Ang]:        [  0.811403,   0.526474,   1.486917]
  
  Exciton analysis of the difference density matrix
    <r_h> [Ang]:                  [  0.000000,  -0.000000,  -0.616272]
    <r_e> [Ang]:                  [ -0.000000,  -0.000000,   0.450657]
    |<r_e - r_h>| [Ang]:            1.066928
    Hole size [Ang]:                1.992088
      Cartesian components [Ang]: [  0.958606,   0.663366,   1.615374]
    Electron size [Ang]:            2.336626
      Cartesian components [Ang]: [  1.377238,   1.275453,   1.391493]

  Transition density matrix analysis:
  -----------------------------------
  
  CT numbers (Mulliken)
    omega =     0.8786
    <Phe> =    -0.0043
  
  Exciton analysis of the transition density matrix
    Trans. dipole moment [D]:             0.173520
      Cartesian components [D]:         [ -0.000000,  -0.173520,   0.000000]
    <r_h> [Ang]:                        [  0.000000,  -0.000000,  -0.397031]
    <r_e> [Ang]:                        [ -0.000000,  -0.000000,   0.979697]
    |<r_e - r_h>| [Ang]:                  1.376728
    Hole size [Ang]:                      1.891699
      Cartesian components [Ang]:       [  0.966663,   0.478386,   1.554102]
    Electron size [Ang]:                  2.259650
      Cartesian components [Ang]:       [  1.505635,   1.393271,   0.947563]
    RMS electron-hole separation [Ang]:   3.233077
      Cartesian components [Ang]:       [  1.773888,   1.472759,   2.266515]
    Covariance(r_h, r_e) [Ang^2]:         0.063568
    Correlation coefficient:              0.014871
    Center-of-mass size [Ang]:            1.484223
      Cartesian components [Ang]:       [  0.902229,   0.736732,   0.919852]

  Decomposition into state-averaged NTOs
    H- 3 -> L+ 2: -0.4629 ( 42.9%)
    H- 2 -> L+ 6: -0.4415 ( 39.0%)
    H- 1 -> L+ 0: -0.1038 (  2.2%)
    H- 0 -> L+ 4:  0.0943 (  1.8%)
                   omega =  87.9%
  ----------------------------------------------------------------------------


--------------------------------------------------------------------------------
  Time of ADC calculation:  CPU 179.17 s  wall 48.39 s
================================================================================
 
 --------------------------------------------------------------
             Orbital Energies (a.u.) and Symmetries
 --------------------------------------------------------------
 
 Alpha MOs, Restricted
 -- Occupied --                  
-20.212 -11.047 -11.045  -0.929  -0.853  -0.597  -0.472  -0.383
  1 A1    2 A1    1 B1    3 A1    4 A1    2 B1    5 A1    6 A1                 
 -0.327  -0.270  -0.193  -0.129  -0.128
  3 B1    7 A1    1 B2    4 B1    2 B2                                         
 -- Virtual --                   
  0.218   0.249   0.296   0.300   0.351   0.367   0.374   0.400
  5 B1    8 A1    1 A2    9 A1   10 A1    3 B2    6 B1   11 A1                 
  0.443   0.454   0.467   0.475   0.508   0.534   0.550   0.578
  4 B2    7 B1    8 B1    2 A2   12 A1   13 A1    9 B1   14 A1                 
  0.682   0.691   0.770   0.936   1.029   1.043   1.097   1.106
 15 A1   10 B1   11 B1   16 A1   17 A1   18 A1   19 A1   12 B1                 
  1.123   1.196   1.201   1.206   1.208   1.285   1.291   1.328
  5 B2    3 A2   20 A1   13 B1    6 B2   14 B1    4 A2   21 A1                 
  1.332   1.332   1.370   1.443   1.470   1.484   1.567   1.650
 15 B1   22 A1    7 B2   16 B1    8 B2    5 A2   17 B1   23 A1                 
  1.714   1.715   1.865   1.922   2.013   2.052   2.117   2.128
  9 B2   18 B1   24 A1   19 B1   25 A1    6 A2   26 A1   10 B2                 
  2.172   2.213   2.225   2.317   2.363   2.394   2.418   2.503
 20 B1   11 B2   27 A1   28 A1    7 A2   12 B2   21 B1   22 B1                 
  2.570   2.605   2.762   2.770   2.854   3.010   3.032   3.097
 29 A1    8 A2   30 A1   23 B1   24 B1   31 A1   32 A1   33 A1                 
  3.452   3.562   3.922   3.946   3.972   4.088   4.545
 25 B1   26 B1   13 B2    9 A2   34 A1   27 B1   35 A1                         
 
 Beta MOs, Restricted
 -- Occupied --                  
-20.212 -11.047 -11.045  -0.929  -0.853  -0.597  -0.472  -0.383
  1 A1    2 A1    1 B1    3 A1    4 A1    2 B1    5 A1    6 A1                 
 -0.327  -0.270  -0.193  -0.129  -0.128
  3 B1    7 A1    1 B2    4 B1    2 B2                                         
 -- Virtual --                   
  0.218   0.249   0.296   0.300   0.351   0.367   0.374   0.400
  5 B1    8 A1    1 A2    9 A1   10 A1    3 B2    6 B1   11 A1                 
  0.443   0.454   0.467   0.475   0.508   0.534   0.550   0.578
  4 B2    7 B1    8 B1    2 A2   12 A1   13 A1    9 B1   14 A1                 
  0.682   0.691   0.770   0.936   1.029   1.043   1.097   1.106
 15 A1   10 B1   11 B1   16 A1   17 A1   18 A1   19 A1   12 B1                 
  1.123   1.196   1.201   1.206   1.208   1.285   1.291   1.328
  5 B2    3 A2   20 A1   13 B1    6 B2   14 B1    4 A2   21 A1                 
  1.332   1.332   1.370   1.443   1.470   1.484   1.567   1.650
 15 B1   22 A1    7 B2   16 B1    8 B2    5 A2   17 B1   23 A1                 
  1.714   1.715   1.865   1.922   2.013   2.052   2.117   2.128
  9 B2   18 B1   24 A1   19 B1   25 A1    6 A2   26 A1   10 B2                 
  2.172   2.213   2.225   2.317   2.363   2.394   2.418   2.503
 20 B1   11 B2   27 A1   28 A1    7 A2   12 B2   21 B1   22 B1                 
  2.570   2.605   2.762   2.770   2.854   3.010   3.032   3.097
 29 A1    8 A2   30 A1   23 B1   24 B1   31 A1   32 A1   33 A1                 
  3.452   3.562   3.922   3.946   3.972   4.088   4.545
 25 B1   26 B1   13 B2    9 A2   34 A1   27 B1   35 A1                         
 --------------------------------------------------------------
 
          Ground-State Mulliken Net Atomic Charges

     Atom                 Charge (a.u.)
  ----------------------------------------
      1 C                    -0.211394
      2 C                    -0.211394
      3 H                     0.189636
      4 H                     0.189636
      5 H                     0.026001
      6 H                     0.026001
      7 O                    -1.080258
      8 H                     0.071772
  ----------------------------------------
  Sum of atomic charges =    -1.000000

 -----------------------------------------------------------------
                    Cartesian Multipole Moments
 -----------------------------------------------------------------
    Charge (ESU x 10^10)
                -4.8032
    Dipole Moment (Debye)
         X      -0.0000      Y       0.0000      Z       5.3145
       Tot       5.3145
    Quadrupole Moments (Debye-Ang)
        XX     -23.5724     XY      -0.0000     YY     -26.2864
        XZ      -0.0000     YZ       0.0000     ZZ     -32.8062
    Octopole Moments (Debye-Ang^2)
       XXX      -0.0000    XXY       0.0000    XYY      -0.0000
       YYY       0.0000    XXZ       1.1722    XYZ      -0.0000
       YYZ       0.2435    XZZ      -0.0000    YZZ       0.0000
       ZZZ       6.7331
    Hexadecapole Moments (Debye-Ang^3)
      XXXX     -86.8342   XXXY      -0.0000   XXYY     -21.0301
      XYYY      -0.0000   YYYY     -36.8725   XXXZ      -0.0000
      XXYZ       0.0000   XYYZ      -0.0000   YYYZ       0.0000
      XXZZ     -70.0038   XYZZ      -0.0000   YYZZ     -64.4355
      XZZZ      -0.0000   YZZZ      -0.0000   ZZZZ    -291.4732
 -----------------------------------------------------------------
 Total job time:  157.53s(wall), 227.38s(cpu) 
 Fri Mar  4 19:41:09 2022

        *************************************************************
        *                                                           *
        *  Thank you very much for using Q-Chem.  Have a nice day.  *
        *                                                           *
        *************************************************************


