/src/tsommerfeld/qchem/exe/qcprog.exe .input1.824242.16190.qcin.1 /src/jdavis/qchem.scratch/qchem16190/

                  Welcome to Q-Chem
     A Quantum Leap Into The Future Of Chemistry


 Q-Chem 5.4 (devel), Q-Chem, Inc., Pleasanton, CA (2021)

 E. Epifanovsky,  A. T. B. Gilbert,  Xintian Feng,  Joonho Lee,  Yuezhi Mao,  
 N. Mardirossian,  P. Pokhilko,  A. White,  M. Wormit,  M. P. Coons,  
 A. L. Dempwolff,  Zhengting Gan,  D. Hait,  P. R. Horn,  L. D. Jacobson,  
 I. Kaliman,  J. Kussmann,  A. W. Lange,  Ka Un Lao,  D. S. Levine,  Jie Liu,  
 S. C. McKenzie,  A. F. Morrison,  K. Nanda,  F. Plasser,  D. R. Rehn,  
 M. L. Vidal,  Zhi-Qiang You,  Ying Zhu,  B. Alam,  B. Albrecht,  
 A. Aldossary,  E. Alguire,  J. H. Andersen,  D. Barton,  K. Begam,  A. Behn,  
 Y. A. Bernard,  E. J. Berquist,  H. Burton,  A. Carreras,  K. Carter-Fenk,  
 R. Chakraborty,  A. D. Chien,  K. D. Closser,  V. Cofer-Shabica,  
 S. Dasgupta,  Jia Deng,  M. de Wergifosse,  M. Diedenhofen,  Hainam Do,  
 S. Ehlert,  Po-Tung Fang,  S. Fatehi,  Qingguo Feng,  T. Friedhoff,  
 J. Gayvert,  Qinghui Ge,  G. Gidofalvi,  M. Goldey,  J. Gomes,  
 C. Gonzalez-Espinoza,  S. Gulania,  A. Gunina,  M. W. D. Hanson-Heine,  
 P. H. P. Harbach,  A. W. Hauser,  M. F. Herbst,  M. Hernandez Vera,  
 M. Hodecker,  Z. C. Holden,  S. Houck,  Xunkun Huang,  Kerwin Hui,  
 B. C. Huynh,  M. Ivanov,  Hyunjun Ji,  Hanjie Jiang,  B. Kaduk,  S. Kaehler,  
 K. Khistyaev,  Jaehoon Kim,  P. Klunzinger,  Z. Koczor-Benda,  
 Joong Hoon Koh,  D. Kosenkov,  L. Koulias,  T. Kowalczyk,  C. M. Krauter,  
 K. Kue,  A. Kunitsa,  T. Kus,  A. Landau,  K. V. Lawler,  D. Lefrancois,  
 S. Lehtola,  Rain Li,  Yi-Pei Li,  Jiashu Liang,  M. Liebenthal,  
 Hung-Hsuan Lin,  You-Sheng Lin,  Fenglai Liu,  Kuan-Yu Liu,  
 M. Loipersberger,  A. Luenser,  A. Manjanath,  P. Manohar,  E. Mansoor,  
 S. F. Manzer,  Shan-Ping Mao,  A. V. Marenich,  T. Markovich,  S. Mason,  
 S. A. Maurer,  P. F. McLaughlin,  M. F. S. J. Menger,  J.-M. Mewes,  
 S. A. Mewes,  P. Morgante,  J. W. Mullinax,  K. J. Oosterbaan,  G. Paran,  
 Alexander C. Paul,  Suranjan K. Paul,  F. Pavosevic,  Zheng Pei,  S. Prager,  
 E. I. Proynov,  E. Ramos,  B. Rana,  A. E. Rask,  A. Rettig,  R. M. Richard,  
 F. Rob,  E. Rossomme,  T. Scheele,  M. Scheurer,  M. Schneider,  
 N. Sergueev,  S. M. Sharada,  W. Skomorowski,  D. W. Small,  C. J. Stein,  
 Yu-Chuan Su,  E. J. Sundstrom,  Zhen Tao,  J. Thirman,  T. Tsuchimochi,  
 N. M. Tubman,  S. P. Veccham,  O. Vydrov,  J. Wenzel,  J. Witte,  A. Yamada,  
 Kun Yao,  S. Yeganeh,  S. R. Yost,  A. Zech,  Igor Ying Zhang,  Xing Zhang,  
 Yu Zhang,  D. Zuev,  A. Aspuru-Guzik,  A. T. Bell,  N. A. Besley,  
 K. B. Bravaya,  B. R. Brooks,  D. Casanova,  Jeng-Da Chai,  S. Coriani,  
 C. J. Cramer,  A. E. DePrince, III,  R. A. DiStasio Jr.,  A. Dreuw,  
 B. D. Dunietz,  T. R. Furlani,  W. A. Goddard III,  S. Grimme,  
 S. Hammes-Schiffer,  T. Head-Gordon,  W. J. Hehre,  Chao-Ping Hsu,  
 T.-C. Jagau,  Yousung Jung,  A. Klamt,  Jing Kong,  D. S. Lambrecht,  
 WanZhen Liang,  N. J. Mayhall,  C. W. McCurdy,  J. B. Neaton,  
 C. Ochsenfeld,  J. A. Parkhill,  R. Peverati,  V. A. Rassolov,  Yihan Shao,  
 L. V. Slipchenko,  T. Stauch,  R. P. Steele,  J. E. Subotnik,  
 A. J. W. Thom,  A. Tkatchenko,  D. G. Truhlar,  T. Van Voorhis,  
 T. A. Wesolowski,  K. B. Whaley,  H. L. Woodcock III,  P. M. Zimmerman,  
 S. Faraji,  P. M. W. Gill,  M. Head-Gordon,  J. M. Herbert,  A. I. Krylov

 Additional authors for Version 5.4.1: 
 S. Kotaru,  Shaozhi Li,  Xiangyuan Li,  F. Matz,  A. Molle,  Haisheng Ren,  
 Yingli Su,  Hung-Yi Tsai,  C. Utku,  Fang Wang

 Contributors to earlier versions of Q-Chem not listed above: 
 R. D. Adamson,  B. Austin,  R. Baer,  J. Baker,  G. J. O. Beran,  
 K. Brandhorst,  S. T. Brown,  E. F. C. Byrd,  A. K. Chakraborty,  
 G. K. L. Chan,  Chun-Min Chang,  Yunqing Chen,  C.-L. Cheng,  
 Siu Hung Chien,  D. M. Chipman,  D. L. Crittenden,  H. Dachsel,  
 R. J. Doerksen,  A. D. Dutoi,  R. G. Edgar,  J. Fosso-Tande,  
 L. Fusti-Molnar,  D. Ghosh,  A. Ghysels,  A. Golubeva-Zadorozhnaya,  
 J. Gonthier,  M. S. Gordon,  S. R. Gwaltney,  G. Hawkins,  J. E. Herr,  
 A. Heyden,  S. Hirata,  E. G. Hohenstein,  G. Kedziora,  F. J. Keil,  
 C. Kelley,  Jihan Kim,  R. A. King,  R. Z. Khaliullin,  P. P. Korambath,  
 W. Kurlancheek,  A. Laurent,  A. M. Lee,  M. S. Lee,  S. V. Levchenko,  
 Ching Yeh Lin,  D. Liotard,  E. Livshits,  R. C. Lochan,  I. Lotan,  
 L. A. Martinez-Martinez,  P. E. Maslen,  N. Nair,  D. P. O'Neill,  
 D. Neuhauser,  E. Neuscamman,  C. M. Oana,  R. Olivares-Amaya,  R. Olson,  
 T. M. Perrine,  B. Peters,  P. A. Pieniazek,  A. Prociuk,  Y. M. Rhee,  
 J. Ritchie,  M. A. Rohrdanz,  E. Rosta,  N. J. Russ,  H. F. Schaefer III,  
 M. W. Schmidt,  N. E. Schultz,  S. Sharma,  N. Shenvi,  C. D. Sherrill,  
 A. C. Simmonett,  A. Sodt,  T. Stein,  D. Stuck,  K. S. Thanthiriwatte,  
 V. Vanovschi,  L. Vogt,  Tao Wang,  A. Warshel,  M. A. Watson,  
 C. F. Williams,  Q. Wu,  X. Xu,  Jun Yang,  W. Zhang,  Yan Zhao

 Please cite Q-Chem as follows:
 Y. Shao et al., Mol. Phys. 113, 184-215 (2015)
 DOI: 10.1080/00268976.2014.952696

 Q-Chem 5.4.1 for Intel X86 EM64T Linux

 Parts of Q-Chem use Armadillo 9.900.5 (Nocturnal Misbehaviour).
 http://arma.sourceforge.net/

 Q-Chem begins on Fri Mar  4 19:46:34 2022  

 Host: node01
0

     Scratch files written to /src/jdavis/qchem.scratch/qchem16190//
 Processing $rem in /src/tsommerfeld/qchem/config/preferences:
 Processing $rem in /home/jdavis/.qchemrc:

 Checking the input file for inconsistencies... 	...done.

--------------------------------------------------------------
User input:
--------------------------------------------------------------
$molecule
-1 1
C        -0.6645000000    0.0000000000    1.1619088658
C         0.6645000000    0.0000000000    1.1619088658
H        -1.1590800000    0.0000000000    0.1995598658
H         1.1590800000    0.0000000000    0.1995598658
H        -1.1590800000    0.0000000000    2.1242568658
H         1.1590800000    0.0000000000    2.1242568658
O         0.0000000000    0.0000000000   -1.5841414040
H         0.0000000000    0.0000000000   -2.5471307683
$end
$rem
   METHOD adc(2)
   BASIS gen
   PURECART 11
   EE_STATES [0,0,0,10]
   scf_convergence 8
   ADC_DAVIDSON_MAXITER 120
   ADC_DAVIDSON_MAXSUBSPACE 200
   adc_nguess_singles 100
   THRESH 14
   S2THRESH 14
   adc_davidson_conv 5
   adc_davidson_thresh 14
   THREADS 10
   MEM_TOTAL 95000
   STATE_ANALYSIS TRUE
$end
$basis
C 1
S   9   1.00
      6.665000D+03           6.920000D-04
      1.000000D+03           5.329000D-03
      2.280000D+02           2.707700D-02
      6.471000D+01           1.017180D-01
      2.106000D+01           2.747400D-01
      7.495000D+00           4.485640D-01
      2.797000D+00           2.850740D-01
      5.215000D-01           1.520400D-02
      1.596000D-01          -3.191000D-03
S   9   1.00
      6.665000D+03          -1.460000D-04
      1.000000D+03          -1.154000D-03
      2.280000D+02          -5.725000D-03
      6.471000D+01          -2.331200D-02
      2.106000D+01          -6.395500D-02
      7.495000D+00          -1.499810D-01
      2.797000D+00          -1.272620D-01
      5.215000D-01           5.445290D-01
      1.596000D-01           5.804960D-01
S   1   1.00
      1.596000D-01           1.000000D+00
S   1   1.00
      0.0469000              1.0000000
P   4   1.00
      9.439000D+00           3.810900D-02
      2.002000D+00           2.094800D-01
      5.456000D-01           5.085570D-01
      1.517000D-01           4.688420D-01
P   1   1.00
      1.517000D-01           1.000000D+00
P   1   1.00
      0.0790679      1.0000000
D   1   1.00
      5.500000D-01           1.0000000
****
C 2
S   9   1.00
      6.665000D+03           6.920000D-04
      1.000000D+03           5.329000D-03
      2.280000D+02           2.707700D-02
      6.471000D+01           1.017180D-01
      2.106000D+01           2.747400D-01
      7.495000D+00           4.485640D-01
      2.797000D+00           2.850740D-01
      5.215000D-01           1.520400D-02
      1.596000D-01          -3.191000D-03
S   9   1.00
      6.665000D+03          -1.460000D-04
      1.000000D+03          -1.154000D-03
      2.280000D+02          -5.725000D-03
      6.471000D+01          -2.331200D-02
      2.106000D+01          -6.395500D-02
      7.495000D+00          -1.499810D-01
      2.797000D+00          -1.272620D-01
      5.215000D-01           5.445290D-01
      1.596000D-01           5.804960D-01
S   1   1.00
      1.596000D-01           1.000000D+00
S   1   1.00
      0.0469000              1.0000000
P   4   1.00
      9.439000D+00           3.810900D-02
      2.002000D+00           2.094800D-01
      5.456000D-01           5.085570D-01
      1.517000D-01           4.688420D-01
P   1   1.00
      1.517000D-01           1.000000D+00
P   1   1.00
      0.0790679      1.0000000
D   1   1.00
      5.500000D-01           1.0000000
****
H 3
cc-pVDZ
****
H 4
cc-pVDZ
****
H 5
cc-pVDZ
****
H 6
cc-pVDZ
****
O 7
aug-cc-pVDZ
****
H 8
cc-pVDZ
****
$end
--------------------------------------------------------------
 ----------------------------------------------------------------
             Standard Nuclear Orientation (Angstroms)
    I     Atom           X                Y                Z
 ----------------------------------------------------------------
    1      C      -0.6645000000    -0.0000000000     1.0270977517
    2      C       0.6645000000     0.0000000000     1.0270977517
    3      H      -1.1590800000    -0.0000000000     0.0647487517
    4      H       1.1590800000     0.0000000000     0.0647487517
    5      H      -1.1590800000    -0.0000000000     1.9894457517
    6      H       1.1590800000     0.0000000000     1.9894457517
    7      O       0.0000000000    -0.0000000000    -1.7189525181
    8      H       0.0000000000    -0.0000000000    -2.6819418824
 ----------------------------------------------------------------
 Molecular Point Group                 C2v   NOp =  4
 Largest Abelian Subgroup              C2v   NOp =  4
 Nuclear Repulsion Energy =          64.38561153 hartrees
 There are       13 alpha and       13 beta electrons
 Requested basis set is non-standard
 There are 40 shells and 84 basis functions
 Total memory of 95000 MB is distributed as follows: 
   MEM_STATIC is set to 192 MB
   QALLOC/CCMAN JOB total memory use is  94808 MB
 Warning: actual memory use might exceed 95000 MB

 Total QAlloc Memory Limit  95000 MB
 Mega-Array Size       188 MB
 MEM_STATIC part       192 MB

                       Distance Matrix (Angstroms)
             C (  1)   C (  2)   H (  3)   H (  4)   H (  5)   H (  6)
   C (  2)  1.329000
   H (  3)  1.082000  2.061931
   H (  4)  2.061931  1.082000  2.318160
   H (  5)  1.082000  2.061931  1.924697  3.013026
   H (  6)  2.061931  1.082000  3.013026  1.924697  2.318160
   O (  7)  2.825306  2.825306  2.127218  2.127218  3.885316  3.885316
   H (  8)  3.768094  3.768094  2.981237  2.981237  4.813037  4.813037
             O (  7)
   H (  8)  0.962989
 
 A cutoff of  1.0D-14 yielded    820 shell pairs
 There are      3652 function pairs (      4018 Cartesian)
 Smallest overlap matrix eigenvalue = 1.54E-03

 Scale SEOQF with 1.000000e-01/1.000000e-01/1.000000e-01

 Standard Electronic Orientation quadrupole field applied
 Nucleus-field energy     =    -0.0000000051 hartrees
 ================ Generating on-the-fly SAD Guess ================
Attempting to make child job directory: /src/jdavis/qchem.scratch/qchem16190//Frg1/
Attempting to make child job directory: /src/jdavis/qchem.scratch/qchem16190//Frg2/
Attempting to make child job directory: /src/jdavis/qchem.scratch/qchem16190//Frg3/
Creating input file /src/jdavis/qchem.scratch/qchem16190/Frg1.input
using default PutDataFrgm: nothing
calling putenv with: QCSCRATCH=/src/jdavis/qchem.scratch/qchem16190/ 
Spawning Job For Fragment 0
Done Job For Fragment 0
calling putenv with: QCSCRATCH=/src/jdavis/qchem.scratch 
calling putenv with: QCTHREADS=1 
Creating input file /src/jdavis/qchem.scratch/qchem16190/Frg2.input
using default PutDataFrgm: nothing
calling putenv with: QCSCRATCH=/src/jdavis/qchem.scratch/qchem16190/ 
Spawning Job For Fragment 1
Done Job For Fragment 1
calling putenv with: QCSCRATCH=/src/jdavis/qchem.scratch 
calling putenv with: QCTHREADS=1 
Creating input file /src/jdavis/qchem.scratch/qchem16190/Frg3.input
using default PutDataFrgm: nothing
calling putenv with: QCSCRATCH=/src/jdavis/qchem.scratch/qchem16190/ 
Spawning Job For Fragment 2
Done Job For Fragment 2
calling putenv with: QCSCRATCH=/src/jdavis/qchem.scratch 
calling putenv with: QCTHREADS=1 
 Time for running child jobs:  CPU 1.77 s  wall 80.82 s
 ============= Method Specific SAD Guess Constructed =============
 Guess from on-the-fly superposition of atomic densities
 Warning: Energy on first SCF cycle will be non-variational
 A restricted Hartree-Fock SCF calculation will be
 performed using Pulay DIIS extrapolation
 SCF converges when DIIS error is below 1.0E-08
 using 10 threads for integral computing
 -------------------------------------------------------
 OpenMP Integral computing Module                
 Release: version 1.0, May 2013, Q-Chem Inc. Pittsburgh 
 -------------------------------------------------------
 ---------------------------------------
  Cycle       Energy         DIIS Error
 ---------------------------------------
    1    -153.5719178735      6.41E-02
    2    -153.2890585412      1.31E-02
    3    -153.3560211793      1.09E-02
    4    -153.4393207507      7.98E-04
    5    -153.4402145137      2.24E-04
    6    -153.4402825828      4.62E-05
    7    -153.4402869584      1.18E-05
    8    -153.4402873677      3.42E-06
    9    -153.4402874021      7.50E-07
   10    -153.4402874035      1.46E-07
   11    -153.4402874036      4.11E-08
   12    -153.4402874036      1.05E-08
   13    -153.4402874036      2.10E-09 Convergence criterion met
 ---------------------------------------
 SCF time:  CPU 14.47 s  wall 1.45 s
 SCF   energy in the final basis set = -153.44028740
 Total energy in the final basis set = -153.44028740
================================================================================
|                                                                              |
|                                 A D C  M A N                                 |
|                                                                              |
 ------------------------------------------------------------------------------ 
|                                                                              |
| Components:                                                                  |
|                                                                              |
| - libvmm - 1.3-trunk                                                         |
|   Authors:                                                                   |
|   Evgeny Epifanovsky, Ilya Kaliman                                           |
|                                                                              |
| - libtensor - 2.5-trunk                                                      |
|   Authors:                                                                   |
|   Evgeny Epifanovsky, Michael Wormit, Dmitry Zuev, Sam Manzer,               |
|   Ilya Kaliman                                                               |
|                                                                              |
| - libwfa - 1.1-trunk                                                         |
|   Authors:                                                                   |
|   Felix Plasser, Stefanie Mewes (Baeppler), Benjamin Thomitzni,              |
|   Michael Wormit, Feng Chen, Anna I. Krylov, Pavel Pokhilko                  |
|                                                                              |
| - libadc - 1.1-trunk                                                         |
|   Authors:                                                                   |
|   Michael Wormit, Adrian L. Dempwolff, Philipp H. P. Harbach,                |
|   Caroline Krauter, Dirk Rehn, Matthias Schneider, Jan Wenzel                |
|                                                                              |
| - adcman - 2.6-trunk                                                         |
|   Authors:                                                                   |
|   Michael Wormit, Adrian L. Dempwolff, Philipp H. P. Harbach,                |
|   Caroline Krauter, Daniel Lefrancois, Jan-Michael Mewes, Dirk Rehn,         |
|   Matthias Schneider, Jan Wenzel, Andreas Dreuw                              |
|                                                                              |
| Authors of earlier versions of ADCMAN:                                       |
| Andreas Dreuw, Jan Hendrik Starcke, Dirk Rehn, Michael Wormit                |
|                                                                              |
================================================================================

 
 Alpha MOs, Restricted
 -- Occupied --                  
-20.212 -11.047 -11.045  -0.929  -0.853  -0.597  -0.472  -0.383
  1 A1    2 A1    1 B1    3 A1    4 A1    2 B1    5 A1    6 A1                 
 -0.327  -0.270  -0.193  -0.129  -0.128
  3 B1    7 A1    1 B2    4 B1    2 B2                                         
 -- Virtual --                   
  0.221   0.252   0.301   0.304   0.361   0.380   0.392   0.408
  5 B1    8 A1    1 A2    9 A1   10 A1    3 B2    6 B1   11 A1                 
  0.443   0.458   0.478   0.490   0.505   0.543   0.553   0.579
  4 B2    7 B1    8 B1    2 A2   12 A1   13 A1    9 B1   14 A1                 
  0.690   0.698   0.773   0.949   1.022   1.060   1.103   1.106
 15 A1   10 B1   11 B1   16 A1   17 A1   18 A1   12 B1   19 A1                 
  1.144   1.191   1.202   1.211   1.219   1.291   1.294   1.330
  5 B2   13 B1   20 A1    6 B2    3 A2    4 A2   14 B1   21 A1                 
  1.332   1.335   1.370   1.451   1.471   1.484   1.582   1.653
 22 A1   15 B1    7 B2   16 B1    8 B2    5 A2   17 B1   23 A1                 
  1.713   1.726   1.868   1.922   2.022   2.055   2.112   2.129
  9 B2   18 B1   24 A1   19 B1   25 A1    6 A2   26 A1   10 B2                 
  2.178   2.213   2.234   2.321   2.364   2.394   2.419   2.503
 20 B1   11 B2   27 A1   28 A1    7 A2   12 B2   21 B1   22 B1                 
  2.573   2.605   2.762   2.769   2.854   3.015   3.033   3.100
 29 A1    8 A2   30 A1   23 B1   24 B1   31 A1   32 A1   33 A1                 
  3.458   3.563   3.923   3.946   3.972   4.088   4.546
 25 B1   26 B1   13 B2    9 A2   34 A1   27 B1   35 A1                         
 
 Beta MOs, Restricted
 -- Occupied --                  
-20.212 -11.047 -11.045  -0.929  -0.853  -0.597  -0.472  -0.383
  1 A1    2 A1    1 B1    3 A1    4 A1    2 B1    5 A1    6 A1                 
 -0.327  -0.270  -0.193  -0.129  -0.128
  3 B1    7 A1    1 B2    4 B1    2 B2                                         
 -- Virtual --                   
  0.221   0.252   0.301   0.304   0.361   0.380   0.392   0.408
  5 B1    8 A1    1 A2    9 A1   10 A1    3 B2    6 B1   11 A1                 
  0.443   0.458   0.478   0.490   0.505   0.543   0.553   0.579
  4 B2    7 B1    8 B1    2 A2   12 A1   13 A1    9 B1   14 A1                 
  0.690   0.698   0.773   0.949   1.022   1.060   1.103   1.106
 15 A1   10 B1   11 B1   16 A1   17 A1   18 A1   12 B1   19 A1                 
  1.144   1.191   1.202   1.211   1.219   1.291   1.294   1.330
  5 B2   13 B1   20 A1    6 B2    3 A2    4 A2   14 B1   21 A1                 
  1.332   1.335   1.370   1.451   1.471   1.484   1.582   1.653
 22 A1   15 B1    7 B2   16 B1    8 B2    5 A2   17 B1   23 A1                 
  1.713   1.726   1.868   1.922   2.022   2.055   2.112   2.129
  9 B2   18 B1   24 A1   19 B1   25 A1    6 A2   26 A1   10 B2                 
  2.178   2.213   2.234   2.321   2.364   2.394   2.419   2.503
 20 B1   11 B2   27 A1   28 A1    7 A2   12 B2   21 B1   22 B1                 
  2.573   2.605   2.762   2.769   2.854   3.015   3.033   3.100
 29 A1    8 A2   30 A1   23 B1   24 B1   31 A1   32 A1   33 A1                 
  3.458   3.563   3.923   3.946   3.972   4.088   4.546
 25 B1   26 B1   13 B2    9 A2   34 A1   27 B1   35 A1                         

--------------------------------------------------------------------------------
                                   HF Summary                                   
--------------------------------------------------------------------------------
  Energy:                                                 -153.4402874036 a.u.
  Dip. moment [a.u.]:                  [  -0.000000,   -0.000000,    2.092271]
  Total dipole [Debye]:                                               5.318023
  <r^2> [a.u.]:                        [  55.631609,   19.523285,  207.977936]
  Total <r^2> [a.u.]:                                               283.132831
--------------------------------------------------------------------------------

--------------------------------------------------------------------------------
                                 MP(2) Summary                                  
--------------------------------------------------------------------------------
  MP energy contribution:                                   -0.5287652007 a.u.
  Total energy:                                           -153.9690526043 a.u.
  Dip. moment [a.u.]:                  [  -0.000000,   -0.000000,    2.158882]
  Total dipole [Debye]:                                               5.487332
  <r^2> [a.u.]:                        [  56.579628,   20.201001,  209.215669]
  Total <r^2> [a.u.]:                                               285.996298

  Density matrix analysis:
  ------------------------
  NOs
    Occupation of frontier NOs:
       0.0449   1.9357
    Number of electrons: 26.000000
    Number of unpaired electrons: n_u =  0.71573, n_u,nl =  0.08550
    NO participation ratio (PR_NO): 23.004234
  
  
  Mulliken Population Analysis
  Atom      Charge (e)              h+              e-           Del q
  --------------------------------------------------------------------
   1 C       -0.226019        0.090564       -0.095638       -0.005074
   2 C       -0.226019        0.090564       -0.095638       -0.005074
   3 H        0.201374        0.017869       -0.011375        0.006494
   4 H        0.201374        0.017869       -0.011375        0.006494
   5 H        0.038347        0.019502       -0.011832        0.007671
   6 H        0.038347        0.019502       -0.011832        0.007671
   7 O       -1.083152        0.277720       -0.279451       -0.001731
   8 H        0.055747        0.015081       -0.031531       -0.016450
  --------------------------------------------------------------------
  Sum:       -1.000000        0.548673       -0.548673       -0.000000
  
  Multipole moment analysis of the density matrix
    Molecular charge:                      -1.000000
    Number of electrons:                   26.000000
      Center of electronic charge [Ang]: [  0.000000,   0.000000,  -0.043940]
    Total nuclear charge:                  25.000000
      Center of nuclear charge [Ang]:    [  0.000000,   0.000000,  -0.000000]
    Dipole moment [D]:                     5.487331
      Cartesian components [D]:          [ -0.000000,  -0.000000,   5.487331]
    RMS size of the density [Ang]:         1.754521
      Cartesian components [Ang]:        [  0.780629,   0.466445,   1.500463]
  
  Exciton analysis of the difference density matrix
    <r_h> [Ang]:                  [  0.000000,  -0.000000,  -0.474693]
    <r_e> [Ang]:                  [  0.000000,  -0.000000,  -0.538938]
    |<r_e - r_h>| [Ang]:            0.064245
    Hole size [Ang]:                1.915233
      Cartesian components [Ang]: [  0.835260,   0.709102,   1.570870]
    Electron size [Ang]:            2.250430
      Cartesian components [Ang]: [  1.086970,   0.921257,   1.741901]
--------------------------------------------------------------------------------
  Starting Davidson for singlet states of irrep B2 ... 
--------------------------------------------------------------------------------
   It NVec Conv  Avg. Norm  Max. Norm  Conv. states           Remark
--------------------------------------------------------------------------------
       100    0  1.511e-01  5.864e-01  0.2749 n n n n n n n n Guess.
    1  110    0  2.005e-02  9.445e-02  0.1230 n n n n n n n n 
    2  120    0  8.183e-03  5.229e-02  0.1222 n n n n n n n n 
    3  130    0  6.177e-03  5.680e-02  0.1222 n n n n n n n n 
    4  140    0  8.260e-04  7.410e-03  0.1222 n n n n n n n n 
    5  150    3  7.394e-05  6.187e-04  0.1222 y y n n y n n n 
    6  160    7  1.053e-05  8.983e-05  0.1222 y y y y y y n n 
    7  170    9  1.235e-06  1.001e-05  0.1222 y y y y y y y y 
    8  180   10  1.386e-07  1.128e-06  0.1222 y y y y y y y y Converged.
--------------------------------------------------------------------------------
  Davidson Summary: 
 ------------------------------------------------------------
  State  0: excitation energy =   0.1222 a.u.   (converged)
  State  1: excitation energy =   0.1492 a.u.   (converged)
  State  2: excitation energy =   0.1511 a.u.   (converged)
  State  3: excitation energy =   0.2296 a.u.   (converged)
  State  4: excitation energy =   0.2506 a.u.   (converged)
  State  5: excitation energy =   0.2791 a.u.   (converged)
  State  6: excitation energy =   0.3170 a.u.   (converged)
  State  7: excitation energy =   0.3210 a.u.   (converged)
  State  8: excitation energy =   0.3249 a.u.   (converged)
  State  9: excitation energy =   0.3372 a.u.   (converged)
 ------------------------------------------------------------


--------------------------------------------------------------------------------
                   State-averaged natural transition orbitals
--------------------------------------------------------------------------------
--------------------------------------------------------------------------------

--------------------------------------------------------------------------------
                             Excited State Summary
--------------------------------------------------------------------------------
--------------------------------------------------------------------------------

  Excited state 1 (singlet, B2)                                    [converged]
  ----------------------------------------------------------------------------
  Term symbol:  1 (1) B2                                    R^2 =  2.88082e-09

  Total energy:                                           -153.8468756952 a.u.
  Excitation energy:                                               3.324603 eV

  Osc. strength:                                                      0.049247
  Trans. dip. moment [a.u.]:           [   0.000000,    0.777576,    0.000000]
  <i|r^2|0> [a.u.]:                    [  -0.000000,   -0.000000,    0.000000]

  Dip. moment [a.u.]:                  [   0.000000,   -0.000000,    2.459448]
  Total dipole [Debye]:                                               6.251295
  <r^2> [a.u.]:                        [  63.167445,   25.263903,  223.179558]
  Total <r^2> [a.u.]:                                               311.610906

  V1^2 = 0.8930, V2^2 = 0.1070

  Important amplitudes:
      occ i      occ j       vir a       vir b          v   
    ---------------------------------------------------------
     2 (B2) A               9 (A1) A                  0.5069
     2 (B2) A               8 (A1) A                 -0.4157
    ---------------------------------------------------------

  Density matrix analysis:
  ------------------------
  NOs
    Occupation of frontier NOs:
       0.9658   0.9950
    Number of electrons: 26.000000
    Number of unpaired electrons: n_u =  2.72119, n_u,nl =  2.10419
    NO participation ratio (PR_NO):  3.795629
  
  
  Mulliken Population Analysis
  Atom      Charge (e)              h+              e-           Del q
  --------------------------------------------------------------------
   1 C       -0.569156        0.018466       -0.361603       -0.343137
   2 C       -0.569156        0.018466       -0.361603       -0.343137
   3 H        0.168577        0.003903       -0.036700       -0.032797
   4 H        0.168577        0.003903       -0.036700       -0.032797
   5 H        0.030266        0.014241       -0.022321       -0.008080
   6 H        0.030266        0.014241       -0.022321       -0.008080
   7 O       -1.101338        1.277796       -1.295982       -0.018186
   8 H        0.841963        0.182279        0.603936        0.786215
  --------------------------------------------------------------------
  Sum:       -1.000000        1.533295       -1.533295       -0.000000
  
  Multipole moment analysis of the density matrix
    Molecular charge:                      -1.000000
    Number of electrons:                   26.000000
      Center of electronic charge [Ang]: [ -0.000000,   0.000000,  -0.050057]
    Total nuclear charge:                  25.000000
      Center of nuclear charge [Ang]:    [  0.000000,   0.000000,  -0.000000]
    Dipole moment [D]:                     6.251294
      Cartesian components [D]:          [  0.000000,  -0.000000,   6.251294]
    RMS size of the density [Ang]:         1.831296
      Cartesian components [Ang]:        [  0.824824,   0.521633,   1.549584]
  
  Exciton analysis of the difference density matrix
    <r_h> [Ang]:                  [ -0.000000,  -0.000000,  -1.616517]
    <r_e> [Ang]:                  [ -0.000000,  -0.000000,  -1.720250]
    |<r_e - r_h>| [Ang]:            0.103733
    Hole size [Ang]:                1.593982
      Cartesian components [Ang]: [  0.780252,   0.866553,   1.086771]
    Electron size [Ang]:            2.621582
      Cartesian components [Ang]: [  1.346083,   1.294435,   1.839889]

  Transition density matrix analysis:
  -----------------------------------
  
  CT numbers (Mulliken)
    omega =     0.8750
    <Phe> =    -0.0104
  
  Exciton analysis of the transition density matrix
    Trans. dipole moment [D]:             0.988201
      Cartesian components [D]:         [  0.000000,   0.988201,   0.000000]
    <r_h> [Ang]:                        [  0.000000,  -0.000000,  -1.743006]
    <r_e> [Ang]:                        [ -0.000000,  -0.000000,  -1.929986]
    |<r_e - r_h>| [Ang]:                  0.186980
    Hole size [Ang]:                      1.088001
      Cartesian components [Ang]:       [  0.474279,   0.818250,   0.537841]
    Electron size [Ang]:                  3.020435
      Cartesian components [Ang]:       [  1.554432,   1.518571,   2.097786]
    RMS electron-hole separation [Ang]:   3.204645
      Cartesian components [Ang]:       [  1.624600,   1.719969,   2.161512]
    Covariance(r_h, r_e) [Ang^2]:         0.035991
    Correlation coefficient:              0.010952
    Center-of-mass size [Ang]:            1.610804
      Cartesian components [Ang]:       [  0.812877,   0.864998,   1.088897]

  Decomposition into state-averaged NTOs
    H- 0 -> L+ 0:  0.4743 ( 45.0%)
    H- 0 -> L+ 3: -0.3308 ( 21.9%)
    H- 0 -> L+ 4:  0.2742 ( 15.0%)
    H- 0 -> L+ 1:  0.1591 (  5.1%)
                   omega =  87.5%
  ----------------------------------------------------------------------------


  Excited state 2 (singlet, B2)                                    [converged]
  ----------------------------------------------------------------------------
  Term symbol:  2 (1) B2                                    R^2 =  3.04841e-09

  Total energy:                                           -153.8198477140 a.u.
  Excitation energy:                                               4.060072 eV

  Osc. strength:                                                      0.005457
  Trans. dip. moment [a.u.]:           [  -0.000000,   -0.234216,    0.000000]
  <i|r^2|0> [a.u.]:                    [  -0.000000,   -0.000000,    0.000000]

  Dip. moment [a.u.]:                  [  -0.000000,    0.000000,   -1.769682]
  Total dipole [Debye]:                                               4.498085
  <r^2> [a.u.]:                        [  65.135653,   26.324616,  219.308451]
  Total <r^2> [a.u.]:                                               310.768720

  V1^2 = 0.8781, V2^2 = 0.1219

  Important amplitudes:
      occ i      occ j       vir a       vir b          v   
    ---------------------------------------------------------
     2 (B2) A               8 (A1) A                 -0.5019
     2 (B2) A               9 (A1) A                 -0.4040
    ---------------------------------------------------------

  Density matrix analysis:
  ------------------------
  NOs
    Occupation of frontier NOs:
       0.9776   0.9804
    Number of electrons: 26.000000
    Number of unpaired electrons: n_u =  2.76491, n_u,nl =  2.12179
    NO participation ratio (PR_NO):  3.921543
  
  
  Mulliken Population Analysis
  Atom      Charge (e)              h+              e-           Del q
  --------------------------------------------------------------------
   1 C       -0.737762        0.048020       -0.559764       -0.511743
   2 C       -0.737762        0.048020       -0.559764       -0.511743
   3 H        0.206345        0.003171        0.001800        0.004971
   4 H        0.206345        0.003171        0.001800        0.004971
   5 H        0.254502        0.031406        0.184749        0.216155
   6 H        0.254502        0.031406        0.184749        0.216155
   7 O       -0.843923        1.313381       -1.074152        0.239229
   8 H        0.397754        0.152933        0.189073        0.342006
  --------------------------------------------------------------------
  Sum:       -1.000000        1.631507       -1.631507       -0.000000
  
  Multipole moment analysis of the density matrix
    Molecular charge:                      -1.000000
    Number of electrons:                   26.000000
      Center of electronic charge [Ang]: [  0.000000,  -0.000000,   0.036018]
    Total nuclear charge:                  25.000000
      Center of nuclear charge [Ang]:    [  0.000000,   0.000000,  -0.000000]
    Dipole moment [D]:                     4.498084
      Cartesian components [D]:          [ -0.000000,   0.000000,  -4.498084]
    RMS size of the density [Ang]:         1.829148
      Cartesian components [Ang]:        [  0.837575,   0.532470,   1.536466]
  
  Exciton analysis of the difference density matrix
    <r_h> [Ang]:                  [ -0.000000,  -0.000000,  -1.449324]
    <r_e> [Ang]:                  [  0.000000,  -0.000000,  -0.175099]
    |<r_e - r_h>| [Ang]:            1.274225
    Hole size [Ang]:                1.730706
      Cartesian components [Ang]: [  0.811522,   0.851401,   1.269603]
    Electron size [Ang]:            3.052395
      Cartesian components [Ang]: [  1.458460,   1.332640,   2.326817]

  Transition density matrix analysis:
  -----------------------------------
  
  CT numbers (Mulliken)
    omega =     0.8603
    <Phe> =    -0.0025
  
  Exciton analysis of the transition density matrix
    Trans. dipole moment [D]:             0.297659
      Cartesian components [D]:         [ -0.000000,  -0.297659,   0.000000]
    <r_h> [Ang]:                        [ -0.000000,  -0.000000,  -1.732010]
    <r_e> [Ang]:                        [  0.000000,  -0.000000,   0.410141]
    |<r_e - r_h>| [Ang]:                  2.142151
    Hole size [Ang]:                      1.106635
      Cartesian components [Ang]:       [  0.482327,   0.816205,   0.570798]
    Electron size [Ang]:                  3.541430
      Cartesian components [Ang]:       [  1.725649,   1.613455,   2.638299]
    RMS electron-hole separation [Ang]:   4.274640
      Cartesian components [Ang]:       [  1.791076,   1.804318,   3.436427]
    Covariance(r_h, r_e) [Ang^2]:         0.041316
    Correlation coefficient:              0.010542
    Center-of-mass size [Ang]:            1.860712
      Cartesian components [Ang]:       [  0.896250,   0.905993,   1.355789]

  Decomposition into state-averaged NTOs
    H- 0 -> L+ 1:  0.4994 ( 49.9%)
    H- 0 -> L+ 3:  0.3000 ( 18.0%)
    H- 0 -> L+ 4: -0.2378 ( 11.3%)
    H- 0 -> L+ 0:  0.1666 (  5.6%)
    H- 2 -> L+ 2: -0.0745 (  1.1%)
                   omega =  86.0%
  ----------------------------------------------------------------------------


  Excited state 3 (singlet, B2)                                    [converged]
  ----------------------------------------------------------------------------
  Term symbol:  3 (1) B2                                    R^2 =  7.04978e-09

  Total energy:                                           -153.8179175643 a.u.
  Excitation energy:                                               4.112594 eV

  Osc. strength:                                                      0.001139
  Trans. dip. moment [a.u.]:           [   0.000000,    0.106334,    0.000000]
  <i|r^2|0> [a.u.]:                    [   0.000000,    0.000000,    0.000000]

  Dip. moment [a.u.]:                  [  -0.000000,    0.000000,   -2.770501]
  Total dipole [Debye]:                                               7.041913
  <r^2> [a.u.]:                        [  60.689802,   24.017998,  201.499702]
  Total <r^2> [a.u.]:                                               286.207502

  V1^2 = 0.8701, V2^2 = 0.1299

  Important amplitudes:
      occ i      occ j       vir a       vir b          v   
    ---------------------------------------------------------
     4 (B1) A               1 (A2) A                 -0.6430
     4 (B1) A               2 (A2) A                 -0.1217
    ---------------------------------------------------------

  Density matrix analysis:
  ------------------------
  NOs
    Occupation of frontier NOs:
       0.9791   0.9843
    Number of electrons: 26.000000
    Number of unpaired electrons: n_u =  2.73941, n_u,nl =  2.10734
    NO participation ratio (PR_NO):  3.836447
  
  
  Mulliken Population Analysis
  Atom      Charge (e)              h+              e-           Del q
  --------------------------------------------------------------------
   1 C       -0.633783        0.114788       -0.522552       -0.407764
   2 C       -0.633783        0.114788       -0.522552       -0.407764
   3 H        0.125622        0.005748       -0.081500       -0.075752
   4 H        0.125622        0.005748       -0.081500       -0.075752
   5 H        0.026311        0.009444       -0.021480       -0.012036
   6 H        0.026311        0.009444       -0.021480       -0.012036
   7 O       -0.185501        1.335380       -0.437730        0.897650
   8 H        0.149201        0.112795       -0.019342        0.093454
  --------------------------------------------------------------------
  Sum:       -1.000000        1.708135       -1.708135       -0.000000
  
  Multipole moment analysis of the density matrix
    Molecular charge:                      -1.000000
    Number of electrons:                   26.000000
      Center of electronic charge [Ang]: [  0.000000,  -0.000000,   0.056388]
    Total nuclear charge:                  25.000000
      Center of nuclear charge [Ang]:    [  0.000000,   0.000000,  -0.000000]
    Dipole moment [D]:                     7.041911
      Cartesian components [D]:          [ -0.000000,   0.000000,  -7.041911]
    RMS size of the density [Ang]:         1.754813
      Cartesian components [Ang]:        [  0.808486,   0.508608,   1.472086]
  
  Exciton analysis of the difference density matrix
    <r_h> [Ang]:                  [ -0.000000,  -0.000000,  -1.314585]
    <r_e> [Ang]:                  [  0.000000,  -0.000000,   0.212530]
    |<r_e - r_h>| [Ang]:            1.527114
    Hole size [Ang]:                1.738295
      Cartesian components [Ang]: [  0.889364,   0.725377,   1.305575]
    Electron size [Ang]:            2.176983
      Cartesian components [Ang]: [  1.210282,   1.073277,   1.456897]

  Transition density matrix analysis:
  -----------------------------------
  
  CT numbers (Mulliken)
    omega =     0.8418
    <Phe> =    -0.0009
  
  Exciton analysis of the transition density matrix
    Trans. dipole moment [D]:             0.135137
      Cartesian components [D]:         [  0.000000,   0.135137,   0.000000]
    <r_h> [Ang]:                        [ -0.000000,  -0.000000,  -1.683722]
    <r_e> [Ang]:                        [  0.000000,  -0.000000,   1.024761]
    |<r_e - r_h>| [Ang]:                  2.708483
    Hole size [Ang]:                      1.179941
      Cartesian components [Ang]:       [  0.813987,   0.471822,   0.712088]
    Electron size [Ang]:                  1.988143
      Cartesian components [Ang]:       [  1.359758,   1.228806,   0.770590]
    RMS electron-hole separation [Ang]:   3.558424
      Cartesian components [Ang]:       [  1.579931,   1.315936,   2.904223]
    Covariance(r_h, r_e) [Ang^2]:         0.009236
    Correlation coefficient:              0.003937
    Center-of-mass size [Ang]:            1.157956
      Cartesian components [Ang]:       [  0.794803,   0.658307,   0.525148]

  Decomposition into state-averaged NTOs
    H- 2 -> L+ 2: -0.6376 ( 81.3%)
    H- 2 -> L+ 6:  0.0905 (  1.6%)
                   omega =  84.2%
  ----------------------------------------------------------------------------


  Excited state 4 (singlet, B2)                                    [converged]
  ----------------------------------------------------------------------------
  Term symbol:  4 (1) B2                                    R^2 =  1.47294e-08

  Total energy:                                           -153.7394053316 a.u.
  Excitation energy:                                               6.249020 eV

  Osc. strength:                                                      0.012087
  Trans. dip. moment [a.u.]:           [   0.000000,    0.280979,    0.000000]
  <i|r^2|0> [a.u.]:                    [   0.000000,    0.000000,   -0.000000]

  Dip. moment [a.u.]:                  [   0.000000,    0.000000,   -3.332796]
  Total dipole [Debye]:                                               8.471125
  <r^2> [a.u.]:                        [  63.207436,   21.749931,  213.785879]
  Total <r^2> [a.u.]:                                               298.743247

  V1^2 = 0.8752, V2^2 = 0.1248

  Important amplitudes:
      occ i      occ j       vir a       vir b          v   
    ---------------------------------------------------------
     2 (B2) A              10 (A1) A                  0.6260
     2 (B2) A              11 (A1) A                 -0.1255
    ---------------------------------------------------------

  Density matrix analysis:
  ------------------------
  NOs
    Occupation of frontier NOs:
       0.9708   0.9847
    Number of electrons: 26.000000
    Number of unpaired electrons: n_u =  2.75579, n_u,nl =  2.11650
    NO participation ratio (PR_NO):  3.907996
  
  
  Mulliken Population Analysis
  Atom      Charge (e)              h+              e-           Del q
  --------------------------------------------------------------------
   1 C       -0.601504        0.059416       -0.434901       -0.375485
   2 C       -0.601504        0.059416       -0.434901       -0.375485
   3 H        0.215644        0.006604        0.007666        0.014270
   4 H        0.215644        0.006604        0.007666        0.014270
   5 H       -0.060347        0.032894       -0.131589       -0.098694
   6 H       -0.060347        0.032894       -0.131589       -0.098694
   7 O       -0.238455        1.341276       -0.496579        0.844697
   8 H        0.130869        0.116517       -0.041395        0.075122
  --------------------------------------------------------------------
  Sum:       -1.000000        1.655622       -1.655622        0.000000
  
  Multipole moment analysis of the density matrix
    Molecular charge:                      -1.000000
    Number of electrons:                   26.000000
      Center of electronic charge [Ang]: [ -0.000000,  -0.000000,   0.067832]
    Total nuclear charge:                  25.000000
      Center of nuclear charge [Ang]:    [  0.000000,   0.000000,  -0.000000]
    Dipole moment [D]:                     8.471123
      Cartesian components [D]:          [  0.000000,   0.000000,  -8.471123]
    RMS size of the density [Ang]:         1.792474
      Cartesian components [Ang]:        [  0.825085,   0.483998,   1.515897]
  
  Exciton analysis of the difference density matrix
    <r_h> [Ang]:                  [ -0.000000,  -0.000000,  -1.379979]
    <r_e> [Ang]:                  [ -0.000000,  -0.000000,   0.375295]
    |<r_e - r_h>| [Ang]:            1.755274
    Hole size [Ang]:                1.752537
      Cartesian components [Ang]: [  0.790388,   0.835641,   1.322262]
    Electron size [Ang]:            2.644026
      Cartesian components [Ang]: [  1.321260,   0.979938,   2.069992]

  Transition density matrix analysis:
  -----------------------------------
  
  CT numbers (Mulliken)
    omega =     0.8567
    <Phe> =    -0.0013
  
  Exciton analysis of the transition density matrix
    Trans. dipole moment [D]:             0.357089
      Cartesian components [D]:         [  0.000000,   0.357089,   0.000000]
    <r_h> [Ang]:                        [  0.000000,  -0.000000,  -1.688678]
    <r_e> [Ang]:                        [ -0.000000,  -0.000000,   1.344473]
    |<r_e - r_h>| [Ang]:                  3.033151
    Hole size [Ang]:                      1.162388
      Cartesian components [Ang]:       [  0.480862,   0.818815,   0.670418]
    Electron size [Ang]:                  2.706012
      Cartesian components [Ang]:       [  1.542591,   1.138213,   1.909813]
    RMS electron-hole separation [Ang]:   4.209149
      Cartesian components [Ang]:       [  1.615147,   1.400590,   3.625821]
    Covariance(r_h, r_e) [Ang^2]:         0.078362
    Correlation coefficient:              0.024913
    Center-of-mass size [Ang]:            1.485797
      Cartesian components [Ang]:       [  0.808228,   0.701840,   1.030427]

  Decomposition into state-averaged NTOs
    H- 0 -> L+ 0:  0.4179 ( 34.9%)
    H- 0 -> L+ 1: -0.3755 ( 28.2%)
    H- 0 -> L+ 3:  0.2818 ( 15.9%)
    H- 0 -> L+ 4: -0.1610 (  5.2%)
                   omega =  85.7%
  ----------------------------------------------------------------------------


  Excited state 5 (singlet, B2)                                    [converged]
  ----------------------------------------------------------------------------
  Term symbol:  5 (1) B2                                    R^2 =  2.88180e-09

  Total energy:                                           -153.7184189443 a.u.
  Excitation energy:                                               6.820089 eV

  Osc. strength:                                                      0.119536
  Trans. dip. moment [a.u.]:           [   0.000000,   -0.845815,    0.000000]
  <i|r^2|0> [a.u.]:                    [   0.000000,    0.000000,   -0.000000]

  Dip. moment [a.u.]:                  [   0.000000,   -0.000000,    0.341617]
  Total dipole [Debye]:                                               0.868303
  <r^2> [a.u.]:                        [  62.886398,   26.286085,  221.642417]
  Total <r^2> [a.u.]:                                               310.814901

  V1^2 = 0.9480, V2^2 = 0.0520

  Important amplitudes:
      occ i      occ j       vir a       vir b          v   
    ---------------------------------------------------------
     1 (B2) A               8 (A1) A                  0.6621
     1 (B2) A              10 (A1) A                  0.1286
    ---------------------------------------------------------

  Density matrix analysis:
  ------------------------
  NOs
    Occupation of frontier NOs:
       0.9850   0.9894
    Number of electrons: 26.000000
    Number of unpaired electrons: n_u =  2.62236, n_u,nl =  2.06945
    NO participation ratio (PR_NO):  3.495797
  
  
  Mulliken Population Analysis
  Atom      Charge (e)              h+              e-           Del q
  --------------------------------------------------------------------
   1 C       -0.501443        0.520304       -0.795729       -0.275425
   2 C       -0.501443        0.520304       -0.795729       -0.275425
   3 H        0.267347        0.047160        0.018813        0.065973
   4 H        0.267347        0.047160        0.018813        0.065973
   5 H        0.245669        0.108126        0.099197        0.207322
   6 H        0.245669        0.108126        0.099197        0.207322
   7 O       -1.094114        0.051931       -0.062893       -0.010962
   8 H        0.070967        0.017286       -0.002067        0.015220
  --------------------------------------------------------------------
  Sum:       -1.000000        1.420397       -1.420397       -0.000000
  
  Multipole moment analysis of the density matrix
    Molecular charge:                      -1.000000
    Number of electrons:                   26.000000
      Center of electronic charge [Ang]: [ -0.000000,   0.000000,  -0.006953]
    Total nuclear charge:                  25.000000
      Center of nuclear charge [Ang]:    [  0.000000,   0.000000,  -0.000000]
    Dipole moment [D]:                     0.868303
      Cartesian components [D]:          [  0.000000,  -0.000000,   0.868303]
    RMS size of the density [Ang]:         1.829626
      Cartesian components [Ang]:        [  0.822987,   0.532081,   1.545029]
  
  Exciton analysis of the difference density matrix
    <r_h> [Ang]:                  [  0.000000,  -0.000000,   0.921135]
    <r_e> [Ang]:                  [ -0.000000,   0.000000,   1.598168]
    |<r_e - r_h>| [Ang]:            0.677033
    Hole size [Ang]:                1.719996
      Cartesian components [Ang]: [  1.002393,   0.887249,   1.079993]
    Electron size [Ang]:            2.479047
      Cartesian components [Ang]: [  1.499387,   1.409565,   1.382260]

  Transition density matrix analysis:
  -----------------------------------
  
  CT numbers (Mulliken)
    omega =     0.9166
    <Phe> =    -0.0130
  
  Exciton analysis of the transition density matrix
    Trans. dipole moment [D]:             1.074924
      Cartesian components [D]:         [  0.000000,  -1.074924,   0.000000]
    <r_h> [Ang]:                        [  0.000000,  -0.000000,   0.982106]
    <r_e> [Ang]:                        [ -0.000000,   0.000000,   1.991249]
    |<r_e - r_h>| [Ang]:                  1.009144
    Hole size [Ang]:                      1.319635
      Cartesian components [Ang]:       [  0.756640,   0.876098,   0.633548]
    Electron size [Ang]:                  2.681982
      Cartesian components [Ang]:       [  1.685920,   1.634198,   1.296185]
    RMS electron-hole separation [Ang]:   3.148772
      Cartesian components [Ang]:       [  1.840224,   1.843135,   1.769520]
    Covariance(r_h, r_e) [Ang^2]:         0.019032
    Correlation coefficient:              0.005378
    Center-of-mass size [Ang]:            1.497709
      Cartesian components [Ang]:       [  0.927798,   0.932625,   0.715914]

  Decomposition into state-averaged NTOs
    H- 1 -> L+ 1: -0.6089 ( 74.1%)
    H- 1 -> L+ 0: -0.2887 ( 16.7%)
                   omega =  91.7%
  ----------------------------------------------------------------------------


  Excited state 6 (singlet, B2)                                    [converged]
  ----------------------------------------------------------------------------
  Term symbol:  6 (1) B2                                    R^2 =  1.24900e-07

  Total energy:                                           -153.6899885079 a.u.
  Excitation energy:                                               7.593720 eV

  Osc. strength:                                                      0.005236
  Trans. dip. moment [a.u.]:           [   0.000000,   -0.167766,   -0.000000]
  <i|r^2|0> [a.u.]:                    [  -0.000000,   -0.000000,   -0.000000]

  Dip. moment [a.u.]:                  [  -0.000000,   -0.000000,   -3.056944]
  Total dipole [Debye]:                                               7.769979
  <r^2> [a.u.]:                        [  66.585395,   24.978854,  204.073955]
  Total <r^2> [a.u.]:                                               295.638204

  V1^2 = 0.8757, V2^2 = 0.1243

  Important amplitudes:
      occ i      occ j       vir a       vir b          v   
    ---------------------------------------------------------
     2 (B2) A              11 (A1) A                  0.6416
     2 (B2) A              10 (A1) A                  0.1257
    ---------------------------------------------------------

  Density matrix analysis:
  ------------------------
  NOs
    Occupation of frontier NOs:
       0.9650   0.9914
    Number of electrons: 26.000000
    Number of unpaired electrons: n_u =  2.74452, n_u,nl =  2.11256
    NO participation ratio (PR_NO):  3.873898
  
  
  Mulliken Population Analysis
  Atom      Charge (e)              h+              e-           Del q
  --------------------------------------------------------------------
   1 C       -0.631461        0.055112       -0.460554       -0.405442
   2 C       -0.631461        0.055112       -0.460554       -0.405442
   3 H        0.149256        0.003053       -0.055171       -0.052118
   4 H        0.149256        0.003053       -0.055171       -0.052118
   5 H       -0.011497        0.016968       -0.066812       -0.049844
   6 H       -0.011497        0.016968       -0.066812       -0.049844
   7 O       -0.167048        1.367999       -0.451895        0.916104
   8 H        0.154452        0.118815       -0.020111        0.098704
  --------------------------------------------------------------------
  Sum:       -1.000000        1.637081       -1.637081        0.000000
  
  Multipole moment analysis of the density matrix
    Molecular charge:                      -1.000000
    Number of electrons:                   26.000000
      Center of electronic charge [Ang]: [  0.000000,   0.000000,   0.062218]
    Total nuclear charge:                  25.000000
      Center of nuclear charge [Ang]:    [  0.000000,   0.000000,  -0.000000]
    Dipole moment [D]:                     7.769977
      Cartesian components [D]:          [ -0.000000,  -0.000000,  -7.769977]
    RMS size of the density [Ang]:         1.783325
      Cartesian components [Ang]:        [  0.846845,   0.518681,   1.481240]
  
  Exciton analysis of the difference density matrix
    <r_h> [Ang]:                  [ -0.000000,  -0.000000,  -1.475546]
    <r_e> [Ang]:                  [  0.000000,   0.000000,   0.210441]
    |<r_e - r_h>| [Ang]:            1.685986
    Hole size [Ang]:                1.680712
      Cartesian components [Ang]: [  0.798226,   0.847562,   1.212134]
    Electron size [Ang]:            2.570413
      Cartesian components [Ang]: [  1.532543,   1.239205,   1.650063]

  Transition density matrix analysis:
  -----------------------------------
  
  CT numbers (Mulliken)
    omega =     0.8581
    <Phe> =    -0.0004
  
  Exciton analysis of the transition density matrix
    Trans. dipole moment [D]:             0.213209
      Cartesian components [D]:         [  0.000000,  -0.213209,  -0.000000]
    <r_h> [Ang]:                        [  0.000000,  -0.000000,  -1.717754]
    <r_e> [Ang]:                        [  0.000000,   0.000000,   1.147395]
    |<r_e - r_h>| [Ang]:                  2.865149
    Hole size [Ang]:                      1.125692
      Cartesian components [Ang]:       [  0.477936,   0.819380,   0.606116]
    Electron size [Ang]:                  2.620646
      Cartesian components [Ang]:       [  1.830770,   1.491855,   1.135975]
    RMS electron-hole separation [Ang]:   4.038884
      Cartesian components [Ang]:       [  1.891602,   1.697654,   3.138852]
    Covariance(r_h, r_e) [Ang^2]:         0.015732
    Correlation coefficient:              0.005333
    Center-of-mass size [Ang]:            1.428849
      Cartesian components [Ang]:       [  0.946325,   0.853229,   0.646590]

  Decomposition into state-averaged NTOs
    H- 0 -> L+ 5:  0.6510 ( 84.8%)
                   omega =  85.8%
  ----------------------------------------------------------------------------


  Excited state 7 (singlet, B2)                                    [converged]
  ----------------------------------------------------------------------------
  Term symbol:  7 (1) B2                                    R^2 =  7.66288e-07

  Total energy:                                           -153.6520201665 a.u.
  Excitation energy:                                               8.626891 eV

  Osc. strength:                                                      0.009326
  Trans. dip. moment [a.u.]:           [   0.000000,    0.210061,    0.000000]
  <i|r^2|0> [a.u.]:                    [   0.000000,    0.000000,    0.000000]

  Dip. moment [a.u.]:                  [  -0.000000,    0.000000,   -0.313464]
  Total dipole [Debye]:                                               0.796745
  <r^2> [a.u.]:                        [  61.458305,   20.746317,  206.267475]
  Total <r^2> [a.u.]:                                               288.472097

  V1^2 = 0.9069, V2^2 = 0.0931

  Important amplitudes:
      occ i      occ j       vir a       vir b          v   
    ---------------------------------------------------------
     2 (B2) A              12 (A1) A                 -0.5819
     3 (B1) A               1 (A2) A                  0.2164
    ---------------------------------------------------------

  Density matrix analysis:
  ------------------------
  NOs
    Occupation of frontier NOs:
       0.8720   1.0870
    Number of electrons: 26.000000
    Number of unpaired electrons: n_u =  2.77301, n_u,nl =  2.19254
    NO participation ratio (PR_NO):  4.628546
  
  
  Mulliken Population Analysis
  Atom      Charge (e)              h+              e-           Del q
  --------------------------------------------------------------------
   1 C       -0.110116        0.068616        0.047287        0.115903
   2 C       -0.110116        0.068616        0.047287        0.115903
   3 H       -0.132922        0.004256       -0.338552       -0.334296
   4 H       -0.132922        0.004256       -0.338552       -0.334296
   5 H        0.057757        0.019819       -0.000409        0.019410
   6 H        0.057757        0.019819       -0.000409        0.019410
   7 O       -0.771502        1.131712       -0.820062        0.311650
   8 H        0.142063        0.091327       -0.005012        0.086315
  --------------------------------------------------------------------
  Sum:       -1.000000        1.408421       -1.408421       -0.000000
  
  Multipole moment analysis of the density matrix
    Molecular charge:                      -1.000000
    Number of electrons:                   26.000000
      Center of electronic charge [Ang]: [  0.000000,  -0.000000,   0.006380]
    Total nuclear charge:                  25.000000
      Center of nuclear charge [Ang]:    [  0.000000,   0.000000,  -0.000000]
    Dipole moment [D]:                     0.796745
      Cartesian components [D]:          [ -0.000000,   0.000000,  -0.796745]
    RMS size of the density [Ang]:         1.762640
      Cartesian components [Ang]:        [  0.813588,   0.472699,   1.490479]
  
  Exciton analysis of the difference density matrix
    <r_h> [Ang]:                  [ -0.000000,   0.000000,  -1.382975]
    <r_e> [Ang]:                  [  0.000000,  -0.000000,  -0.454056]
    |<r_e - r_h>| [Ang]:            0.928919
    Hole size [Ang]:                1.677569
      Cartesian components [Ang]: [  0.777777,   0.825095,   1.236333]
    Electron size [Ang]:            2.238959
      Cartesian components [Ang]: [  1.254965,   0.888371,   1.627513]

  Transition density matrix analysis:
  -----------------------------------
  
  CT numbers (Mulliken)
    omega =     0.8841
    <Phe> =    -0.0057
  
  Exciton analysis of the transition density matrix
    Trans. dipole moment [D]:             0.266960
      Cartesian components [D]:         [  0.000000,   0.266960,   0.000000]
    <r_h> [Ang]:                        [ -0.000000,  -0.000000,  -1.404766]
    <r_e> [Ang]:                        [  0.000000,  -0.000000,  -0.107638]
    |<r_e - r_h>| [Ang]:                  1.297129
    Hole size [Ang]:                      1.450238
      Cartesian components [Ang]:       [  0.589491,   0.776758,   1.073470]
    Electron size [Ang]:                  2.346407
      Cartesian components [Ang]:       [  1.382386,   0.946975,   1.642520]
    RMS electron-hole separation [Ang]:   2.923228
      Cartesian components [Ang]:       [  1.498363,   1.224207,   2.191230]
    Covariance(r_h, r_e) [Ang^2]:         0.373047
    Correlation coefficient:              0.109628
    Center-of-mass size [Ang]:            1.445243
      Cartesian components [Ang]:       [  0.753639,   0.612688,   1.070219]

  Decomposition into state-averaged NTOs
    H- 0 -> L+ 4:  0.4942 ( 48.8%)
    H- 0 -> L+ 3:  0.3734 ( 27.9%)
    H- 3 -> L+ 2:  0.2265 ( 10.3%)
                   omega =  88.4%
  ----------------------------------------------------------------------------


  Excited state 8 (singlet, B2)                                    [converged]
  ----------------------------------------------------------------------------
  Term symbol:  8 (1) B2                                    R^2 =  1.69469e-07

  Total energy:                                           -153.6480109497 a.u.
  Excitation energy:                                               8.735988 eV

  Osc. strength:                                                      0.027685
  Trans. dip. moment [a.u.]:           [   0.000000,    0.359656,   -0.000000]
  <i|r^2|0> [a.u.]:                    [  -0.000000,   -0.000000,   -0.000000]

  Dip. moment [a.u.]:                  [   0.000000,    0.000000,    1.681159]
  Total dipole [Debye]:                                               4.273082
  <r^2> [a.u.]:                        [  59.460572,   23.098922,  208.877082]
  Total <r^2> [a.u.]:                                               291.436577

  V1^2 = 0.9410, V2^2 = 0.0590

  Important amplitudes:
      occ i      occ j       vir a       vir b          v   
    ---------------------------------------------------------
     3 (B1) A               1 (A2) A                 -0.5219
     1 (B2) A              10 (A1) A                  0.2136
    ---------------------------------------------------------

  Density matrix analysis:
  ------------------------
  NOs
    Occupation of frontier NOs:
       0.6627   1.3433
    Number of electrons: 26.000000
    Number of unpaired electrons: n_u =  2.71327, n_u,nl =  2.10699
    NO participation ratio (PR_NO):  7.120203
  
  
  Mulliken Population Analysis
  Atom      Charge (e)              h+              e-           Del q
  --------------------------------------------------------------------
   1 C       -0.407728        0.259676       -0.441386       -0.181709
   2 C       -0.407728        0.259676       -0.441386       -0.181709
   3 H        0.240189        0.075584       -0.036769        0.038815
   4 H        0.240189        0.075584       -0.036769        0.038815
   5 H        0.114543        0.097800       -0.021605        0.076196
   6 H        0.114543        0.097800       -0.021605        0.076196
   7 O       -0.993740        0.206255       -0.116842        0.089412
   8 H        0.099733        0.024411        0.019574        0.043985
  --------------------------------------------------------------------
  Sum:       -1.000000        1.096787       -1.096787        0.000000
  
  Multipole moment analysis of the density matrix
    Molecular charge:                      -1.000000
    Number of electrons:                   26.000000
      Center of electronic charge [Ang]: [ -0.000000,  -0.000000,  -0.034217]
    Total nuclear charge:                  25.000000
      Center of nuclear charge [Ang]:    [  0.000000,   0.000000,  -0.000000]
    Dipole moment [D]:                     4.273081
      Cartesian components [D]:          [  0.000000,   0.000000,   4.273081]
    RMS size of the density [Ang]:         1.771354
      Cartesian components [Ang]:        [  0.800256,   0.498781,   1.499501]
  
  Exciton analysis of the difference density matrix
    <r_h> [Ang]:                  [ -0.000000,   0.000000,   0.434078]
    <r_e> [Ang]:                  [ -0.000000,  -0.000000,   0.664569]
    |<r_e - r_h>| [Ang]:            0.230491
    Hole size [Ang]:                1.926299
      Cartesian components [Ang]: [  1.043912,   0.678769,   1.469744]
    Electron size [Ang]:            2.201453
      Cartesian components [Ang]: [  1.351039,   1.095726,   1.349249]

  Transition density matrix analysis:
  -----------------------------------
  
  CT numbers (Mulliken)
    omega =     0.9121
    <Phe> =    -0.0183
  
  Exciton analysis of the transition density matrix
    Trans. dipole moment [D]:             0.457077
      Cartesian components [D]:         [  0.000000,   0.457077,  -0.000000]
    <r_h> [Ang]:                        [ -0.000000,   0.000000,   0.579579]
    <r_e> [Ang]:                        [ -0.000000,  -0.000000,   0.818064]
    |<r_e - r_h>| [Ang]:                  0.238485
    Hole size [Ang]:                      1.733512
      Cartesian components [Ang]:       [  0.995502,   0.585695,   1.292673]
    Electron size [Ang]:                  2.162247
      Cartesian components [Ang]:       [  1.383190,   1.118683,   1.229083]
    RMS electron-hole separation [Ang]:   2.652985
      Cartesian components [Ang]:       [  1.688088,   1.261466,   1.611643]
    Covariance(r_h, r_e) [Ang^2]:         0.349462
    Correlation coefficient:              0.093232
    Center-of-mass size [Ang]:            1.447351
      Cartesian components [Ang]:       [  0.860063,   0.631998,   0.977597]

  Decomposition into state-averaged NTOs
    H- 3 -> L+ 2: -0.5459 ( 59.6%)
    H- 1 -> L+ 0:  0.2707 ( 14.7%)
    H- 0 -> L+ 4:  0.1712 (  5.9%)
    H- 2 -> L+ 6:  0.1403 (  3.9%)
    H- 0 -> L+ 3:  0.1386 (  3.8%)
    H- 1 -> L+ 1: -0.1138 (  2.6%)
                   omega =  91.2%
  ----------------------------------------------------------------------------


  Excited state 9 (singlet, B2)                                    [converged]
  ----------------------------------------------------------------------------
  Term symbol:  9 (1) B2                                    R^2 =  1.26354e-07

  Total energy:                                           -153.6441865841 a.u.
  Excitation energy:                                               8.840054 eV

  Osc. strength:                                                      0.018721
  Trans. dip. moment [a.u.]:           [  -0.000000,   -0.294004,   -0.000000]
  <i|r^2|0> [a.u.]:                    [  -0.000000,   -0.000000,   -0.000000]

  Dip. moment [a.u.]:                  [   0.000000,    0.000000,    2.399106]
  Total dipole [Debye]:                                               6.097920
  <r^2> [a.u.]:                        [  62.123753,   23.509490,  216.651941]
  Total <r^2> [a.u.]:                                               302.285184

  V1^2 = 0.9481, V2^2 = 0.0519

  Important amplitudes:
      occ i      occ j       vir a       vir b          v   
    ---------------------------------------------------------
     1 (B2) A              10 (A1) A                 -0.4495
     1 (B2) A               9 (A1) A                 -0.3737
    ---------------------------------------------------------

  Density matrix analysis:
  ------------------------
  NOs
    Occupation of frontier NOs:
       0.7934   1.1731
    Number of electrons: 26.000000
    Number of unpaired electrons: n_u =  2.66583, n_u,nl =  2.16009
    NO participation ratio (PR_NO):  5.072293
  
  
  Mulliken Population Analysis
  Atom      Charge (e)              h+              e-           Del q
  --------------------------------------------------------------------
   1 C       -0.462194        0.420884       -0.657059       -0.236175
   2 C       -0.462194        0.420884       -0.657059       -0.236175
   3 H        0.321759        0.070841        0.049544        0.120385
   4 H        0.321759        0.070841        0.049544        0.120385
   5 H        0.071222        0.084071       -0.051196        0.032875
   6 H        0.071222        0.084071       -0.051196        0.032875
   7 O       -1.046300        0.082842       -0.045991        0.036851
   8 H        0.184726        0.022675        0.106304        0.128979
  --------------------------------------------------------------------
  Sum:       -1.000000        1.257110       -1.257110        0.000000
  
  Multipole moment analysis of the density matrix
    Molecular charge:                      -1.000000
    Number of electrons:                   26.000000
      Center of electronic charge [Ang]: [ -0.000000,  -0.000000,  -0.048829]
    Total nuclear charge:                  25.000000
      Center of nuclear charge [Ang]:    [  0.000000,   0.000000,  -0.000000]
    Dipole moment [D]:                     6.097919
      Cartesian components [D]:          [  0.000000,   0.000000,   6.097919]
    RMS size of the density [Ang]:         1.803698
      Cartesian components [Ang]:        [  0.817981,   0.503195,   1.526770]
  
  Exciton analysis of the difference density matrix
    <r_h> [Ang]:                  [  0.000000,  -0.000000,   0.790924]
    <r_e> [Ang]:                  [ -0.000000,  -0.000000,   0.689802]
    |<r_e - r_h>| [Ang]:            0.101122
    Hole size [Ang]:                1.775639
      Cartesian components [Ang]: [  1.016579,   0.842790,   1.187083]
    Electron size [Ang]:            2.632693
      Cartesian components [Ang]: [  1.506127,   1.203029,   1.793146]

  Transition density matrix analysis:
  -----------------------------------
  
  CT numbers (Mulliken)
    omega =     0.9166
    <Phe> =    -0.0019
  
  Exciton analysis of the transition density matrix
    Trans. dipole moment [D]:             0.373642
      Cartesian components [D]:         [ -0.000000,  -0.373642,  -0.000000]
    <r_h> [Ang]:                        [ -0.000000,   0.000000,   0.885798]
    <r_e> [Ang]:                        [ -0.000000,  -0.000000,   0.747468]
    |<r_e - r_h>| [Ang]:                  0.138331
    Hole size [Ang]:                      1.426041
      Cartesian components [Ang]:       [  0.826625,   0.808807,   0.834335]
    Electron size [Ang]:                  2.812846
      Cartesian components [Ang]:       [  1.614328,   1.310301,   1.894507]
    RMS electron-hole separation [Ang]:   3.162342
      Cartesian components [Ang]:       [  1.804194,   1.536132,   2.094180]
    Covariance(r_h, r_e) [Ang^2]:        -0.017787
    Correlation coefficient:             -0.004434
    Center-of-mass size [Ang]:            1.574017
      Cartesian components [Ang]:       [  0.911539,   0.771754,   1.025194]

  Decomposition into state-averaged NTOs
    H- 1 -> L+ 0: -0.5442 ( 59.2%)
    H- 3 -> L+ 2: -0.2680 ( 14.4%)
    H- 1 -> L+ 1:  0.2653 ( 14.1%)
    H- 2 -> L+ 6:  0.1198 (  2.9%)
                   omega =  91.7%
  ----------------------------------------------------------------------------


  Excited state 10 (singlet, B2)                                    [converged]
  ----------------------------------------------------------------------------
  Term symbol:  10 (1) B2                                   R^2 =  1.12789e-06

  Total energy:                                           -153.6318674915 a.u.
  Excitation energy:                                               9.175274 eV

  Osc. strength:                                                      0.009303
  Trans. dip. moment [a.u.]:           [   0.000000,   -0.203439,    0.000000]
  <i|r^2|0> [a.u.]:                    [  -0.000000,   -0.000000,    0.000000]

  Dip. moment [a.u.]:                  [  -0.000000,   -0.000000,   -2.455553]
  Total dipole [Debye]:                                               6.241396
  <r^2> [a.u.]:                        [  63.825344,   27.857251,  202.694042]
  Total <r^2> [a.u.]:                                               294.376637

  V1^2 = 0.8706, V2^2 = 0.1294

  Important amplitudes:
      occ i      occ j       vir a       vir b          v   
    ---------------------------------------------------------
     4 (B1) A               2 (A2) A                 -0.6159
     3 (B1) A               1 (A2) A                 -0.1792
    ---------------------------------------------------------

  Density matrix analysis:
  ------------------------
  NOs
    Occupation of frontier NOs:
       0.9052   1.0427
    Number of electrons: 26.000000
    Number of unpaired electrons: n_u =  2.82823, n_u,nl =  2.17353
    NO participation ratio (PR_NO):  4.472173
  
  
  Mulliken Population Analysis
  Atom      Charge (e)              h+              e-           Del q
  --------------------------------------------------------------------
   1 C       -0.633992        0.096146       -0.504119       -0.407973
   2 C       -0.633992        0.096146       -0.504119       -0.407973
   3 H        0.144041        0.000340       -0.057673       -0.057333
   4 H        0.144041        0.000340       -0.057673       -0.057333
   5 H        0.039723        0.011988       -0.010612        0.001376
   6 H        0.039723        0.011988       -0.010612        0.001376
   7 O       -0.244478        1.259544       -0.420870        0.838674
   8 H        0.144933        0.107624       -0.018439        0.089186
  --------------------------------------------------------------------
  Sum:       -1.000000        1.584116       -1.584116       -0.000000
  
  Multipole moment analysis of the density matrix
    Molecular charge:                      -1.000000
    Number of electrons:                   26.000000
      Center of electronic charge [Ang]: [  0.000000,   0.000000,   0.049978]
    Total nuclear charge:                  25.000000
      Center of nuclear charge [Ang]:    [  0.000000,   0.000000,  -0.000000]
    Dipole moment [D]:                     6.241394
      Cartesian components [D]:          [ -0.000000,  -0.000000,  -6.241394]
    RMS size of the density [Ang]:         1.779897
      Cartesian components [Ang]:        [  0.829108,   0.547752,   1.476680]
  
  Exciton analysis of the difference density matrix
    <r_h> [Ang]:                  [ -0.000000,  -0.000000,  -1.351551]
    <r_e> [Ang]:                  [  0.000000,   0.000000,   0.189910]
    |<r_e - r_h>| [Ang]:            1.541461
    Hole size [Ang]:                1.722148
      Cartesian components [Ang]: [  0.885249,   0.716736,   1.291672]
    Electron size [Ang]:            2.497565
      Cartesian components [Ang]: [  1.436841,   1.366428,   1.518616]

  Transition density matrix analysis:
  -----------------------------------
  
  CT numbers (Mulliken)
    omega =     0.8492
    <Phe> =    -0.0002
  
  Exciton analysis of the transition density matrix
    Trans. dipole moment [D]:             0.258545
      Cartesian components [D]:         [  0.000000,  -0.258545,   0.000000]
    <r_h> [Ang]:                        [ -0.000000,  -0.000000,  -1.497752]
    <r_e> [Ang]:                        [ -0.000000,   0.000000,   1.019645]
    |<r_e - r_h>| [Ang]:                  2.517396
    Hole size [Ang]:                      1.381597
      Cartesian components [Ang]:       [  0.843896,   0.467985,   0.988757]
    Electron size [Ang]:                  2.540238
      Cartesian components [Ang]:       [  1.693533,   1.630590,   0.962251]
    RMS electron-hole separation [Ang]:   3.832391
      Cartesian components [Ang]:       [  1.884041,   1.696146,   2.874144]
    Covariance(r_h, r_e) [Ang^2]:         0.005840
    Correlation coefficient:              0.001664
    Center-of-mass size [Ang]:            1.446833
      Cartesian components [Ang]:       [  0.950108,   0.848345,   0.686243]

  Decomposition into state-averaged NTOs
    H- 2 -> L+ 6: -0.6166 ( 76.0%)
    H- 3 -> L+ 2: -0.1877 (  7.0%)
    H- 2 -> L+ 2: -0.0741 (  1.1%)
                   omega =  84.9%
  ----------------------------------------------------------------------------


--------------------------------------------------------------------------------
  Time of ADC calculation:  CPU 205.34 s  wall 55.57 s
================================================================================
 
 --------------------------------------------------------------
             Orbital Energies (a.u.) and Symmetries
 --------------------------------------------------------------
 
 Alpha MOs, Restricted
 -- Occupied --                  
-20.212 -11.047 -11.045  -0.929  -0.853  -0.597  -0.472  -0.383
  1 A1    2 A1    1 B1    3 A1    4 A1    2 B1    5 A1    6 A1                 
 -0.327  -0.270  -0.193  -0.129  -0.128
  3 B1    7 A1    1 B2    4 B1    2 B2                                         
 -- Virtual --                   
  0.221   0.252   0.301   0.304   0.361   0.380   0.392   0.408
  5 B1    8 A1    1 A2    9 A1   10 A1    3 B2    6 B1   11 A1                 
  0.443   0.458   0.478   0.490   0.505   0.543   0.553   0.579
  4 B2    7 B1    8 B1    2 A2   12 A1   13 A1    9 B1   14 A1                 
  0.690   0.698   0.773   0.949   1.022   1.060   1.103   1.106
 15 A1   10 B1   11 B1   16 A1   17 A1   18 A1   12 B1   19 A1                 
  1.144   1.191   1.202   1.211   1.219   1.291   1.294   1.330
  5 B2   13 B1   20 A1    6 B2    3 A2    4 A2   14 B1   21 A1                 
  1.332   1.335   1.370   1.451   1.471   1.484   1.582   1.653
 22 A1   15 B1    7 B2   16 B1    8 B2    5 A2   17 B1   23 A1                 
  1.713   1.726   1.868   1.922   2.022   2.055   2.112   2.129
  9 B2   18 B1   24 A1   19 B1   25 A1    6 A2   26 A1   10 B2                 
  2.178   2.213   2.234   2.321   2.364   2.394   2.419   2.503
 20 B1   11 B2   27 A1   28 A1    7 A2   12 B2   21 B1   22 B1                 
  2.573   2.605   2.762   2.769   2.854   3.015   3.033   3.100
 29 A1    8 A2   30 A1   23 B1   24 B1   31 A1   32 A1   33 A1                 
  3.458   3.563   3.923   3.946   3.972   4.088   4.546
 25 B1   26 B1   13 B2    9 A2   34 A1   27 B1   35 A1                         
 
 Beta MOs, Restricted
 -- Occupied --                  
-20.212 -11.047 -11.045  -0.929  -0.853  -0.597  -0.472  -0.383
  1 A1    2 A1    1 B1    3 A1    4 A1    2 B1    5 A1    6 A1                 
 -0.327  -0.270  -0.193  -0.129  -0.128
  3 B1    7 A1    1 B2    4 B1    2 B2                                         
 -- Virtual --                   
  0.221   0.252   0.301   0.304   0.361   0.380   0.392   0.408
  5 B1    8 A1    1 A2    9 A1   10 A1    3 B2    6 B1   11 A1                 
  0.443   0.458   0.478   0.490   0.505   0.543   0.553   0.579
  4 B2    7 B1    8 B1    2 A2   12 A1   13 A1    9 B1   14 A1                 
  0.690   0.698   0.773   0.949   1.022   1.060   1.103   1.106
 15 A1   10 B1   11 B1   16 A1   17 A1   18 A1   12 B1   19 A1                 
  1.144   1.191   1.202   1.211   1.219   1.291   1.294   1.330
  5 B2   13 B1   20 A1    6 B2    3 A2    4 A2   14 B1   21 A1                 
  1.332   1.335   1.370   1.451   1.471   1.484   1.582   1.653
 22 A1   15 B1    7 B2   16 B1    8 B2    5 A2   17 B1   23 A1                 
  1.713   1.726   1.868   1.922   2.022   2.055   2.112   2.129
  9 B2   18 B1   24 A1   19 B1   25 A1    6 A2   26 A1   10 B2                 
  2.178   2.213   2.234   2.321   2.364   2.394   2.419   2.503
 20 B1   11 B2   27 A1   28 A1    7 A2   12 B2   21 B1   22 B1                 
  2.573   2.605   2.762   2.769   2.854   3.015   3.033   3.100
 29 A1    8 A2   30 A1   23 B1   24 B1   31 A1   32 A1   33 A1                 
  3.458   3.563   3.923   3.946   3.972   4.088   4.546
 25 B1   26 B1   13 B2    9 A2   34 A1   27 B1   35 A1                         
 --------------------------------------------------------------
 
          Ground-State Mulliken Net Atomic Charges

     Atom                 Charge (a.u.)
  ----------------------------------------
      1 C                    -0.220945
      2 C                    -0.220945
      3 H                     0.194880
      4 H                     0.194880
      5 H                     0.030676
      6 H                     0.030676
      7 O                    -1.081421
      8 H                     0.072197
  ----------------------------------------
  Sum of atomic charges =    -1.000000

 -----------------------------------------------------------------
                    Cartesian Multipole Moments
 -----------------------------------------------------------------
    Charge (ESU x 10^10)
                -4.8032
    Dipole Moment (Debye)
         X      -0.0000      Y      -0.0000      Z       5.3180
       Tot       5.3180
    Quadrupole Moments (Debye-Ang)
        XX     -23.5638     XY      -0.0000     YY     -26.2595
        XZ      -0.0000     YZ       0.0000     ZZ     -32.7830
    Octopole Moments (Debye-Ang^2)
       XXX      -0.0000    XXY      -0.0000    XYY       0.0000
       YYY      -0.0000    XXZ       1.2022    XYZ      -0.0000
       YYZ       0.2901    XZZ      -0.0000    YZZ      -0.0000
       ZZZ       6.7685
    Hexadecapole Moments (Debye-Ang^3)
      XXXX     -86.7750   XXXY      -0.0000   XXYY     -20.9833
      XYYY      -0.0000   YYYY     -36.6524   XXXZ      -0.0000
      XXYZ       0.0000   XYYZ       0.0000   YYYZ       0.0000
      XXZZ     -69.9328   XYZZ      -0.0000   YYZZ     -64.3373
      XZZZ      -0.0000   YZZZ       0.0000   ZZZZ    -291.1216
 -----------------------------------------------------------------
 Total job time:  164.76s(wall), 253.60s(cpu) 
 Fri Mar  4 19:49:19 2022

        *************************************************************
        *                                                           *
        *  Thank you very much for using Q-Chem.  Have a nice day.  *
        *                                                           *
        *************************************************************


