/src/tsommerfeld/qchem/exe/qcprog.exe .input1.10303.14837.qcin.1 /src/jdavis/qchem.scratch/qchem14837/

                  Welcome to Q-Chem
     A Quantum Leap Into The Future Of Chemistry


 Q-Chem 5.4 (devel), Q-Chem, Inc., Pleasanton, CA (2021)

 E. Epifanovsky,  A. T. B. Gilbert,  Xintian Feng,  Joonho Lee,  Yuezhi Mao,  
 N. Mardirossian,  P. Pokhilko,  A. White,  M. Wormit,  M. P. Coons,  
 A. L. Dempwolff,  Zhengting Gan,  D. Hait,  P. R. Horn,  L. D. Jacobson,  
 I. Kaliman,  J. Kussmann,  A. W. Lange,  Ka Un Lao,  D. S. Levine,  Jie Liu,  
 S. C. McKenzie,  A. F. Morrison,  K. Nanda,  F. Plasser,  D. R. Rehn,  
 M. L. Vidal,  Zhi-Qiang You,  Ying Zhu,  B. Alam,  B. Albrecht,  
 A. Aldossary,  E. Alguire,  J. H. Andersen,  D. Barton,  K. Begam,  A. Behn,  
 Y. A. Bernard,  E. J. Berquist,  H. Burton,  A. Carreras,  K. Carter-Fenk,  
 R. Chakraborty,  A. D. Chien,  K. D. Closser,  V. Cofer-Shabica,  
 S. Dasgupta,  Jia Deng,  M. de Wergifosse,  M. Diedenhofen,  Hainam Do,  
 S. Ehlert,  Po-Tung Fang,  S. Fatehi,  Qingguo Feng,  T. Friedhoff,  
 J. Gayvert,  Qinghui Ge,  G. Gidofalvi,  M. Goldey,  J. Gomes,  
 C. Gonzalez-Espinoza,  S. Gulania,  A. Gunina,  M. W. D. Hanson-Heine,  
 P. H. P. Harbach,  A. W. Hauser,  M. F. Herbst,  M. Hernandez Vera,  
 M. Hodecker,  Z. C. Holden,  S. Houck,  Xunkun Huang,  Kerwin Hui,  
 B. C. Huynh,  M. Ivanov,  Hyunjun Ji,  Hanjie Jiang,  B. Kaduk,  S. Kaehler,  
 K. Khistyaev,  Jaehoon Kim,  P. Klunzinger,  Z. Koczor-Benda,  
 Joong Hoon Koh,  D. Kosenkov,  L. Koulias,  T. Kowalczyk,  C. M. Krauter,  
 K. Kue,  A. Kunitsa,  T. Kus,  A. Landau,  K. V. Lawler,  D. Lefrancois,  
 S. Lehtola,  Rain Li,  Yi-Pei Li,  Jiashu Liang,  M. Liebenthal,  
 Hung-Hsuan Lin,  You-Sheng Lin,  Fenglai Liu,  Kuan-Yu Liu,  
 M. Loipersberger,  A. Luenser,  A. Manjanath,  P. Manohar,  E. Mansoor,  
 S. F. Manzer,  Shan-Ping Mao,  A. V. Marenich,  T. Markovich,  S. Mason,  
 S. A. Maurer,  P. F. McLaughlin,  M. F. S. J. Menger,  J.-M. Mewes,  
 S. A. Mewes,  P. Morgante,  J. W. Mullinax,  K. J. Oosterbaan,  G. Paran,  
 Alexander C. Paul,  Suranjan K. Paul,  F. Pavosevic,  Zheng Pei,  S. Prager,  
 E. I. Proynov,  E. Ramos,  B. Rana,  A. E. Rask,  A. Rettig,  R. M. Richard,  
 F. Rob,  E. Rossomme,  T. Scheele,  M. Scheurer,  M. Schneider,  
 N. Sergueev,  S. M. Sharada,  W. Skomorowski,  D. W. Small,  C. J. Stein,  
 Yu-Chuan Su,  E. J. Sundstrom,  Zhen Tao,  J. Thirman,  T. Tsuchimochi,  
 N. M. Tubman,  S. P. Veccham,  O. Vydrov,  J. Wenzel,  J. Witte,  A. Yamada,  
 Kun Yao,  S. Yeganeh,  S. R. Yost,  A. Zech,  Igor Ying Zhang,  Xing Zhang,  
 Yu Zhang,  D. Zuev,  A. Aspuru-Guzik,  A. T. Bell,  N. A. Besley,  
 K. B. Bravaya,  B. R. Brooks,  D. Casanova,  Jeng-Da Chai,  S. Coriani,  
 C. J. Cramer,  A. E. DePrince, III,  R. A. DiStasio Jr.,  A. Dreuw,  
 B. D. Dunietz,  T. R. Furlani,  W. A. Goddard III,  S. Grimme,  
 S. Hammes-Schiffer,  T. Head-Gordon,  W. J. Hehre,  Chao-Ping Hsu,  
 T.-C. Jagau,  Yousung Jung,  A. Klamt,  Jing Kong,  D. S. Lambrecht,  
 WanZhen Liang,  N. J. Mayhall,  C. W. McCurdy,  J. B. Neaton,  
 C. Ochsenfeld,  J. A. Parkhill,  R. Peverati,  V. A. Rassolov,  Yihan Shao,  
 L. V. Slipchenko,  T. Stauch,  R. P. Steele,  J. E. Subotnik,  
 A. J. W. Thom,  A. Tkatchenko,  D. G. Truhlar,  T. Van Voorhis,  
 T. A. Wesolowski,  K. B. Whaley,  H. L. Woodcock III,  P. M. Zimmerman,  
 S. Faraji,  P. M. W. Gill,  M. Head-Gordon,  J. M. Herbert,  A. I. Krylov

 Additional authors for Version 5.4.1: 
 S. Kotaru,  Shaozhi Li,  Xiangyuan Li,  F. Matz,  A. Molle,  Haisheng Ren,  
 Yingli Su,  Hung-Yi Tsai,  C. Utku,  Fang Wang

 Contributors to earlier versions of Q-Chem not listed above: 
 R. D. Adamson,  B. Austin,  R. Baer,  J. Baker,  G. J. O. Beran,  
 K. Brandhorst,  S. T. Brown,  E. F. C. Byrd,  A. K. Chakraborty,  
 G. K. L. Chan,  Chun-Min Chang,  Yunqing Chen,  C.-L. Cheng,  
 Siu Hung Chien,  D. M. Chipman,  D. L. Crittenden,  H. Dachsel,  
 R. J. Doerksen,  A. D. Dutoi,  R. G. Edgar,  J. Fosso-Tande,  
 L. Fusti-Molnar,  D. Ghosh,  A. Ghysels,  A. Golubeva-Zadorozhnaya,  
 J. Gonthier,  M. S. Gordon,  S. R. Gwaltney,  G. Hawkins,  J. E. Herr,  
 A. Heyden,  S. Hirata,  E. G. Hohenstein,  G. Kedziora,  F. J. Keil,  
 C. Kelley,  Jihan Kim,  R. A. King,  R. Z. Khaliullin,  P. P. Korambath,  
 W. Kurlancheek,  A. Laurent,  A. M. Lee,  M. S. Lee,  S. V. Levchenko,  
 Ching Yeh Lin,  D. Liotard,  E. Livshits,  R. C. Lochan,  I. Lotan,  
 L. A. Martinez-Martinez,  P. E. Maslen,  N. Nair,  D. P. O'Neill,  
 D. Neuhauser,  E. Neuscamman,  C. M. Oana,  R. Olivares-Amaya,  R. Olson,  
 T. M. Perrine,  B. Peters,  P. A. Pieniazek,  A. Prociuk,  Y. M. Rhee,  
 J. Ritchie,  M. A. Rohrdanz,  E. Rosta,  N. J. Russ,  H. F. Schaefer III,  
 M. W. Schmidt,  N. E. Schultz,  S. Sharma,  N. Shenvi,  C. D. Sherrill,  
 A. C. Simmonett,  A. Sodt,  T. Stein,  D. Stuck,  K. S. Thanthiriwatte,  
 V. Vanovschi,  L. Vogt,  Tao Wang,  A. Warshel,  M. A. Watson,  
 C. F. Williams,  Q. Wu,  X. Xu,  Jun Yang,  W. Zhang,  Yan Zhao

 Please cite Q-Chem as follows:
 Y. Shao et al., Mol. Phys. 113, 184-215 (2015)
 DOI: 10.1080/00268976.2014.952696

 Q-Chem 5.4.1 for Intel X86 EM64T Linux

 Parts of Q-Chem use Armadillo 9.900.5 (Nocturnal Misbehaviour).
 http://arma.sourceforge.net/

 Q-Chem begins on Fri Mar  4 19:00:09 2022  

 Host: node01
0

     Scratch files written to /src/jdavis/qchem.scratch/qchem14837//
 Processing $rem in /src/tsommerfeld/qchem/config/preferences:
 Processing $rem in /home/jdavis/.qchemrc:

 Checking the input file for inconsistencies... 	...done.

--------------------------------------------------------------
User input:
--------------------------------------------------------------
$molecule
-1 1
C        -0.6645000000    0.0000000000    1.1619088658
C         0.6645000000    0.0000000000    1.1619088658
H        -1.1590800000    0.0000000000    0.1995598658
H         1.1590800000    0.0000000000    0.1995598658
H        -1.1590800000    0.0000000000    2.1242568658
H         1.1590800000    0.0000000000    2.1242568658
O         0.0000000000    0.0000000000   -1.5841414040
H         0.0000000000    0.0000000000   -2.5471307683
$end
$rem
   METHOD adc(2)
   BASIS gen
   PURECART 11
   EE_STATES [0,0,0,10]
   scf_convergence 8
   ADC_DAVIDSON_MAXITER 120
   ADC_DAVIDSON_MAXSUBSPACE 200
   adc_nguess_singles 100
   THRESH 14
   S2THRESH 14
   adc_davidson_conv 5
   adc_davidson_thresh 14
   THREADS 10
   MEM_TOTAL 95000
   STATE_ANALYSIS TRUE
$end
$basis
C 1
S   9   1.00
      6.665000D+03           6.920000D-04
      1.000000D+03           5.329000D-03
      2.280000D+02           2.707700D-02
      6.471000D+01           1.017180D-01
      2.106000D+01           2.747400D-01
      7.495000D+00           4.485640D-01
      2.797000D+00           2.850740D-01
      5.215000D-01           1.520400D-02
      1.596000D-01          -3.191000D-03
S   9   1.00
      6.665000D+03          -1.460000D-04
      1.000000D+03          -1.154000D-03
      2.280000D+02          -5.725000D-03
      6.471000D+01          -2.331200D-02
      2.106000D+01          -6.395500D-02
      7.495000D+00          -1.499810D-01
      2.797000D+00          -1.272620D-01
      5.215000D-01           5.445290D-01
      1.596000D-01           5.804960D-01
S   1   1.00
      1.596000D-01           1.000000D+00
S   1   1.00
      0.0469000              1.0000000
P   4   1.00
      9.439000D+00           3.810900D-02
      2.002000D+00           2.094800D-01
      5.456000D-01           5.085570D-01
      1.517000D-01           4.688420D-01
P   1   1.00
      1.517000D-01           1.000000D+00
P   1   1.00
      0.0478085      1.0000000
D   1   1.00
      5.500000D-01           1.0000000
****
C 2
S   9   1.00
      6.665000D+03           6.920000D-04
      1.000000D+03           5.329000D-03
      2.280000D+02           2.707700D-02
      6.471000D+01           1.017180D-01
      2.106000D+01           2.747400D-01
      7.495000D+00           4.485640D-01
      2.797000D+00           2.850740D-01
      5.215000D-01           1.520400D-02
      1.596000D-01          -3.191000D-03
S   9   1.00
      6.665000D+03          -1.460000D-04
      1.000000D+03          -1.154000D-03
      2.280000D+02          -5.725000D-03
      6.471000D+01          -2.331200D-02
      2.106000D+01          -6.395500D-02
      7.495000D+00          -1.499810D-01
      2.797000D+00          -1.272620D-01
      5.215000D-01           5.445290D-01
      1.596000D-01           5.804960D-01
S   1   1.00
      1.596000D-01           1.000000D+00
S   1   1.00
      0.0469000              1.0000000
P   4   1.00
      9.439000D+00           3.810900D-02
      2.002000D+00           2.094800D-01
      5.456000D-01           5.085570D-01
      1.517000D-01           4.688420D-01
P   1   1.00
      1.517000D-01           1.000000D+00
P   1   1.00
      0.0478085      1.0000000
D   1   1.00
      5.500000D-01           1.0000000
****
H 3
cc-pVDZ
****
H 4
cc-pVDZ
****
H 5
cc-pVDZ
****
H 6
cc-pVDZ
****
O 7
aug-cc-pVDZ
****
H 8
cc-pVDZ
****
$end
--------------------------------------------------------------
 ----------------------------------------------------------------
             Standard Nuclear Orientation (Angstroms)
    I     Atom           X                Y                Z
 ----------------------------------------------------------------
    1      C      -0.6645000000    -0.0000000000     1.0270977517
    2      C       0.6645000000     0.0000000000     1.0270977517
    3      H      -1.1590800000    -0.0000000000     0.0647487517
    4      H       1.1590800000     0.0000000000     0.0647487517
    5      H      -1.1590800000    -0.0000000000     1.9894457517
    6      H       1.1590800000     0.0000000000     1.9894457517
    7      O       0.0000000000    -0.0000000000    -1.7189525181
    8      H       0.0000000000    -0.0000000000    -2.6819418824
 ----------------------------------------------------------------
 Molecular Point Group                 C2v   NOp =  4
 Largest Abelian Subgroup              C2v   NOp =  4
 Nuclear Repulsion Energy =          64.38561153 hartrees
 There are       13 alpha and       13 beta electrons
 Requested basis set is non-standard
 There are 40 shells and 84 basis functions
 Total memory of 95000 MB is distributed as follows: 
   MEM_STATIC is set to 192 MB
   QALLOC/CCMAN JOB total memory use is  94808 MB
 Warning: actual memory use might exceed 95000 MB

 Total QAlloc Memory Limit  95000 MB
 Mega-Array Size       188 MB
 MEM_STATIC part       192 MB

                       Distance Matrix (Angstroms)
             C (  1)   C (  2)   H (  3)   H (  4)   H (  5)   H (  6)
   C (  2)  1.329000
   H (  3)  1.082000  2.061931
   H (  4)  2.061931  1.082000  2.318160
   H (  5)  1.082000  2.061931  1.924697  3.013026
   H (  6)  2.061931  1.082000  3.013026  1.924697  2.318160
   O (  7)  2.825306  2.825306  2.127218  2.127218  3.885316  3.885316
   H (  8)  3.768094  3.768094  2.981237  2.981237  4.813037  4.813037
             O (  7)
   H (  8)  0.962989
 
 A cutoff of  1.0D-14 yielded    820 shell pairs
 There are      3652 function pairs (      4018 Cartesian)
 Smallest overlap matrix eigenvalue = 1.72E-04

 Scale SEOQF with 1.000000e-01/1.000000e-01/1.000000e-01

 Standard Electronic Orientation quadrupole field applied
 Nucleus-field energy     =    -0.0000000051 hartrees
 ================ Generating on-the-fly SAD Guess ================
Attempting to make child job directory: /src/jdavis/qchem.scratch/qchem14837//Frg1/
Attempting to make child job directory: /src/jdavis/qchem.scratch/qchem14837//Frg2/
Attempting to make child job directory: /src/jdavis/qchem.scratch/qchem14837//Frg3/
Creating input file /src/jdavis/qchem.scratch/qchem14837/Frg1.input
using default PutDataFrgm: nothing
calling putenv with: QCSCRATCH=/src/jdavis/qchem.scratch/qchem14837/ 
Spawning Job For Fragment 0
Done Job For Fragment 0
calling putenv with: QCSCRATCH=/src/jdavis/qchem.scratch 
calling putenv with: QCTHREADS=1 
Creating input file /src/jdavis/qchem.scratch/qchem14837/Frg2.input
using default PutDataFrgm: nothing
calling putenv with: QCSCRATCH=/src/jdavis/qchem.scratch/qchem14837/ 
Spawning Job For Fragment 1
Done Job For Fragment 1
calling putenv with: QCSCRATCH=/src/jdavis/qchem.scratch 
calling putenv with: QCTHREADS=1 
Creating input file /src/jdavis/qchem.scratch/qchem14837/Frg3.input
using default PutDataFrgm: nothing
calling putenv with: QCSCRATCH=/src/jdavis/qchem.scratch/qchem14837/ 
Spawning Job For Fragment 2
Done Job For Fragment 2
calling putenv with: QCSCRATCH=/src/jdavis/qchem.scratch 
calling putenv with: QCTHREADS=1 
 Time for running child jobs:  CPU 1.77 s  wall 80.95 s
 ============= Method Specific SAD Guess Constructed =============
 Guess from on-the-fly superposition of atomic densities
 Warning: Energy on first SCF cycle will be non-variational
 A restricted Hartree-Fock SCF calculation will be
 performed using Pulay DIIS extrapolation
 SCF converges when DIIS error is below 1.0E-08
 using 10 threads for integral computing
 -------------------------------------------------------
 OpenMP Integral computing Module                
 Release: version 1.0, May 2013, Q-Chem Inc. Pittsburgh 
 -------------------------------------------------------
 ---------------------------------------
  Cycle       Energy         DIIS Error
 ---------------------------------------
    1    -153.5737044805      6.41E-02
    2    -153.2896968971      1.31E-02
    3    -153.3571320236      1.09E-02
    4    -153.4401106845      8.00E-04
    5    -153.4410167193      2.26E-04
    6    -153.4410886545      4.87E-05
    7    -153.4410938118      1.27E-05
    8    -153.4410943450      3.79E-06
    9    -153.4410943908      7.98E-07
   10    -153.4410943924      1.38E-07
   11    -153.4410943924      3.71E-08
   12    -153.4410943924      1.03E-08
   13    -153.4410943924      1.96E-09 Convergence criterion met
 ---------------------------------------
 SCF time:  CPU 14.45 s  wall 1.45 s
 SCF   energy in the final basis set = -153.44109439
 Total energy in the final basis set = -153.44109439
================================================================================
|                                                                              |
|                                 A D C  M A N                                 |
|                                                                              |
 ------------------------------------------------------------------------------ 
|                                                                              |
| Components:                                                                  |
|                                                                              |
| - libvmm - 1.3-trunk                                                         |
|   Authors:                                                                   |
|   Evgeny Epifanovsky, Ilya Kaliman                                           |
|                                                                              |
| - libtensor - 2.5-trunk                                                      |
|   Authors:                                                                   |
|   Evgeny Epifanovsky, Michael Wormit, Dmitry Zuev, Sam Manzer,               |
|   Ilya Kaliman                                                               |
|                                                                              |
| - libwfa - 1.1-trunk                                                         |
|   Authors:                                                                   |
|   Felix Plasser, Stefanie Mewes (Baeppler), Benjamin Thomitzni,              |
|   Michael Wormit, Feng Chen, Anna I. Krylov, Pavel Pokhilko                  |
|                                                                              |
| - libadc - 1.1-trunk                                                         |
|   Authors:                                                                   |
|   Michael Wormit, Adrian L. Dempwolff, Philipp H. P. Harbach,                |
|   Caroline Krauter, Dirk Rehn, Matthias Schneider, Jan Wenzel                |
|                                                                              |
| - adcman - 2.6-trunk                                                         |
|   Authors:                                                                   |
|   Michael Wormit, Adrian L. Dempwolff, Philipp H. P. Harbach,                |
|   Caroline Krauter, Daniel Lefrancois, Jan-Michael Mewes, Dirk Rehn,         |
|   Matthias Schneider, Jan Wenzel, Andreas Dreuw                              |
|                                                                              |
| Authors of earlier versions of ADCMAN:                                       |
| Andreas Dreuw, Jan Hendrik Starcke, Dirk Rehn, Michael Wormit                |
|                                                                              |
================================================================================

 
 Alpha MOs, Restricted
 -- Occupied --                  
-20.213 -11.049 -11.047  -0.930  -0.854  -0.598  -0.473  -0.384
  1 A1    2 A1    1 B1    3 A1    4 A1    2 B1    5 A1    6 A1                 
 -0.328  -0.271  -0.194  -0.129  -0.128
  3 B1    7 A1    1 B2    4 B1    2 B2                                         
 -- Virtual --                   
  0.218   0.227   0.263   0.266   0.284   0.290   0.308   0.365
  8 A1    5 B1    1 A2    9 A1    6 B1    3 B2   10 A1   11 A1                 
  0.380   0.408   0.445   0.464   0.482   0.523   0.525   0.577
  7 B1    2 A2    4 B2    8 B1   12 A1   13 A1    9 B1   14 A1                 
  0.632   0.645   0.672   0.859   0.968   1.013   1.052   1.077
 10 B1   15 A1   11 B1   16 A1   17 A1    5 B2   18 A1   19 A1                 
  1.083   1.090   1.175   1.204   1.207   1.208   1.291   1.301
 12 B1    3 A2   13 B1    6 B2   14 B1   20 A1    4 A2   21 A1                 
  1.330   1.333   1.370   1.467   1.483   1.501   1.558   1.642
 22 A1   15 B1    7 B2    8 B2    5 A2   16 B1   17 B1   23 A1                 
  1.694   1.717   1.854   1.926   1.972   2.036   2.120   2.124
 18 B1    9 B2   24 A1   19 B1   25 A1    6 A2   20 B1   10 B2                 
  2.124   2.187   2.212   2.292   2.357   2.393   2.433   2.496
 26 A1   27 A1   11 B2   28 A1    7 A2   12 B2   21 B1   22 B1                 
  2.555   2.604   2.738   2.754   2.842   3.005   3.032   3.085
 29 A1    8 A2   23 B1   30 A1   24 B1   31 A1   32 A1   33 A1                 
  3.456   3.562   3.921   3.946   3.971   4.084   4.539
 25 B1   26 B1   13 B2    9 A2   34 A1   27 B1   35 A1                         
 
 Beta MOs, Restricted
 -- Occupied --                  
-20.213 -11.049 -11.047  -0.930  -0.854  -0.598  -0.473  -0.384
  1 A1    2 A1    1 B1    3 A1    4 A1    2 B1    5 A1    6 A1                 
 -0.328  -0.271  -0.194  -0.129  -0.128
  3 B1    7 A1    1 B2    4 B1    2 B2                                         
 -- Virtual --                   
  0.218   0.227   0.263   0.266   0.284   0.290   0.308   0.365
  8 A1    5 B1    1 A2    9 A1    6 B1    3 B2   10 A1   11 A1                 
  0.380   0.408   0.445   0.464   0.482   0.523   0.525   0.577
  7 B1    2 A2    4 B2    8 B1   12 A1   13 A1    9 B1   14 A1                 
  0.632   0.645   0.672   0.859   0.968   1.013   1.052   1.077
 10 B1   15 A1   11 B1   16 A1   17 A1    5 B2   18 A1   19 A1                 
  1.083   1.090   1.175   1.204   1.207   1.208   1.291   1.301
 12 B1    3 A2   13 B1    6 B2   14 B1   20 A1    4 A2   21 A1                 
  1.330   1.333   1.370   1.467   1.483   1.501   1.558   1.642
 22 A1   15 B1    7 B2    8 B2    5 A2   16 B1   17 B1   23 A1                 
  1.694   1.717   1.854   1.926   1.972   2.036   2.120   2.124
 18 B1    9 B2   24 A1   19 B1   25 A1    6 A2   20 B1   10 B2                 
  2.124   2.187   2.212   2.292   2.357   2.393   2.433   2.496
 26 A1   27 A1   11 B2   28 A1    7 A2   12 B2   21 B1   22 B1                 
  2.555   2.604   2.738   2.754   2.842   3.005   3.032   3.085
 29 A1    8 A2   23 B1   30 A1   24 B1   31 A1   32 A1   33 A1                 
  3.456   3.562   3.921   3.946   3.971   4.084   4.539
 25 B1   26 B1   13 B2    9 A2   34 A1   27 B1   35 A1                         

--------------------------------------------------------------------------------
                                   HF Summary                                   
--------------------------------------------------------------------------------
  Energy:                                                 -153.4410943924 a.u.
  Dip. moment [a.u.]:                  [   0.000000,    0.000000,    2.078995]
  Total dipole [Debye]:                                               5.284279
  <r^2> [a.u.]:                        [  55.675661,   19.655182,  208.015160]
  Total <r^2> [a.u.]:                                               283.346003
--------------------------------------------------------------------------------

--------------------------------------------------------------------------------
                                 MP(2) Summary                                  
--------------------------------------------------------------------------------
  MP energy contribution:                                   -0.5276662840 a.u.
  Total energy:                                           -153.9687606764 a.u.
  Dip. moment [a.u.]:                  [  -0.000000,    0.000000,    2.144185]
  Total dipole [Debye]:                                               5.449976
  <r^2> [a.u.]:                        [  56.613683,   20.315749,  209.242678]
  Total <r^2> [a.u.]:                                               286.172110

  Density matrix analysis:
  ------------------------
  NOs
    Occupation of frontier NOs:
       0.0446   1.9358
    Number of electrons: 26.000000
    Number of unpaired electrons: n_u =  0.71504, n_u,nl =  0.08530
    NO participation ratio (PR_NO): 23.017371
  
  
  Mulliken Population Analysis
  Atom      Charge (e)              h+              e-           Del q
  --------------------------------------------------------------------
   1 C       -0.188659        0.093030       -0.096753       -0.003723
   2 C       -0.188659        0.093030       -0.096753       -0.003723
   3 H        0.183434        0.016817       -0.009217        0.007600
   4 H        0.183434        0.016817       -0.009217        0.007600
   5 H        0.014032        0.018191       -0.012561        0.005630
   6 H        0.014032        0.018191       -0.012561        0.005630
   7 O       -1.065693        0.275218       -0.277708       -0.002490
   8 H        0.048079        0.015838       -0.032363       -0.016525
  --------------------------------------------------------------------
  Sum:       -1.000000        0.547133       -0.547133       -0.000000
  
  Multipole moment analysis of the density matrix
    Molecular charge:                      -1.000000
    Number of electrons:                   26.000000
      Center of electronic charge [Ang]: [  0.000000,  -0.000000,  -0.043641]
    Total nuclear charge:                  25.000000
      Center of nuclear charge [Ang]:    [  0.000000,   0.000000,  -0.000000]
    Dipole moment [D]:                     5.449974
      Cartesian components [D]:          [ -0.000000,   0.000000,   5.449974]
    RMS size of the density [Ang]:         1.755068
      Cartesian components [Ang]:        [  0.780864,   0.467768,   1.500569]
  
  Exciton analysis of the difference density matrix
    <r_h> [Ang]:                  [  0.000000,  -0.000000,  -0.467993]
    <r_e> [Ang]:                  [  0.000000,  -0.000000,  -0.531044]
    |<r_e - r_h>| [Ang]:            0.063051
    Hole size [Ang]:                1.921626
      Cartesian components [Ang]: [  0.844092,   0.711544,   1.572851]
    Electron size [Ang]:            2.253018
      Cartesian components [Ang]: [  1.092053,   0.918902,   1.743309]
--------------------------------------------------------------------------------
  Starting Davidson for singlet states of irrep B2 ... 
--------------------------------------------------------------------------------
   It NVec Conv  Avg. Norm  Max. Norm  Conv. states           Remark
--------------------------------------------------------------------------------
       100    0  1.475e-01  5.608e-01  0.2744 n n n n n n n n Guess.
    1  110    0  2.195e-02  1.470e-01  0.1222 n n n n n n n n 
    2  120    0  8.395e-03  6.990e-02  0.1215 n n n n n n n n 
    3  130    0  5.606e-03  5.272e-02  0.1215 n n n n n n n n 
    4  140    0  4.183e-03  4.162e-02  0.1215 n n n n n n n n 
    5  150    3  8.583e-04  8.533e-03  0.1215 y y n n n y n n 
    6  160    7  1.507e-04  1.499e-03  0.1215 y y y y y y n y 
    7  170    8  1.922e-05  1.912e-04  0.1215 y y y y y y y y 
    8  180    9  2.357e-06  2.348e-05  0.1215 y y y y y y y y 
    9  190   10  2.558e-07  2.548e-06  0.1215 y y y y y y y y Converged.
--------------------------------------------------------------------------------
  Davidson Summary: 
 ------------------------------------------------------------
  State  0: excitation energy =   0.1215 a.u.   (converged)
  State  1: excitation energy =   0.1233 a.u.   (converged)
  State  2: excitation energy =   0.1350 a.u.   (converged)
  State  3: excitation energy =   0.1759 a.u.   (converged)
  State  4: excitation energy =   0.2222 a.u.   (converged)
  State  5: excitation energy =   0.2311 a.u.   (converged)
  State  6: excitation energy =   0.2518 a.u.   (converged)
  State  7: excitation energy =   0.2874 a.u.   (converged)
  State  8: excitation energy =   0.3178 a.u.   (converged)
  State  9: excitation energy =   0.3239 a.u.   (converged)
 ------------------------------------------------------------


--------------------------------------------------------------------------------
                   State-averaged natural transition orbitals
--------------------------------------------------------------------------------
--------------------------------------------------------------------------------

--------------------------------------------------------------------------------
                             Excited State Summary
--------------------------------------------------------------------------------
--------------------------------------------------------------------------------

  Excited state 1 (singlet, B2)                                    [converged]
  ----------------------------------------------------------------------------
  Term symbol:  1 (1) B2                                    R^2 =  2.29349e-10

  Total energy:                                           -153.8473094695 a.u.
  Excitation energy:                                               3.304855 eV

  Osc. strength:                                                      0.054885
  Trans. dip. moment [a.u.]:           [  -0.000000,   -0.823324,   -0.000000]
  <i|r^2|0> [a.u.]:                    [  -0.000000,   -0.000000,   -0.000000]

  Dip. moment [a.u.]:                  [   0.000000,    0.000000,    2.305419]
  Total dipole [Debye]:                                               5.859792
  <r^2> [a.u.]:                        [  65.850091,   25.319508,  218.933828]
  Total <r^2> [a.u.]:                                               310.103426

  V1^2 = 0.8930, V2^2 = 0.1070

  Important amplitudes:
      occ i      occ j       vir a       vir b          v   
    ---------------------------------------------------------
     2 (B2) A               9 (A1) A                 -0.5162
     2 (B2) A              10 (A1) A                 -0.3796
    ---------------------------------------------------------

  Density matrix analysis:
  ------------------------
  NOs
    Occupation of frontier NOs:
       0.9671   0.9937
    Number of electrons: 26.000000
    Number of unpaired electrons: n_u =  2.72311, n_u,nl =  2.10512
    NO participation ratio (PR_NO):  3.801100
  
  
  Mulliken Population Analysis
  Atom      Charge (e)              h+              e-           Del q
  --------------------------------------------------------------------
   1 C       -0.598076        0.016328       -0.425745       -0.409417
   2 C       -0.598076        0.016328       -0.425745       -0.409417
   3 H        0.153508        0.002030       -0.031956       -0.029926
   4 H        0.153508        0.002030       -0.031956       -0.029926
   5 H        0.021932        0.013146       -0.005246        0.007900
   6 H        0.021932        0.013146       -0.005246        0.007900
   7 O       -0.860070        1.295623       -1.090000        0.205623
   8 H        0.705342        0.172196        0.485067        0.657263
  --------------------------------------------------------------------
  Sum:       -1.000000        1.530827       -1.530827        0.000000
  
  Multipole moment analysis of the density matrix
    Molecular charge:                      -1.000000
    Number of electrons:                   26.000000
      Center of electronic charge [Ang]: [ -0.000000,  -0.000000,  -0.046922]
    Total nuclear charge:                  25.000000
      Center of nuclear charge [Ang]:    [  0.000000,   0.000000,  -0.000000]
    Dipole moment [D]:                     5.859790
      Cartesian components [D]:          [  0.000000,   0.000000,   5.859790]
    RMS size of the density [Ang]:         1.826941
      Cartesian components [Ang]:        [  0.842156,   0.522206,   1.534857]
  
  Exciton analysis of the difference density matrix
    <r_h> [Ang]:                  [  0.000000,  -0.000000,  -1.625072]
    <r_e> [Ang]:                  [ -0.000000,  -0.000000,  -1.680807]
    |<r_e - r_h>| [Ang]:            0.055735
    Hole size [Ang]:                1.585517
      Cartesian components [Ang]: [  0.785377,   0.866850,   1.070336]
    Electron size [Ang]:            2.589841
      Cartesian components [Ang]: [  1.518683,   1.291026,   1.653520]

  Transition density matrix analysis:
  -----------------------------------
  
  CT numbers (Mulliken)
    omega =     0.8752
    <Phe> =    -0.0101
  
  Exciton analysis of the transition density matrix
    Trans. dipole moment [D]:             1.046341
      Cartesian components [D]:         [ -0.000000,  -1.046341,  -0.000000]
    <r_h> [Ang]:                        [ -0.000000,   0.000000,  -1.743992]
    <r_e> [Ang]:                        [ -0.000000,  -0.000000,  -1.855378]
    |<r_e - r_h>| [Ang]:                  0.111386
    Hole size [Ang]:                      1.084454
      Cartesian components [Ang]:       [  0.473640,   0.815433,   0.535512]
    Electron size [Ang]:                  2.986152
      Cartesian components [Ang]:       [  1.777392,   1.513609,   1.861980]
    RMS electron-hole separation [Ang]:   3.170006
      Cartesian components [Ang]:       [  1.838722,   1.713585,   1.931751]
    Covariance(r_h, r_e) [Ang^2]:         0.028307
    Correlation coefficient:              0.008741
    Center-of-mass size [Ang]:            1.592934
      Cartesian components [Ang]:       [  0.920056,   0.862484,   0.973169]

  Decomposition into state-averaged NTOs
    H- 0 -> L+ 0: -0.4641 ( 43.1%)
    H- 0 -> L+ 3: -0.4545 ( 41.3%)
    H- 0 -> L+ 4:  0.0953 (  1.8%)
                   omega =  87.5%
  ----------------------------------------------------------------------------


  Excited state 2 (singlet, B2)                                    [converged]
  ----------------------------------------------------------------------------
  Term symbol:  2 (1) B2                                    R^2 =  3.56604e-10

  Total energy:                                           -153.8454236872 a.u.
  Excitation energy:                                               3.356170 eV

  Osc. strength:                                                      0.006864
  Trans. dip. moment [a.u.]:           [   0.000000,    0.288917,    0.000000]
  <i|r^2|0> [a.u.]:                    [  -0.000000,   -0.000000,    0.000000]

  Dip. moment [a.u.]:                  [   0.000000,    0.000000,   -4.716414]
  Total dipole [Debye]:                                              11.987931
  <r^2> [a.u.]:                        [  71.070408,   25.590798,  223.943874]
  Total <r^2> [a.u.]:                                               320.605081

  V1^2 = 0.8685, V2^2 = 0.1315

  Important amplitudes:
      occ i      occ j       vir a       vir b          v   
    ---------------------------------------------------------
     2 (B2) A               8 (A1) A                  0.6418
     2 (B2) A              10 (A1) A                  0.0910
    ---------------------------------------------------------

  Density matrix analysis:
  ------------------------
  NOs
    Occupation of frontier NOs:
       0.9628   0.9951
    Number of electrons: 26.000000
    Number of unpaired electrons: n_u =  2.74680, n_u,nl =  2.11364
    NO participation ratio (PR_NO):  3.873422
  
  
  Mulliken Population Analysis
  Atom      Charge (e)              h+              e-           Del q
  --------------------------------------------------------------------
   1 C       -0.822928        0.050117       -0.684387       -0.634270
   2 C       -0.822928        0.050117       -0.684387       -0.634270
   3 H        0.146663       -0.002159       -0.034612       -0.036771
   4 H        0.146663       -0.002159       -0.034612       -0.036771
   5 H        0.231108        0.050463        0.166614        0.217077
   6 H        0.231108        0.050463        0.166614        0.217077
   7 O       -0.315508        1.372467       -0.622282        0.750185
   8 H        0.205823        0.137178        0.020566        0.157744
  --------------------------------------------------------------------
  Sum:       -1.000000        1.706486       -1.706486       -0.000000
  
  Multipole moment analysis of the density matrix
    Molecular charge:                      -1.000000
    Number of electrons:                   26.000000
      Center of electronic charge [Ang]: [ -0.000000,  -0.000000,   0.095993]
    Total nuclear charge:                  25.000000
      Center of nuclear charge [Ang]:    [  0.000000,   0.000000,  -0.000000]
    Dipole moment [D]:                     11.987927
      Cartesian components [D]:          [  0.000000,   0.000000, -11.987927]
    RMS size of the density [Ang]:         1.855750
      Cartesian components [Ang]:        [  0.874901,   0.524996,   1.550076]
  
  Exciton analysis of the difference density matrix
    <r_h> [Ang]:                  [  0.000000,  -0.000000,  -1.381842]
    <r_e> [Ang]:                  [ -0.000000,  -0.000000,   0.745613]
    |<r_e - r_h>| [Ang]:            2.127455
    Hole size [Ang]:                1.798224
      Cartesian components [Ang]: [  0.826893,   0.845972,   1.354322]
    Electron size [Ang]:            3.199608
      Cartesian components [Ang]: [  1.748156,   1.257492,   2.366464]

  Transition density matrix analysis:
  -----------------------------------
  
  CT numbers (Mulliken)
    omega =     0.8519
    <Phe> =    -0.0008
  
  Exciton analysis of the transition density matrix
    Trans. dipole moment [D]:             0.367177
      Cartesian components [D]:         [  0.000000,   0.367177,   0.000000]
    <r_h> [Ang]:                        [ -0.000000,   0.000000,  -1.729815]
    <r_e> [Ang]:                        [ -0.000000,   0.000000,   2.044825]
    |<r_e - r_h>| [Ang]:                  3.774640
    Hole size [Ang]:                      1.110543
      Cartesian components [Ang]:       [  0.476368,   0.819082,   0.579210]
    Electron size [Ang]:                  3.372157
      Cartesian components [Ang]:       [  2.162049,   1.544863,   2.076146]
    RMS electron-hole separation [Ang]:   5.178692
      Cartesian components [Ang]:       [  2.213524,   1.746350,   4.343896]
    Covariance(r_h, r_e) [Ang^2]:         0.016902
    Correlation coefficient:              0.004513
    Center-of-mass size [Ang]:            1.777537
      Cartesian components [Ang]:       [  1.107144,   0.875394,   1.080534]

  Decomposition into state-averaged NTOs
    H- 0 -> L+ 1: -0.6095 ( 74.3%)
    H- 0 -> L+ 3:  0.1996 (  8.0%)
    H- 0 -> L+ 0: -0.1087 (  2.4%)
                   omega =  85.2%
  ----------------------------------------------------------------------------


  Excited state 3 (singlet, B2)                                    [converged]
  ----------------------------------------------------------------------------
  Term symbol:  3 (1) B2                                    R^2 =  8.77456e-10

  Total energy:                                           -153.8337563437 a.u.
  Excitation energy:                                               3.673655 eV

  Osc. strength:                                                      0.001104
  Trans. dip. moment [a.u.]:           [   0.000000,   -0.110757,    0.000000]
  <i|r^2|0> [a.u.]:                    [  -0.000000,   -0.000000,   -0.000000]

  Dip. moment [a.u.]:                  [   0.000000,    0.000000,   -2.797523]
  Total dipole [Debye]:                                               7.110595
  <r^2> [a.u.]:                        [  64.342844,   28.055488,  202.199442]
  Total <r^2> [a.u.]:                                               294.597774

  V1^2 = 0.8720, V2^2 = 0.1280

  Important amplitudes:
      occ i      occ j       vir a       vir b          v   
    ---------------------------------------------------------
     4 (B1) A               1 (A2) A                 -0.6355
     4 (B1) A               2 (A2) A                 -0.1752
    ---------------------------------------------------------

  Density matrix analysis:
  ------------------------
  NOs
    Occupation of frontier NOs:
       0.9670   0.9941
    Number of electrons: 26.000000
    Number of unpaired electrons: n_u =  2.72616, n_u,nl =  2.10285
    NO participation ratio (PR_NO):  3.809457
  
  
  Mulliken Population Analysis
  Atom      Charge (e)              h+              e-           Del q
  --------------------------------------------------------------------
   1 C       -0.618422        0.084092       -0.513855       -0.429764
   2 C       -0.618422        0.084092       -0.513855       -0.429764
   3 H        0.114962       -0.000535       -0.067937       -0.068472
   4 H        0.114962       -0.000535       -0.067937       -0.068472
   5 H        0.011723        0.011626       -0.013935       -0.002309
   6 H        0.011723        0.011626       -0.013935       -0.002309
   7 O       -0.161441        1.361439       -0.457187        0.904252
   8 H        0.144915        0.117674       -0.020837        0.096837
  --------------------------------------------------------------------
  Sum:       -1.000000        1.669480       -1.669480       -0.000000
  
  Multipole moment analysis of the density matrix
    Molecular charge:                      -1.000000
    Number of electrons:                   26.000000
      Center of electronic charge [Ang]: [ -0.000000,  -0.000000,   0.056938]
    Total nuclear charge:                  25.000000
      Center of nuclear charge [Ang]:    [  0.000000,   0.000000,  -0.000000]
    Dipole moment [D]:                     7.110592
      Cartesian components [D]:          [  0.000000,   0.000000,  -7.110592]
    RMS size of the density [Ang]:         1.780357
      Cartesian components [Ang]:        [  0.832462,   0.549697,   1.474623]
  
  Exciton analysis of the difference density matrix
    <r_h> [Ang]:                  [  0.000000,  -0.000000,  -1.411813]
    <r_e> [Ang]:                  [ -0.000000,  -0.000000,   0.154567]
    |<r_e - r_h>| [Ang]:            1.566380
    Hole size [Ang]:                1.699844
      Cartesian components [Ang]: [  0.889778,   0.735113,   1.247948]
    Electron size [Ang]:            2.504409
      Cartesian components [Ang]: [  1.445043,   1.355953,   1.531440]

  Transition density matrix analysis:
  -----------------------------------
  
  CT numbers (Mulliken)
    omega =     0.8473
    <Phe> =    -0.0005
  
  Exciton analysis of the transition density matrix
    Trans. dipole moment [D]:             0.140758
      Cartesian components [D]:         [  0.000000,  -0.140758,   0.000000]
    <r_h> [Ang]:                        [  0.000000,  -0.000000,  -1.694871]
    <r_e> [Ang]:                        [ -0.000000,  -0.000000,   1.020313]
    |<r_e - r_h>| [Ang]:                  2.715184
    Hole size [Ang]:                      1.165533
      Cartesian components [Ang]:       [  0.815730,   0.465015,   0.690516]
    Electron size [Ang]:                  2.558461
      Cartesian components [Ang]:       [  1.722155,   1.628920,   0.962563]
    RMS electron-hole separation [Ang]:   3.906020
      Cartesian components [Ang]:       [  1.901297,   1.693598,   2.962059]
    Covariance(r_h, r_e) [Ang^2]:         0.009709
    Correlation coefficient:              0.003256
    Center-of-mass size [Ang]:            1.407445
      Cartesian components [Ang]:       [  0.954926,   0.847196,   0.592687]

  Decomposition into state-averaged NTOs
    H- 2 -> L+ 2:  0.6259 ( 78.4%)
    H- 2 -> L+ 5: -0.1754 (  6.2%)
                   omega =  84.7%
  ----------------------------------------------------------------------------


  Excited state 4 (singlet, B2)                                    [converged]
  ----------------------------------------------------------------------------
  Term symbol:  4 (1) B2                                    R^2 =  1.03883e-09

  Total energy:                                           -153.7928833950 a.u.
  Excitation energy:                                               4.785864 eV

  Osc. strength:                                                      0.000634
  Trans. dip. moment [a.u.]:           [   0.000000,    0.073540,    0.000000]
  <i|r^2|0> [a.u.]:                    [  -0.000000,   -0.000000,    0.000000]

  Dip. moment [a.u.]:                  [  -0.000000,    0.000000,   -2.126306]
  Total dipole [Debye]:                                               5.404532
  <r^2> [a.u.]:                        [  70.058024,   23.642212,  218.396133]
  Total <r^2> [a.u.]:                                               312.096369

  V1^2 = 0.8791, V2^2 = 0.1209

  Important amplitudes:
      occ i      occ j       vir a       vir b          v   
    ---------------------------------------------------------
     2 (B2) A              10 (A1) A                  0.4754
     2 (B2) A               9 (A1) A                 -0.4023
    ---------------------------------------------------------

  Density matrix analysis:
  ------------------------
  NOs
    Occupation of frontier NOs:
       0.9651   0.9932
    Number of electrons: 26.000000
    Number of unpaired electrons: n_u =  2.73949, n_u,nl =  2.11079
    NO participation ratio (PR_NO):  3.853156
  
  
  Mulliken Population Analysis
  Atom      Charge (e)              h+              e-           Del q
  --------------------------------------------------------------------
   1 C       -0.593690        0.041298       -0.446329       -0.405032
   2 C       -0.593690        0.041298       -0.446329       -0.405032
   3 H        0.187599        0.002411        0.001754        0.004165
   4 H        0.187599        0.002411        0.001754        0.004165
   5 H        0.047268        0.034595       -0.001358        0.033237
   6 H        0.047268        0.034595       -0.001358        0.033237
   7 O       -0.605411        1.339977       -0.879694        0.460282
   8 H        0.323056        0.143960        0.131018        0.274977
  --------------------------------------------------------------------
  Sum:       -1.000000        1.640544       -1.640544        0.000000
  
  Multipole moment analysis of the density matrix
    Molecular charge:                      -1.000000
    Number of electrons:                   26.000000
      Center of electronic charge [Ang]: [  0.000000,  -0.000000,   0.043277]
    Total nuclear charge:                  25.000000
      Center of nuclear charge [Ang]:    [  0.000000,   0.000000,  -0.000000]
    Dipole moment [D]:                     5.404530
      Cartesian components [D]:          [ -0.000000,   0.000000,  -5.404530]
    RMS size of the density [Ang]:         1.832896
      Cartesian components [Ang]:        [  0.868647,   0.504613,   1.533077]
  
  Exciton analysis of the difference density matrix
    <r_h> [Ang]:                  [  0.000000,  -0.000000,  -1.447542]
    <r_e> [Ang]:                  [  0.000000,  -0.000000,  -0.070044]
    |<r_e - r_h>| [Ang]:            1.377499
    Hole size [Ang]:                1.740527
      Cartesian components [Ang]: [  0.810437,   0.848590,   1.285505]
    Electron size [Ang]:            3.089496
      Cartesian components [Ang]: [  1.718038,   1.134860,   2.303350]

  Transition density matrix analysis:
  -----------------------------------
  
  CT numbers (Mulliken)
    omega =     0.8621
    <Phe> =    -0.0028
  
  Exciton analysis of the transition density matrix
    Trans. dipole moment [D]:             0.093460
      Cartesian components [D]:         [  0.000000,   0.093460,   0.000000]
    <r_h> [Ang]:                        [ -0.000000,   0.000000,  -1.730742]
    <r_e> [Ang]:                        [  0.000000,  -0.000000,   0.602949]
    |<r_e - r_h>| [Ang]:                  2.333692
    Hole size [Ang]:                      1.106337
      Cartesian components [Ang]:       [  0.475295,   0.817468,   0.574303]
    Electron size [Ang]:                  3.560534
      Cartesian components [Ang]:       [  2.085033,   1.352058,   2.549898]
    RMS electron-hole separation [Ang]:   4.389835
      Cartesian components [Ang]:       [  2.138017,   1.579941,   3.493325]
    Covariance(r_h, r_e) [Ang^2]:         0.038424
    Correlation coefficient:              0.009754
    Center-of-mass size [Ang]:            1.869374
      Cartesian components [Ang]:       [  1.069512,   0.790002,   1.314001]

  Decomposition into state-averaged NTOs
    H- 0 -> L+ 0: -0.4489 ( 40.3%)
    H- 0 -> L+ 3:  0.4153 ( 34.5%)
    H- 0 -> L+ 1:  0.2164 (  9.4%)
    H- 0 -> L+ 4: -0.0934 (  1.7%)
                   omega =  86.2%
  ----------------------------------------------------------------------------


  Excited state 5 (singlet, B2)                                    [converged]
  ----------------------------------------------------------------------------
  Term symbol:  5 (1) B2                                    R^2 =  5.33700e-09

  Total energy:                                           -153.7465582840 a.u.
  Excitation energy:                                               6.046435 eV

  Osc. strength:                                                      0.002753
  Trans. dip. moment [a.u.]:           [  -0.000000,   -0.136335,    0.000000]
  <i|r^2|0> [a.u.]:                    [  -0.000000,   -0.000000,    0.000000]

  Dip. moment [a.u.]:                  [   0.000000,    0.000000,   -1.801666]
  Total dipole [Debye]:                                               4.579380
  <r^2> [a.u.]:                        [  62.928364,   30.412760,  205.211509]
  Total <r^2> [a.u.]:                                               298.552634

  V1^2 = 0.8851, V2^2 = 0.1149

  Important amplitudes:
      occ i      occ j       vir a       vir b          v   
    ---------------------------------------------------------
     2 (B2) A              11 (A1) A                  0.6123
     2 (B2) A              10 (A1) A                 -0.2300
    ---------------------------------------------------------

  Density matrix analysis:
  ------------------------
  NOs
    Occupation of frontier NOs:
       0.9709   0.9886
    Number of electrons: 26.000000
    Number of unpaired electrons: n_u =  2.74312, n_u,nl =  2.11133
    NO participation ratio (PR_NO):  3.859123
  
  
  Mulliken Population Analysis
  Atom      Charge (e)              h+              e-           Del q
  --------------------------------------------------------------------
   1 C       -0.667150        0.045724       -0.524215       -0.478491
   2 C       -0.667150        0.045724       -0.524215       -0.478491
   3 H        0.213012        0.000914        0.028664        0.029578
   4 H        0.213012        0.000914        0.028664        0.029578
   5 H        0.023868        0.010670       -0.000833        0.009837
   6 H        0.023868        0.010670       -0.000833        0.009837
   7 O       -0.332094        1.343398       -0.609798        0.733599
   8 H        0.192633        0.124944        0.019610        0.144554
  --------------------------------------------------------------------
  Sum:       -1.000000        1.582957       -1.582957       -0.000000
  
  Multipole moment analysis of the density matrix
    Molecular charge:                      -1.000000
    Number of electrons:                   26.000000
      Center of electronic charge [Ang]: [ -0.000000,  -0.000000,   0.036669]
    Total nuclear charge:                  25.000000
      Center of nuclear charge [Ang]:    [  0.000000,   0.000000,  -0.000000]
    Dipole moment [D]:                     4.579378
      Cartesian components [D]:          [  0.000000,   0.000000,  -4.579378]
    RMS size of the density [Ang]:         1.792809
      Cartesian components [Ang]:        [  0.823261,   0.572325,   1.486220]
  
  Exciton analysis of the difference density matrix
    <r_h> [Ang]:                  [  0.000000,  -0.000000,  -1.525549]
    <r_e> [Ang]:                  [ -0.000000,  -0.000000,  -0.206464]
    |<r_e - r_h>| [Ang]:            1.319085
    Hole size [Ang]:                1.640235
      Cartesian components [Ang]: [  0.783673,   0.857851,   1.157722]
    Electron size [Ang]:            2.676786
      Cartesian components [Ang]: [  1.315760,   1.588109,   1.706420]

  Transition density matrix analysis:
  -----------------------------------
  
  CT numbers (Mulliken)
    omega =     0.8675
    <Phe> =    -0.0008
  
  Exciton analysis of the transition density matrix
    Trans. dipole moment [D]:             0.173265
      Cartesian components [D]:         [ -0.000000,  -0.173265,   0.000000]
    <r_h> [Ang]:                        [ -0.000000,   0.000000,  -1.710033]
    <r_e> [Ang]:                        [ -0.000000,  -0.000000,   0.431561]
    |<r_e - r_h>| [Ang]:                  2.141593
    Hole size [Ang]:                      1.131184
      Cartesian components [Ang]:       [  0.477228,   0.816418,   0.620719]
    Electron size [Ang]:                  2.955046
      Cartesian components [Ang]:       [  1.511713,   1.925982,   1.654574]
    RMS electron-hole separation [Ang]:   3.805693
      Cartesian components [Ang]:       [  1.584766,   2.084566,   2.761594]
    Covariance(r_h, r_e) [Ang^2]:         0.057500
    Correlation coefficient:              0.017202
    Center-of-mass size [Ang]:            1.591138
      Cartesian components [Ang]:       [  0.792869,   1.049580,   0.895243]

  Decomposition into state-averaged NTOs
    H- 0 -> L+ 4:  0.6396 ( 81.8%)
    H- 0 -> L+ 3:  0.1456 (  4.2%)
                   omega =  86.7%
  ----------------------------------------------------------------------------


  Excited state 6 (singlet, B2)                                    [converged]
  ----------------------------------------------------------------------------
  Term symbol:  6 (1) B2                                    R^2 =  4.38861e-10

  Total energy:                                           -153.7376156964 a.u.
  Excitation energy:                                               6.289775 eV

  Osc. strength:                                                      0.070265
  Trans. dip. moment [a.u.]:           [  -0.000000,    0.675264,   -0.000000]
  <i|r^2|0> [a.u.]:                    [  -0.000000,    0.000000,    0.000000]

  Dip. moment [a.u.]:                  [   0.000000,    0.000000,   -0.834737]
  Total dipole [Debye]:                                               2.121691
  <r^2> [a.u.]:                        [  64.867521,   25.050607,  230.971282]
  Total <r^2> [a.u.]:                                               320.889410

  V1^2 = 0.9475, V2^2 = 0.0525

  Important amplitudes:
      occ i      occ j       vir a       vir b          v   
    ---------------------------------------------------------
     1 (B2) A               8 (A1) A                 -0.6629
     1 (B2) A              10 (A1) A                  0.1113
    ---------------------------------------------------------

  Density matrix analysis:
  ------------------------
  NOs
    Occupation of frontier NOs:
       0.9870   0.9900
    Number of electrons: 26.000000
    Number of unpaired electrons: n_u =  2.62009, n_u,nl =  2.06863
    NO participation ratio (PR_NO):  3.480817
  
  
  Mulliken Population Analysis
  Atom      Charge (e)              h+              e-           Del q
  --------------------------------------------------------------------
   1 C       -0.473172        0.517107       -0.801621       -0.284514
   2 C       -0.473172        0.517107       -0.801621       -0.284514
   3 H        0.231485        0.048720       -0.000669        0.048051
   4 H        0.231485        0.048720       -0.000669        0.048051
   5 H        0.262173        0.124889        0.123252        0.248142
   6 H        0.262173        0.124889        0.123252        0.248142
   7 O       -1.105798        0.047977       -0.088082       -0.040105
   8 H        0.064826        0.021020       -0.004273        0.016747
  --------------------------------------------------------------------
  Sum:       -1.000000        1.450430       -1.450430       -0.000000
  
  Multipole moment analysis of the density matrix
    Molecular charge:                      -1.000000
    Number of electrons:                   26.000000
      Center of electronic charge [Ang]: [ -0.000000,  -0.000000,   0.016989]
    Total nuclear charge:                  25.000000
      Center of nuclear charge [Ang]:    [  0.000000,   0.000000,  -0.000000]
    Dipole moment [D]:                     2.121691
      Cartesian components [D]:          [  0.000000,   0.000000,  -2.121691]
    RMS size of the density [Ang]:         1.858977
      Cartesian components [Ang]:        [  0.835850,   0.519426,   1.577133]
  
  Exciton analysis of the difference density matrix
    <r_h> [Ang]:                  [  0.000000,   0.000000,   0.940500]
    <r_e> [Ang]:                  [ -0.000000,   0.000000,   2.027335]
    |<r_e - r_h>| [Ang]:            1.086835
    Hole size [Ang]:                1.757578
      Cartesian components [Ang]: [  1.023653,   0.900903,   1.108869]
    Electron size [Ang]:            2.562471
      Cartesian components [Ang]: [  1.625238,   1.313684,   1.482934]

  Transition density matrix analysis:
  -----------------------------------
  
  CT numbers (Mulliken)
    omega =     0.9161
    <Phe> =    -0.0083
  
  Exciton analysis of the transition density matrix
    Trans. dipole moment [D]:             0.858175
      Cartesian components [D]:         [ -0.000000,   0.858175,  -0.000000]
    <r_h> [Ang]:                        [  0.000000,  -0.000000,   0.996260]
    <r_e> [Ang]:                        [ -0.000000,  -0.000000,   2.635905]
    |<r_e - r_h>| [Ang]:                  1.639645
    Hole size [Ang]:                      1.325287
      Cartesian components [Ang]:       [  0.763810,   0.889775,   0.617481]
    Electron size [Ang]:                  2.673572
      Cartesian components [Ang]:       [  1.850801,   1.523808,   1.183440]
    RMS electron-hole separation [Ang]:   3.389506
      Cartesian components [Ang]:       [  1.995870,   1.757062,   2.101901]
    Covariance(r_h, r_e) [Ang^2]:         0.052027
    Correlation coefficient:              0.014683
    Center-of-mass size [Ang]:            1.500702
      Cartesian components [Ang]:       [  1.004271,   0.886018,   0.677140]

  Decomposition into state-averaged NTOs
    H- 1 -> L+ 1:  0.6699 ( 89.7%)
                   omega =  91.6%
  ----------------------------------------------------------------------------


  Excited state 7 (singlet, B2)                                    [converged]
  ----------------------------------------------------------------------------
  Term symbol:  7 (1) B2                                    R^2 =  1.91885e-08

  Total energy:                                           -153.7169414870 a.u.
  Excitation energy:                                               6.852349 eV

  Osc. strength:                                                      0.006459
  Trans. dip. moment [a.u.]:           [   0.000000,   -0.196146,    0.000000]
  <i|r^2|0> [a.u.]:                    [   0.000000,    0.000000,    0.000000]

  Dip. moment [a.u.]:                  [   0.000000,   -0.000000,   -2.776453]
  Total dipole [Debye]:                                               7.057041
  <r^2> [a.u.]:                        [  66.158224,   30.011516,  202.950085]
  Total <r^2> [a.u.]:                                               299.119825

  V1^2 = 0.8664, V2^2 = 0.1336

  Important amplitudes:
      occ i      occ j       vir a       vir b          v   
    ---------------------------------------------------------
     4 (B1) A               2 (A2) A                  0.6293
     4 (B1) A               1 (A2) A                 -0.1794
    ---------------------------------------------------------

  Density matrix analysis:
  ------------------------
  NOs
    Occupation of frontier NOs:
       0.9703   0.9842
    Number of electrons: 26.000000
    Number of unpaired electrons: n_u =  2.75129, n_u,nl =  2.11034
    NO participation ratio (PR_NO):  3.902431
  
  
  Mulliken Population Analysis
  Atom      Charge (e)              h+              e-           Del q
  --------------------------------------------------------------------
   1 C       -0.597664        0.099708       -0.508713       -0.409005
   2 C       -0.597664        0.099708       -0.508713       -0.409005
   3 H        0.107348       -0.003468       -0.072617       -0.076086
   4 H        0.107348       -0.003468       -0.072617       -0.076086
   5 H        0.003225        0.009349       -0.020156       -0.010807
   6 H        0.003225        0.009349       -0.020156       -0.010807
   7 O       -0.168818        1.345857       -0.448983        0.896875
   8 H        0.143000        0.115454       -0.020533        0.094921
  --------------------------------------------------------------------
  Sum:       -1.000000        1.672488       -1.672488       -0.000000
  
  Multipole moment analysis of the density matrix
    Molecular charge:                      -1.000000
    Number of electrons:                   26.000000
      Center of electronic charge [Ang]: [ -0.000000,   0.000000,   0.056509]
    Total nuclear charge:                  25.000000
      Center of nuclear charge [Ang]:    [  0.000000,   0.000000,  -0.000000]
    Dipole moment [D]:                     7.057039
      Cartesian components [D]:          [  0.000000,  -0.000000,  -7.057039]
    RMS size of the density [Ang]:         1.793997
      Cartesian components [Ang]:        [  0.844124,   0.568537,   1.477378]
  
  Exciton analysis of the difference density matrix
    <r_h> [Ang]:                  [  0.000000,  -0.000000,  -1.383048]
    <r_e> [Ang]:                  [  0.000000,   0.000000,   0.173848]
    |<r_e - r_h>| [Ang]:            1.556896
    Hole size [Ang]:                1.697850
      Cartesian components [Ang]: [  0.880029,   0.715557,   1.263418]
    Electron size [Ang]:            2.633090
      Cartesian components [Ang]: [  1.540297,   1.461303,   1.557318]

  Transition density matrix analysis:
  -----------------------------------
  
  CT numbers (Mulliken)
    omega =     0.8428
    <Phe> =    -0.0009
  
  Exciton analysis of the transition density matrix
    Trans. dipole moment [D]:             0.249276
      Cartesian components [D]:         [  0.000000,  -0.249276,   0.000000]
    <r_h> [Ang]:                        [  0.000000,  -0.000000,  -1.668794]
    <r_e> [Ang]:                        [ -0.000000,   0.000000,   1.028397]
    |<r_e - r_h>| [Ang]:                  2.697191
    Hole size [Ang]:                      1.198983
      Cartesian components [Ang]:       [  0.818531,   0.463683,   0.743348]
    Electron size [Ang]:                  2.785254
      Cartesian components [Ang]:       [  1.857918,   1.796136,   1.039076]
    RMS electron-hole separation [Ang]:   4.055425
      Cartesian components [Ang]:       [  2.026115,   1.854728,   2.983507]
    Covariance(r_h, r_e) [Ang^2]:         0.011784
    Correlation coefficient:              0.003529
    Center-of-mass size [Ang]:            1.518122
      Cartesian components [Ang]:       [  1.017173,   0.927658,   0.639925]

  Decomposition into state-averaged NTOs
    H- 2 -> L+ 5: -0.6258 ( 78.3%)
    H- 2 -> L+ 2: -0.1641 (  5.4%)
                   omega =  84.3%
  ----------------------------------------------------------------------------


  Excited state 8 (singlet, B2)                                    [converged]
  ----------------------------------------------------------------------------
  Term symbol:  8 (1) B2                                    R^2 =  4.72357e-09

  Total energy:                                           -153.6813268798 a.u.
  Excitation energy:                                               7.821471 eV

  Osc. strength:                                                      0.029173
  Trans. dip. moment [a.u.]:           [   0.000000,    0.390180,    0.000000]
  <i|r^2|0> [a.u.]:                    [  -0.000000,    0.000000,   -0.000000]

  Dip. moment [a.u.]:                  [   0.000000,    0.000000,    2.765586]
  Total dipole [Debye]:                                               7.029420
  <r^2> [a.u.]:                        [  74.459511,   24.363267,  214.159715]
  Total <r^2> [a.u.]:                                               312.982493

  V1^2 = 0.9478, V2^2 = 0.0522

  Important amplitudes:
      occ i      occ j       vir a       vir b          v   
    ---------------------------------------------------------
     1 (B2) A               9 (A1) A                  0.6635
     1 (B2) A              10 (A1) A                 -0.0917
    ---------------------------------------------------------

  Density matrix analysis:
  ------------------------
  NOs
    Occupation of frontier NOs:
       0.9840   0.9920
    Number of electrons: 26.000000
    Number of unpaired electrons: n_u =  2.60634, n_u,nl =  2.06527
    NO participation ratio (PR_NO):  3.449148
  
  
  Mulliken Population Analysis
  Atom      Charge (e)              h+              e-           Del q
  --------------------------------------------------------------------
   1 C       -0.489658        0.520773       -0.821773       -0.300999
   2 C       -0.489658        0.520773       -0.821773       -0.300999
   3 H        0.335500        0.087050        0.065016        0.152066
   4 H        0.335500        0.087050        0.065016        0.152066
   5 H        0.096997        0.094975       -0.012009        0.082966
   6 H        0.096997        0.094975       -0.012009        0.082966
   7 O       -0.966388        0.047255        0.052051        0.099306
   8 H        0.080709        0.018785        0.013846        0.032630
  --------------------------------------------------------------------
  Sum:       -1.000000        1.471635       -1.471635       -0.000000
  
  Multipole moment analysis of the density matrix
    Molecular charge:                      -1.000000
    Number of electrons:                   26.000000
      Center of electronic charge [Ang]: [ -0.000000,  -0.000000,  -0.056288]
    Total nuclear charge:                  25.000000
      Center of nuclear charge [Ang]:    [  0.000000,   0.000000,  -0.000000]
    Dipole moment [D]:                     7.029418
      Cartesian components [D]:          [  0.000000,   0.000000,   7.029418]
    RMS size of the density [Ang]:         1.835145
      Cartesian components [Ang]:        [  0.895518,   0.512250,   1.517696]
  
  Exciton analysis of the difference density matrix
    <r_h> [Ang]:                  [  0.000000,   0.000000,   0.900252]
    <r_e> [Ang]:                  [ -0.000000,  -0.000000,   0.676806]
    |<r_e - r_h>| [Ang]:            0.223446
    Hole size [Ang]:                1.734714
      Cartesian components [Ang]: [  1.030966,   0.887305,   1.076583]
    Electron size [Ang]:            2.909159
      Cartesian components [Ang]: [  2.111555,   1.247994,   1.564306]

  Transition density matrix analysis:
  -----------------------------------
  
  CT numbers (Mulliken)
    omega =     0.9167
    <Phe> =    -0.0028
  
  Exciton analysis of the transition density matrix
    Trans. dipole moment [D]:             0.495869
      Cartesian components [D]:         [  0.000000,   0.495869,   0.000000]
    <r_h> [Ang]:                        [  0.000000,   0.000000,   1.024044]
    <r_e> [Ang]:                        [ -0.000000,  -0.000000,   0.657807]
    |<r_e - r_h>| [Ang]:                  0.366237
    Hole size [Ang]:                      1.298676
      Cartesian components [Ang]:       [  0.766315,   0.889542,   0.555009]
    Electron size [Ang]:                  3.359735
      Cartesian components [Ang]:       [  2.479729,   1.458939,   1.735011]
    RMS electron-hole separation [Ang]:   3.614081
      Cartesian components [Ang]:       [  2.588437,   1.705165,   1.858490]
    Covariance(r_h, r_e) [Ang^2]:         0.023464
    Correlation coefficient:              0.005378
    Center-of-mass size [Ang]:            1.804253
      Cartesian components [Ang]:       [  1.301210,   0.856152,   0.910595]

  Decomposition into state-averaged NTOs
    H- 1 -> L+ 0:  0.6719 ( 90.3%)
    H- 1 -> L+ 1: -0.0718 (  1.0%)
                   omega =  91.7%
  ----------------------------------------------------------------------------


  Excited state 9 (singlet, B2)                                    [converged]
  ----------------------------------------------------------------------------
  Term symbol:  9 (1) B2                                    R^2 =  2.28628e-07

  Total energy:                                           -153.6509894559 a.u.
  Excitation energy:                                               8.646995 eV

  Osc. strength:                                                      0.000001
  Trans. dip. moment [a.u.]:           [  -0.000000,    0.001616,    0.000000]
  <i|r^2|0> [a.u.]:                    [  -0.000000,    0.000000,   -0.000000]

  Dip. moment [a.u.]:                  [  -0.000000,    0.000000,    1.748298]
  Total dipole [Debye]:                                               4.443732
  <r^2> [a.u.]:                        [  58.714782,   24.752322,  207.745440]
  Total <r^2> [a.u.]:                                               291.212544

  V1^2 = 0.9436, V2^2 = 0.0564

  Important amplitudes:
      occ i      occ j       vir a       vir b          v   
    ---------------------------------------------------------
     3 (B1) A               1 (A2) A                  0.5665
     3 (B1) A               2 (A2) A                  0.3504
    ---------------------------------------------------------

  Density matrix analysis:
  ------------------------
  NOs
    Occupation of frontier NOs:
       0.9461   1.0671
    Number of electrons: 26.000000
    Number of unpaired electrons: n_u =  2.70780, n_u,nl =  2.11069
    NO participation ratio (PR_NO):  4.076539
  
  
  Mulliken Population Analysis
  Atom      Charge (e)              h+              e-           Del q
  --------------------------------------------------------------------
   1 C       -0.441000        0.240359       -0.492700       -0.252342
   2 C       -0.441000        0.240359       -0.492700       -0.252342
   3 H        0.294012        0.128291       -0.017713        0.110578
   4 H        0.294012        0.128291       -0.017713        0.110578
   5 H        0.130736        0.126708       -0.010004        0.116704
   6 H        0.130736        0.126708       -0.010004        0.116704
   7 O       -1.028729        0.095409       -0.058445        0.036964
   8 H        0.061235        0.015512       -0.002356        0.013156
  --------------------------------------------------------------------
  Sum:       -1.000000        1.101634       -1.101634       -0.000000
  
  Multipole moment analysis of the density matrix
    Molecular charge:                      -1.000000
    Number of electrons:                   26.000000
      Center of electronic charge [Ang]: [  0.000000,  -0.000000,  -0.035583]
    Total nuclear charge:                  25.000000
      Center of nuclear charge [Ang]:    [  0.000000,   0.000000,  -0.000000]
    Dipole moment [D]:                     4.443731
      Cartesian components [D]:          [ -0.000000,   0.000000,   4.443731]
    RMS size of the density [Ang]:         1.770646
      Cartesian components [Ang]:        [  0.795222,   0.516324,   1.495400]
  
  Exciton analysis of the difference density matrix
    <r_h> [Ang]:                  [ -0.000000,  -0.000000,   0.695842]
    <r_e> [Ang]:                  [  0.000000,  -0.000000,   0.886009]
    |<r_e - r_h>| [Ang]:            0.190167
    Hole size [Ang]:                1.775643
      Cartesian components [Ang]: [  1.105987,   0.540208,   1.279796]
    Electron size [Ang]:            2.033062
      Cartesian components [Ang]: [  1.325629,   1.191459,   0.977995]

  Transition density matrix analysis:
  -----------------------------------
  
  CT numbers (Mulliken)
    omega =     0.9152
    <Phe> =    -0.0098
  
  Exciton analysis of the transition density matrix
    Trans. dipole moment [D]:             0.002053
      Cartesian components [D]:         [ -0.000000,   0.002053,   0.000000]
    <r_h> [Ang]:                        [  0.000000,   0.000000,   0.796927]
    <r_e> [Ang]:                        [  0.000000,  -0.000000,   0.992898]
    |<r_e - r_h>| [Ang]:                  0.195971
    Hole size [Ang]:                      1.640951
      Cartesian components [Ang]:       [  1.099142,   0.442558,   1.135231]
    Electron size [Ang]:                  2.016035
      Cartesian components [Ang]:       [  1.360990,   1.233899,   0.830420]
    RMS electron-hole separation [Ang]:   2.539938
      Cartesian components [Ang]:       [  1.715094,   1.311273,   1.338021]
    Covariance(r_h, r_e) [Ang^2]:         0.172119
    Correlation coefficient:              0.052028
    Center-of-mass size [Ang]:            1.332418
      Cartesian components [Ang]:       [  0.891525,   0.655227,   0.742428]

  Decomposition into state-averaged NTOs
    H- 3 -> L+ 2:  0.6569 ( 86.3%)
    H- 0 -> L+ 7: -0.1294 (  3.3%)
                   omega =  91.5%
  ----------------------------------------------------------------------------


  Excited state 10 (singlet, B2)                                    [converged]
  ----------------------------------------------------------------------------
  Term symbol:  10 (1) B2                                   R^2 =  2.54797e-06

  Total energy:                                           -153.6448802432 a.u.
  Excitation energy:                                               8.813235 eV

  Osc. strength:                                                      0.000008
  Trans. dip. moment [a.u.]:           [   0.000000,   -0.005947,   -0.000000]
  <i|r^2|0> [a.u.]:                    [  -0.000000,   -0.000000,    0.000000]

  Dip. moment [a.u.]:                  [  -0.000000,   -0.000000,   -2.732745]
  Total dipole [Debye]:                                               6.945947
  <r^2> [a.u.]:                        [  61.851581,   37.415268,  204.401036]
  Total <r^2> [a.u.]:                                               303.667885

  V1^2 = 0.8822, V2^2 = 0.1178

  Important amplitudes:
      occ i      occ j       vir a       vir b          v   
    ---------------------------------------------------------
     7 (A1) A               3 (B2) A                  0.6379
     2 (B2) A              13 (A1) A                  0.0829
    ---------------------------------------------------------

  Density matrix analysis:
  ------------------------
  NOs
    Occupation of frontier NOs:
       0.9390   1.0375
    Number of electrons: 26.000000
    Number of unpaired electrons: n_u =  2.81989, n_u,nl =  2.15478
    NO participation ratio (PR_NO):  4.292639
  
  
  Mulliken Population Analysis
  Atom      Charge (e)              h+              e-           Del q
  --------------------------------------------------------------------
   1 C       -0.627766        0.073436       -0.512543       -0.439108
   2 C       -0.627766        0.073436       -0.512543       -0.439108
   3 H        0.132252        0.001203       -0.052385       -0.051182
   4 H        0.132252        0.001203       -0.052385       -0.051182
   5 H        0.028212        0.018762       -0.004582        0.014180
   6 H        0.028212        0.018762       -0.004582        0.014180
   7 O       -0.372029        1.129416       -0.435752        0.693664
   8 H        0.306634        0.273350       -0.014795        0.258555
  --------------------------------------------------------------------
  Sum:       -1.000000        1.589568       -1.589568        0.000000
  
  Multipole moment analysis of the density matrix
    Molecular charge:                      -1.000000
    Number of electrons:                   26.000000
      Center of electronic charge [Ang]: [  0.000000,   0.000000,   0.055619]
    Total nuclear charge:                  25.000000
      Center of nuclear charge [Ang]:    [  0.000000,   0.000000,  -0.000000]
    Dipole moment [D]:                     6.945945
      Cartesian components [D]:          [ -0.000000,  -0.000000,  -6.945945]
    RMS size of the density [Ang]:         1.807625
      Cartesian components [Ang]:        [  0.816187,   0.634803,   1.482691]
  
  Exciton analysis of the difference density matrix
    <r_h> [Ang]:                  [  0.000000,  -0.000000,  -1.387875]
    <r_e> [Ang]:                  [  0.000000,   0.000000,   0.235685]
    |<r_e - r_h>| [Ang]:            1.623561
    Hole size [Ang]:                1.757473
      Cartesian components [Ang]: [  0.797675,   0.728590,   1.386212]
    Electron size [Ang]:            2.835759
      Cartesian components [Ang]: [  1.248610,   1.882340,   1.714439]

  Transition density matrix analysis:
  -----------------------------------
  
  CT numbers (Mulliken)
    omega =     0.8623
    <Phe> =     0.0010
  
  Exciton analysis of the transition density matrix
    Trans. dipole moment [D]:             0.007558
      Cartesian components [D]:         [  0.000000,  -0.007558,  -0.000000]
    <r_h> [Ang]:                        [  0.000000,  -0.000000,  -1.588316]
    <r_e> [Ang]:                        [  0.000000,   0.000000,   1.121297]
    |<r_e - r_h>| [Ang]:                  2.709613
    Hole size [Ang]:                      1.277992
      Cartesian components [Ang]:       [  0.496047,   0.430821,   1.096172]
    Electron size [Ang]:                  3.020208
      Cartesian components [Ang]:       [  1.432379,   2.308000,   1.320257]
    RMS electron-hole separation [Ang]:   4.265894
      Cartesian components [Ang]:       [  1.531269,   2.353706,   3.211406]
    Covariance(r_h, r_e) [Ang^2]:        -0.050464
    Correlation coefficient:             -0.013074
    Center-of-mass size [Ang]:            1.632023
      Cartesian components [Ang]:       [  0.750127,   1.171005,   0.854139]

  Decomposition into state-averaged NTOs
    H- 4 -> L+ 6: -0.6366 ( 81.1%)
    H- 0 -> L+ 7: -0.1147 (  2.6%)
    H- 3 -> L+ 2: -0.0886 (  1.6%)
                   omega =  86.2%
  ----------------------------------------------------------------------------


--------------------------------------------------------------------------------
  Time of ADC calculation:  CPU 260.18 s  wall 66.58 s
================================================================================
 
 --------------------------------------------------------------
             Orbital Energies (a.u.) and Symmetries
 --------------------------------------------------------------
 
 Alpha MOs, Restricted
 -- Occupied --                  
-20.213 -11.049 -11.047  -0.930  -0.854  -0.598  -0.473  -0.384
  1 A1    2 A1    1 B1    3 A1    4 A1    2 B1    5 A1    6 A1                 
 -0.328  -0.271  -0.194  -0.129  -0.128
  3 B1    7 A1    1 B2    4 B1    2 B2                                         
 -- Virtual --                   
  0.218   0.227   0.263   0.266   0.284   0.290   0.308   0.365
  8 A1    5 B1    1 A2    9 A1    6 B1    3 B2   10 A1   11 A1                 
  0.380   0.408   0.445   0.464   0.482   0.523   0.525   0.577
  7 B1    2 A2    4 B2    8 B1   12 A1   13 A1    9 B1   14 A1                 
  0.632   0.645   0.672   0.859   0.968   1.013   1.052   1.077
 10 B1   15 A1   11 B1   16 A1   17 A1    5 B2   18 A1   19 A1                 
  1.083   1.090   1.175   1.204   1.207   1.208   1.291   1.301
 12 B1    3 A2   13 B1    6 B2   14 B1   20 A1    4 A2   21 A1                 
  1.330   1.333   1.370   1.467   1.483   1.501   1.558   1.642
 22 A1   15 B1    7 B2    8 B2    5 A2   16 B1   17 B1   23 A1                 
  1.694   1.717   1.854   1.926   1.972   2.036   2.120   2.124
 18 B1    9 B2   24 A1   19 B1   25 A1    6 A2   20 B1   10 B2                 
  2.124   2.187   2.212   2.292   2.357   2.393   2.433   2.496
 26 A1   27 A1   11 B2   28 A1    7 A2   12 B2   21 B1   22 B1                 
  2.555   2.604   2.738   2.754   2.842   3.005   3.032   3.085
 29 A1    8 A2   23 B1   30 A1   24 B1   31 A1   32 A1   33 A1                 
  3.456   3.562   3.921   3.946   3.971   4.084   4.539
 25 B1   26 B1   13 B2    9 A2   34 A1   27 B1   35 A1                         
 
 Beta MOs, Restricted
 -- Occupied --                  
-20.213 -11.049 -11.047  -0.930  -0.854  -0.598  -0.473  -0.384
  1 A1    2 A1    1 B1    3 A1    4 A1    2 B1    5 A1    6 A1                 
 -0.328  -0.271  -0.194  -0.129  -0.128
  3 B1    7 A1    1 B2    4 B1    2 B2                                         
 -- Virtual --                   
  0.218   0.227   0.263   0.266   0.284   0.290   0.308   0.365
  8 A1    5 B1    1 A2    9 A1    6 B1    3 B2   10 A1   11 A1                 
  0.380   0.408   0.445   0.464   0.482   0.523   0.525   0.577
  7 B1    2 A2    4 B2    8 B1   12 A1   13 A1    9 B1   14 A1                 
  0.632   0.645   0.672   0.859   0.968   1.013   1.052   1.077
 10 B1   15 A1   11 B1   16 A1   17 A1    5 B2   18 A1   19 A1                 
  1.083   1.090   1.175   1.204   1.207   1.208   1.291   1.301
 12 B1    3 A2   13 B1    6 B2   14 B1   20 A1    4 A2   21 A1                 
  1.330   1.333   1.370   1.467   1.483   1.501   1.558   1.642
 22 A1   15 B1    7 B2    8 B2    5 A2   16 B1   17 B1   23 A1                 
  1.694   1.717   1.854   1.926   1.972   2.036   2.120   2.124
 18 B1    9 B2   24 A1   19 B1   25 A1    6 A2   20 B1   10 B2                 
  2.124   2.187   2.212   2.292   2.357   2.393   2.433   2.496
 26 A1   27 A1   11 B2   28 A1    7 A2   12 B2   21 B1   22 B1                 
  2.555   2.604   2.738   2.754   2.842   3.005   3.032   3.085
 29 A1    8 A2   23 B1   30 A1   24 B1   31 A1   32 A1   33 A1                 
  3.456   3.562   3.921   3.946   3.971   4.084   4.539
 25 B1   26 B1   13 B2    9 A2   34 A1   27 B1   35 A1                         
 --------------------------------------------------------------
 
          Ground-State Mulliken Net Atomic Charges

     Atom                 Charge (a.u.)
  ----------------------------------------
      1 C                    -0.184936
      2 C                    -0.184936
      3 H                     0.175834
      4 H                     0.175834
      5 H                     0.008402
      6 H                     0.008402
      7 O                    -1.063204
      8 H                     0.064604
  ----------------------------------------
  Sum of atomic charges =    -1.000000

 -----------------------------------------------------------------
                    Cartesian Multipole Moments
 -----------------------------------------------------------------
    Charge (ESU x 10^10)
                -4.8032
    Dipole Moment (Debye)
         X       0.0000      Y       0.0000      Z       5.2843
       Tot       5.2843
    Quadrupole Moments (Debye-Ang)
        XX     -23.6230     XY       0.0000     YY     -26.4369
        XZ      -0.0000     YZ      -0.0000     ZZ     -32.8330
    Octopole Moments (Debye-Ang^2)
       XXX       0.0000    XXY       0.0000    XYY      -0.0000
       YYY       0.0000    XXZ       1.0014    XYZ       0.0000
       YYZ      -0.0524    XZZ       0.0000    YZZ       0.0000
       ZZZ       6.3094
    Hexadecapole Moments (Debye-Ang^3)
      XXXX     -87.2742   XXXY      -0.0000   XXYY     -21.4289
      XYYY       0.0000   YYYY     -38.5826   XXXZ       0.0000
      XXYZ      -0.0000   XYYZ      -0.0000   YYYZ      -0.0000
      XXZZ     -70.2437   XYZZ       0.0000   YYZZ     -64.9350
      XZZZ      -0.0000   YZZZ      -0.0000   ZZZZ    -291.7858
 -----------------------------------------------------------------
 Total job time:  175.87s(wall), 308.41s(cpu) 
 Fri Mar  4 19:03:05 2022

        *************************************************************
        *                                                           *
        *  Thank you very much for using Q-Chem.  Have a nice day.  *
        *                                                           *
        *************************************************************


