/src/tsommerfeld/qchem/exe/qcprog.exe .input0.806061.14271.qcin.1 /src/jdavis/qchem.scratch/qchem14271/

                  Welcome to Q-Chem
     A Quantum Leap Into The Future Of Chemistry


 Q-Chem 5.4 (devel), Q-Chem, Inc., Pleasanton, CA (2021)

 E. Epifanovsky,  A. T. B. Gilbert,  Xintian Feng,  Joonho Lee,  Yuezhi Mao,  
 N. Mardirossian,  P. Pokhilko,  A. White,  M. Wormit,  M. P. Coons,  
 A. L. Dempwolff,  Zhengting Gan,  D. Hait,  P. R. Horn,  L. D. Jacobson,  
 I. Kaliman,  J. Kussmann,  A. W. Lange,  Ka Un Lao,  D. S. Levine,  Jie Liu,  
 S. C. McKenzie,  A. F. Morrison,  K. Nanda,  F. Plasser,  D. R. Rehn,  
 M. L. Vidal,  Zhi-Qiang You,  Ying Zhu,  B. Alam,  B. Albrecht,  
 A. Aldossary,  E. Alguire,  J. H. Andersen,  D. Barton,  K. Begam,  A. Behn,  
 Y. A. Bernard,  E. J. Berquist,  H. Burton,  A. Carreras,  K. Carter-Fenk,  
 R. Chakraborty,  A. D. Chien,  K. D. Closser,  V. Cofer-Shabica,  
 S. Dasgupta,  Jia Deng,  M. de Wergifosse,  M. Diedenhofen,  Hainam Do,  
 S. Ehlert,  Po-Tung Fang,  S. Fatehi,  Qingguo Feng,  T. Friedhoff,  
 J. Gayvert,  Qinghui Ge,  G. Gidofalvi,  M. Goldey,  J. Gomes,  
 C. Gonzalez-Espinoza,  S. Gulania,  A. Gunina,  M. W. D. Hanson-Heine,  
 P. H. P. Harbach,  A. W. Hauser,  M. F. Herbst,  M. Hernandez Vera,  
 M. Hodecker,  Z. C. Holden,  S. Houck,  Xunkun Huang,  Kerwin Hui,  
 B. C. Huynh,  M. Ivanov,  Hyunjun Ji,  Hanjie Jiang,  B. Kaduk,  S. Kaehler,  
 K. Khistyaev,  Jaehoon Kim,  P. Klunzinger,  Z. Koczor-Benda,  
 Joong Hoon Koh,  D. Kosenkov,  L. Koulias,  T. Kowalczyk,  C. M. Krauter,  
 K. Kue,  A. Kunitsa,  T. Kus,  A. Landau,  K. V. Lawler,  D. Lefrancois,  
 S. Lehtola,  Rain Li,  Yi-Pei Li,  Jiashu Liang,  M. Liebenthal,  
 Hung-Hsuan Lin,  You-Sheng Lin,  Fenglai Liu,  Kuan-Yu Liu,  
 M. Loipersberger,  A. Luenser,  A. Manjanath,  P. Manohar,  E. Mansoor,  
 S. F. Manzer,  Shan-Ping Mao,  A. V. Marenich,  T. Markovich,  S. Mason,  
 S. A. Maurer,  P. F. McLaughlin,  M. F. S. J. Menger,  J.-M. Mewes,  
 S. A. Mewes,  P. Morgante,  J. W. Mullinax,  K. J. Oosterbaan,  G. Paran,  
 Alexander C. Paul,  Suranjan K. Paul,  F. Pavosevic,  Zheng Pei,  S. Prager,  
 E. I. Proynov,  E. Ramos,  B. Rana,  A. E. Rask,  A. Rettig,  R. M. Richard,  
 F. Rob,  E. Rossomme,  T. Scheele,  M. Scheurer,  M. Schneider,  
 N. Sergueev,  S. M. Sharada,  W. Skomorowski,  D. W. Small,  C. J. Stein,  
 Yu-Chuan Su,  E. J. Sundstrom,  Zhen Tao,  J. Thirman,  T. Tsuchimochi,  
 N. M. Tubman,  S. P. Veccham,  O. Vydrov,  J. Wenzel,  J. Witte,  A. Yamada,  
 Kun Yao,  S. Yeganeh,  S. R. Yost,  A. Zech,  Igor Ying Zhang,  Xing Zhang,  
 Yu Zhang,  D. Zuev,  A. Aspuru-Guzik,  A. T. Bell,  N. A. Besley,  
 K. B. Bravaya,  B. R. Brooks,  D. Casanova,  Jeng-Da Chai,  S. Coriani,  
 C. J. Cramer,  A. E. DePrince, III,  R. A. DiStasio Jr.,  A. Dreuw,  
 B. D. Dunietz,  T. R. Furlani,  W. A. Goddard III,  S. Grimme,  
 S. Hammes-Schiffer,  T. Head-Gordon,  W. J. Hehre,  Chao-Ping Hsu,  
 T.-C. Jagau,  Yousung Jung,  A. Klamt,  Jing Kong,  D. S. Lambrecht,  
 WanZhen Liang,  N. J. Mayhall,  C. W. McCurdy,  J. B. Neaton,  
 C. Ochsenfeld,  J. A. Parkhill,  R. Peverati,  V. A. Rassolov,  Yihan Shao,  
 L. V. Slipchenko,  T. Stauch,  R. P. Steele,  J. E. Subotnik,  
 A. J. W. Thom,  A. Tkatchenko,  D. G. Truhlar,  T. Van Voorhis,  
 T. A. Wesolowski,  K. B. Whaley,  H. L. Woodcock III,  P. M. Zimmerman,  
 S. Faraji,  P. M. W. Gill,  M. Head-Gordon,  J. M. Herbert,  A. I. Krylov

 Additional authors for Version 5.4.1: 
 S. Kotaru,  Shaozhi Li,  Xiangyuan Li,  F. Matz,  A. Molle,  Haisheng Ren,  
 Yingli Su,  Hung-Yi Tsai,  C. Utku,  Fang Wang

 Contributors to earlier versions of Q-Chem not listed above: 
 R. D. Adamson,  B. Austin,  R. Baer,  J. Baker,  G. J. O. Beran,  
 K. Brandhorst,  S. T. Brown,  E. F. C. Byrd,  A. K. Chakraborty,  
 G. K. L. Chan,  Chun-Min Chang,  Yunqing Chen,  C.-L. Cheng,  
 Siu Hung Chien,  D. M. Chipman,  D. L. Crittenden,  H. Dachsel,  
 R. J. Doerksen,  A. D. Dutoi,  R. G. Edgar,  J. Fosso-Tande,  
 L. Fusti-Molnar,  D. Ghosh,  A. Ghysels,  A. Golubeva-Zadorozhnaya,  
 J. Gonthier,  M. S. Gordon,  S. R. Gwaltney,  G. Hawkins,  J. E. Herr,  
 A. Heyden,  S. Hirata,  E. G. Hohenstein,  G. Kedziora,  F. J. Keil,  
 C. Kelley,  Jihan Kim,  R. A. King,  R. Z. Khaliullin,  P. P. Korambath,  
 W. Kurlancheek,  A. Laurent,  A. M. Lee,  M. S. Lee,  S. V. Levchenko,  
 Ching Yeh Lin,  D. Liotard,  E. Livshits,  R. C. Lochan,  I. Lotan,  
 L. A. Martinez-Martinez,  P. E. Maslen,  N. Nair,  D. P. O'Neill,  
 D. Neuhauser,  E. Neuscamman,  C. M. Oana,  R. Olivares-Amaya,  R. Olson,  
 T. M. Perrine,  B. Peters,  P. A. Pieniazek,  A. Prociuk,  Y. M. Rhee,  
 J. Ritchie,  M. A. Rohrdanz,  E. Rosta,  N. J. Russ,  H. F. Schaefer III,  
 M. W. Schmidt,  N. E. Schultz,  S. Sharma,  N. Shenvi,  C. D. Sherrill,  
 A. C. Simmonett,  A. Sodt,  T. Stein,  D. Stuck,  K. S. Thanthiriwatte,  
 V. Vanovschi,  L. Vogt,  Tao Wang,  A. Warshel,  M. A. Watson,  
 C. F. Williams,  Q. Wu,  X. Xu,  Jun Yang,  W. Zhang,  Yan Zhao

 Please cite Q-Chem as follows:
 Y. Shao et al., Mol. Phys. 113, 184-215 (2015)
 DOI: 10.1080/00268976.2014.952696

 Q-Chem 5.4.1 for Intel X86 EM64T Linux

 Parts of Q-Chem use Armadillo 9.900.5 (Nocturnal Misbehaviour).
 http://arma.sourceforge.net/

 Q-Chem begins on Fri Mar  4 18:40:39 2022  

 Host: node01
0

     Scratch files written to /src/jdavis/qchem.scratch/qchem14271//
 Processing $rem in /src/tsommerfeld/qchem/config/preferences:
 Processing $rem in /home/jdavis/.qchemrc:

 Checking the input file for inconsistencies... 	...done.

--------------------------------------------------------------
User input:
--------------------------------------------------------------
$molecule
-1 1
C        -0.6645000000    0.0000000000    1.1619088658
C         0.6645000000    0.0000000000    1.1619088658
H        -1.1590800000    0.0000000000    0.1995598658
H         1.1590800000    0.0000000000    0.1995598658
H        -1.1590800000    0.0000000000    2.1242568658
H         1.1590800000    0.0000000000    2.1242568658
O         0.0000000000    0.0000000000   -1.5841414040
H         0.0000000000    0.0000000000   -2.5471307683
$end
$rem
   METHOD adc(2)
   BASIS gen
   PURECART 11
   EE_STATES [0,0,0,10]
   scf_convergence 8
   ADC_DAVIDSON_MAXITER 120
   ADC_DAVIDSON_MAXSUBSPACE 200
   adc_nguess_singles 100
   THRESH 14
   S2THRESH 14
   adc_davidson_conv 5
   adc_davidson_thresh 14
   THREADS 10
   MEM_TOTAL 95000
   STATE_ANALYSIS TRUE
$end
$basis
C 1
S   9   1.00
      6.665000D+03           6.920000D-04
      1.000000D+03           5.329000D-03
      2.280000D+02           2.707700D-02
      6.471000D+01           1.017180D-01
      2.106000D+01           2.747400D-01
      7.495000D+00           4.485640D-01
      2.797000D+00           2.850740D-01
      5.215000D-01           1.520400D-02
      1.596000D-01          -3.191000D-03
S   9   1.00
      6.665000D+03          -1.460000D-04
      1.000000D+03          -1.154000D-03
      2.280000D+02          -5.725000D-03
      6.471000D+01          -2.331200D-02
      2.106000D+01          -6.395500D-02
      7.495000D+00          -1.499810D-01
      2.797000D+00          -1.272620D-01
      5.215000D-01           5.445290D-01
      1.596000D-01           5.804960D-01
S   1   1.00
      1.596000D-01           1.000000D+00
S   1   1.00
      0.0469000              1.0000000
P   4   1.00
      9.439000D+00           3.810900D-02
      2.002000D+00           2.094800D-01
      5.456000D-01           5.085570D-01
      1.517000D-01           4.688420D-01
P   1   1.00
      1.517000D-01           1.000000D+00
P   1   1.00
      0.034937      1.0000000
D   1   1.00
      5.500000D-01           1.0000000
****
C 2
S   9   1.00
      6.665000D+03           6.920000D-04
      1.000000D+03           5.329000D-03
      2.280000D+02           2.707700D-02
      6.471000D+01           1.017180D-01
      2.106000D+01           2.747400D-01
      7.495000D+00           4.485640D-01
      2.797000D+00           2.850740D-01
      5.215000D-01           1.520400D-02
      1.596000D-01          -3.191000D-03
S   9   1.00
      6.665000D+03          -1.460000D-04
      1.000000D+03          -1.154000D-03
      2.280000D+02          -5.725000D-03
      6.471000D+01          -2.331200D-02
      2.106000D+01          -6.395500D-02
      7.495000D+00          -1.499810D-01
      2.797000D+00          -1.272620D-01
      5.215000D-01           5.445290D-01
      1.596000D-01           5.804960D-01
S   1   1.00
      1.596000D-01           1.000000D+00
S   1   1.00
      0.0469000              1.0000000
P   4   1.00
      9.439000D+00           3.810900D-02
      2.002000D+00           2.094800D-01
      5.456000D-01           5.085570D-01
      1.517000D-01           4.688420D-01
P   1   1.00
      1.517000D-01           1.000000D+00
P   1   1.00
      0.034937      1.0000000
D   1   1.00
      5.500000D-01           1.0000000
****
H 3
cc-pVDZ
****
H 4
cc-pVDZ
****
H 5
cc-pVDZ
****
H 6
cc-pVDZ
****
O 7
aug-cc-pVDZ
****
H 8
cc-pVDZ
****
$end
--------------------------------------------------------------
 ----------------------------------------------------------------
             Standard Nuclear Orientation (Angstroms)
    I     Atom           X                Y                Z
 ----------------------------------------------------------------
    1      C      -0.6645000000    -0.0000000000     1.0270977517
    2      C       0.6645000000     0.0000000000     1.0270977517
    3      H      -1.1590800000    -0.0000000000     0.0647487517
    4      H       1.1590800000     0.0000000000     0.0647487517
    5      H      -1.1590800000    -0.0000000000     1.9894457517
    6      H       1.1590800000     0.0000000000     1.9894457517
    7      O       0.0000000000    -0.0000000000    -1.7189525181
    8      H       0.0000000000    -0.0000000000    -2.6819418824
 ----------------------------------------------------------------
 Molecular Point Group                 C2v   NOp =  4
 Largest Abelian Subgroup              C2v   NOp =  4
 Nuclear Repulsion Energy =          64.38561153 hartrees
 There are       13 alpha and       13 beta electrons
 Requested basis set is non-standard
 There are 40 shells and 84 basis functions
 Total memory of 95000 MB is distributed as follows: 
   MEM_STATIC is set to 192 MB
   QALLOC/CCMAN JOB total memory use is  94808 MB
 Warning: actual memory use might exceed 95000 MB

 Total QAlloc Memory Limit  95000 MB
 Mega-Array Size       188 MB
 MEM_STATIC part       192 MB

                       Distance Matrix (Angstroms)
             C (  1)   C (  2)   H (  3)   H (  4)   H (  5)   H (  6)
   C (  2)  1.329000
   H (  3)  1.082000  2.061931
   H (  4)  2.061931  1.082000  2.318160
   H (  5)  1.082000  2.061931  1.924697  3.013026
   H (  6)  2.061931  1.082000  3.013026  1.924697  2.318160
   O (  7)  2.825306  2.825306  2.127218  2.127218  3.885316  3.885316
   H (  8)  3.768094  3.768094  2.981237  2.981237  4.813037  4.813037
             O (  7)
   H (  8)  0.962989
 
 A cutoff of  1.0D-14 yielded    820 shell pairs
 There are      3652 function pairs (      4018 Cartesian)
 Smallest overlap matrix eigenvalue = 1.30E-03

 Scale SEOQF with 1.000000e-01/1.000000e-01/1.000000e-01

 Standard Electronic Orientation quadrupole field applied
 Nucleus-field energy     =    -0.0000000051 hartrees
 ================ Generating on-the-fly SAD Guess ================
Attempting to make child job directory: /src/jdavis/qchem.scratch/qchem14271//Frg1/
Attempting to make child job directory: /src/jdavis/qchem.scratch/qchem14271//Frg2/
Attempting to make child job directory: /src/jdavis/qchem.scratch/qchem14271//Frg3/
Creating input file /src/jdavis/qchem.scratch/qchem14271/Frg1.input
using default PutDataFrgm: nothing
calling putenv with: QCSCRATCH=/src/jdavis/qchem.scratch/qchem14271/ 
Spawning Job For Fragment 0
Done Job For Fragment 0
calling putenv with: QCSCRATCH=/src/jdavis/qchem.scratch 
calling putenv with: QCTHREADS=1 
Creating input file /src/jdavis/qchem.scratch/qchem14271/Frg2.input
using default PutDataFrgm: nothing
calling putenv with: QCSCRATCH=/src/jdavis/qchem.scratch/qchem14271/ 
Spawning Job For Fragment 1
Done Job For Fragment 1
calling putenv with: QCSCRATCH=/src/jdavis/qchem.scratch 
calling putenv with: QCTHREADS=1 
Creating input file /src/jdavis/qchem.scratch/qchem14271/Frg3.input
using default PutDataFrgm: nothing
calling putenv with: QCSCRATCH=/src/jdavis/qchem.scratch/qchem14271/ 
Spawning Job For Fragment 2
Done Job For Fragment 2
calling putenv with: QCSCRATCH=/src/jdavis/qchem.scratch 
calling putenv with: QCTHREADS=1 
 Time for running child jobs:  CPU 1.77 s  wall 80.87 s
 ============= Method Specific SAD Guess Constructed =============
 Guess from on-the-fly superposition of atomic densities
 Warning: Energy on first SCF cycle will be non-variational
 A restricted Hartree-Fock SCF calculation will be
 performed using Pulay DIIS extrapolation
 SCF converges when DIIS error is below 1.0E-08
 using 10 threads for integral computing
 -------------------------------------------------------
 OpenMP Integral computing Module                
 Release: version 1.0, May 2013, Q-Chem Inc. Pittsburgh 
 -------------------------------------------------------
 ---------------------------------------
  Cycle       Energy         DIIS Error
 ---------------------------------------
    1    -153.5740818668      6.41E-02
    2    -153.2896012376      1.31E-02
    3    -153.3567644664      1.09E-02
    4    -153.4399792468      8.05E-04
    5    -153.4408907940      2.26E-04
    6    -153.4409627551      4.82E-05
    7    -153.4409678232      1.26E-05
    8    -153.4409683537      3.79E-06
    9    -153.4409684007      8.00E-07
   10    -153.4409684024      1.45E-07
   11    -153.4409684025      4.21E-08
   12    -153.4409684025      1.24E-08
   13    -153.4409684025      2.64E-09 Convergence criterion met
 ---------------------------------------
 SCF time:  CPU 14.37 s  wall 1.44 s
 SCF   energy in the final basis set = -153.44096840
 Total energy in the final basis set = -153.44096840
================================================================================
|                                                                              |
|                                 A D C  M A N                                 |
|                                                                              |
 ------------------------------------------------------------------------------ 
|                                                                              |
| Components:                                                                  |
|                                                                              |
| - libvmm - 1.3-trunk                                                         |
|   Authors:                                                                   |
|   Evgeny Epifanovsky, Ilya Kaliman                                           |
|                                                                              |
| - libtensor - 2.5-trunk                                                      |
|   Authors:                                                                   |
|   Evgeny Epifanovsky, Michael Wormit, Dmitry Zuev, Sam Manzer,               |
|   Ilya Kaliman                                                               |
|                                                                              |
| - libwfa - 1.1-trunk                                                         |
|   Authors:                                                                   |
|   Felix Plasser, Stefanie Mewes (Baeppler), Benjamin Thomitzni,              |
|   Michael Wormit, Feng Chen, Anna I. Krylov, Pavel Pokhilko                  |
|                                                                              |
| - libadc - 1.1-trunk                                                         |
|   Authors:                                                                   |
|   Michael Wormit, Adrian L. Dempwolff, Philipp H. P. Harbach,                |
|   Caroline Krauter, Dirk Rehn, Matthias Schneider, Jan Wenzel                |
|                                                                              |
| - adcman - 2.6-trunk                                                         |
|   Authors:                                                                   |
|   Michael Wormit, Adrian L. Dempwolff, Philipp H. P. Harbach,                |
|   Caroline Krauter, Daniel Lefrancois, Jan-Michael Mewes, Dirk Rehn,         |
|   Matthias Schneider, Jan Wenzel, Andreas Dreuw                              |
|                                                                              |
| Authors of earlier versions of ADCMAN:                                       |
| Andreas Dreuw, Jan Hendrik Starcke, Dirk Rehn, Michael Wormit                |
|                                                                              |
================================================================================

 
 Alpha MOs, Restricted
 -- Occupied --                  
-20.213 -11.049 -11.047  -0.930  -0.854  -0.598  -0.473  -0.384
  1 A1    2 A1    1 B1    3 A1    4 A1    2 B1    5 A1    6 A1                 
 -0.328  -0.271  -0.194  -0.129  -0.128
  3 B1    7 A1    1 B2    4 B1    2 B2                                         
 -- Virtual --                   
  0.174   0.193   0.229   0.232   0.241   0.242   0.292   0.355
  5 B1    8 A1    9 A1    1 A2    6 B1    3 B2   10 A1   11 A1                 
  0.378   0.378   0.448   0.456   0.467   0.524   0.529   0.577
  7 B1    2 A2    4 B2   12 A1    8 B1   13 A1    9 B1   14 A1                 
  0.604   0.629   0.684   0.814   0.953   0.958   1.043   1.045
 10 B1   15 A1   11 B1   16 A1   17 A1    5 B2    3 A2   18 A1                 
  1.077   1.126   1.169   1.190   1.203   1.213   1.275   1.291
 19 A1   12 B1   13 B1   14 B1    6 B2   20 A1   21 A1    4 A2                 
  1.329   1.329   1.370   1.448   1.467   1.483   1.560   1.642
 22 A1   15 B1    7 B2   16 B1    8 B2    5 A2   17 B1   23 A1                 
  1.691   1.719   1.849   1.926   1.960   2.028   2.113   2.122
 18 B1    9 B2   24 A1   19 B1   25 A1    6 A2   26 A1   10 B2                 
  2.135   2.173   2.212   2.281   2.355   2.393   2.433   2.472
 20 B1   27 A1   11 B2   28 A1    7 A2   12 B2   21 B1   22 B1                 
  2.551   2.604   2.714   2.748   2.846   3.008   3.029   3.083
 29 A1    8 A2   23 B1   30 A1   24 B1   31 A1   32 A1   33 A1                 
  3.444   3.562   3.921   3.945   3.970   4.087   4.535
 25 B1   26 B1   13 B2    9 A2   34 A1   27 B1   35 A1                         
 
 Beta MOs, Restricted
 -- Occupied --                  
-20.213 -11.049 -11.047  -0.930  -0.854  -0.598  -0.473  -0.384
  1 A1    2 A1    1 B1    3 A1    4 A1    2 B1    5 A1    6 A1                 
 -0.328  -0.271  -0.194  -0.129  -0.128
  3 B1    7 A1    1 B2    4 B1    2 B2                                         
 -- Virtual --                   
  0.174   0.193   0.229   0.232   0.241   0.242   0.292   0.355
  5 B1    8 A1    9 A1    1 A2    6 B1    3 B2   10 A1   11 A1                 
  0.378   0.378   0.448   0.456   0.467   0.524   0.529   0.577
  7 B1    2 A2    4 B2   12 A1    8 B1   13 A1    9 B1   14 A1                 
  0.604   0.629   0.684   0.814   0.953   0.958   1.043   1.045
 10 B1   15 A1   11 B1   16 A1   17 A1    5 B2    3 A2   18 A1                 
  1.077   1.126   1.169   1.190   1.203   1.213   1.275   1.291
 19 A1   12 B1   13 B1   14 B1    6 B2   20 A1   21 A1    4 A2                 
  1.329   1.329   1.370   1.448   1.467   1.483   1.560   1.642
 22 A1   15 B1    7 B2   16 B1    8 B2    5 A2   17 B1   23 A1                 
  1.691   1.719   1.849   1.926   1.960   2.028   2.113   2.122
 18 B1    9 B2   24 A1   19 B1   25 A1    6 A2   26 A1   10 B2                 
  2.135   2.173   2.212   2.281   2.355   2.393   2.433   2.472
 20 B1   27 A1   11 B2   28 A1    7 A2   12 B2   21 B1   22 B1                 
  2.551   2.604   2.714   2.748   2.846   3.008   3.029   3.083
 29 A1    8 A2   23 B1   30 A1   24 B1   31 A1   32 A1   33 A1                 
  3.444   3.562   3.921   3.945   3.970   4.087   4.535
 25 B1   26 B1   13 B2    9 A2   34 A1   27 B1   35 A1                         

--------------------------------------------------------------------------------
                                   HF Summary                                   
--------------------------------------------------------------------------------
  Energy:                                                 -153.4409684025 a.u.
  Dip. moment [a.u.]:                  [   0.000000,    0.000000,    2.070414]
  Total dipole [Debye]:                                               5.262468
  <r^2> [a.u.]:                        [  55.702082,   19.696359,  208.000168]
  Total <r^2> [a.u.]:                                               283.398609
--------------------------------------------------------------------------------

--------------------------------------------------------------------------------
                                 MP(2) Summary                                  
--------------------------------------------------------------------------------
  MP energy contribution:                                   -0.5272357680 a.u.
  Total energy:                                           -153.9682041705 a.u.
  Dip. moment [a.u.]:                  [  -0.000000,    0.000000,    2.131722]
  Total dipole [Debye]:                                               5.418299
  <r^2> [a.u.]:                        [  56.647776,   20.358081,  209.201943]
  Total <r^2> [a.u.]:                                               286.207799

  Density matrix analysis:
  ------------------------
  NOs
    Occupation of frontier NOs:
       0.0446   1.9360
    Number of electrons: 26.000000
    Number of unpaired electrons: n_u =  0.71381, n_u,nl =  0.08504
    NO participation ratio (PR_NO): 23.011108
  
  
  Mulliken Population Analysis
  Atom      Charge (e)              h+              e-           Del q
  --------------------------------------------------------------------
   1 C       -0.182926        0.093008       -0.099217       -0.006209
   2 C       -0.182926        0.093008       -0.099217       -0.006209
   3 H        0.180908        0.017137       -0.009237        0.007901
   4 H        0.180908        0.017137       -0.009237        0.007901
   5 H        0.005107        0.018472       -0.013289        0.005183
   6 H        0.005107        0.018472       -0.013289        0.005183
   7 O       -1.050333        0.274013       -0.271304        0.002709
   8 H        0.044154        0.016172       -0.032629       -0.016458
  --------------------------------------------------------------------
  Sum:       -1.000000        0.547419       -0.547419       -0.000000
  
  Multipole moment analysis of the density matrix
    Molecular charge:                      -1.000000
    Number of electrons:                   26.000000
      Center of electronic charge [Ang]: [  0.000000,  -0.000000,  -0.043387]
    Total nuclear charge:                  25.000000
      Center of nuclear charge [Ang]:    [  0.000000,   0.000000,  -0.000000]
    Dipole moment [D]:                     5.418297
      Cartesian components [D]:          [ -0.000000,   0.000000,   5.418297]
    RMS size of the density [Ang]:         1.755184
      Cartesian components [Ang]:        [  0.781099,   0.468255,   1.500430]
  
  Exciton analysis of the difference density matrix
    <r_h> [Ang]:                  [ -0.000000,  -0.000000,  -0.466499]
    <r_e> [Ang]:                  [  0.000000,  -0.000000,  -0.525765]
    |<r_e - r_h>| [Ang]:            0.059266
    Hole size [Ang]:                1.931752
      Cartesian components [Ang]: [  0.860932,   0.719597,   1.572464]
    Electron size [Ang]:            2.260505
      Cartesian components [Ang]: [  1.106782,   0.925375,   1.740286]
--------------------------------------------------------------------------------
  Starting Davidson for singlet states of irrep B2 ... 
--------------------------------------------------------------------------------
   It NVec Conv  Avg. Norm  Max. Norm  Conv. states           Remark
--------------------------------------------------------------------------------
       100    0  1.534e-01  5.944e-01  0.2696 n n n n n n n n Guess.
    1  110    0  1.472e-02  8.568e-02  0.1069 n n n n n n n n 
    2  120    0  5.099e-03  3.717e-02  0.1056 n n n n n n n n 
    3  130    0  5.022e-03  4.827e-02  0.1056 n n n n n n n n 
    4  140    0  1.368e-03  1.183e-02  0.1056 n n n n n n n n 
    5  150    6  2.701e-04  2.382e-03  0.1056 y y y y n n y y 
    6  160    7  3.230e-05  2.839e-04  0.1056 y y y y y n y y 
    7  170    8  3.374e-06  2.812e-05  0.1056 y y y y y y y y 
    8  180   10  2.988e-07  2.515e-06  0.1056 y y y y y y y y Converged.
--------------------------------------------------------------------------------
  Davidson Summary: 
 ------------------------------------------------------------
  State  0: excitation energy =   0.1056 a.u.   (converged)
  State  1: excitation energy =   0.1138 a.u.   (converged)
  State  2: excitation energy =   0.1219 a.u.   (converged)
  State  3: excitation energy =   0.1519 a.u.   (converged)
  State  4: excitation energy =   0.2036 a.u.   (converged)
  State  5: excitation energy =   0.2164 a.u.   (converged)
  State  6: excitation energy =   0.2210 a.u.   (converged)
  State  7: excitation energy =   0.2663 a.u.   (converged)
  State  8: excitation energy =   0.2867 a.u.   (converged)
  State  9: excitation energy =   0.3132 a.u.   (converged)
 ------------------------------------------------------------


--------------------------------------------------------------------------------
                   State-averaged natural transition orbitals
--------------------------------------------------------------------------------
--------------------------------------------------------------------------------

--------------------------------------------------------------------------------
                             Excited State Summary
--------------------------------------------------------------------------------
--------------------------------------------------------------------------------

  Excited state 1 (singlet, B2)                                    [converged]
  ----------------------------------------------------------------------------
  Term symbol:  1 (1) B2                                    R^2 =  3.86671e-09

  Total energy:                                           -153.8625977590 a.u.
  Excitation energy:                                               2.873697 eV

  Osc. strength:                                                      0.018074
  Trans. dip. moment [a.u.]:           [  -0.000000,   -0.506670,    0.000000]
  <i|r^2|0> [a.u.]:                    [   0.000000,   -0.000000,    0.000000]

  Dip. moment [a.u.]:                  [  -0.000000,    0.000000,   -4.668287]
  Total dipole [Debye]:                                              11.865605
  <r^2> [a.u.]:                        [  72.169408,   26.879245,  231.351312]
  Total <r^2> [a.u.]:                                               330.399965

  V1^2 = 0.8699, V2^2 = 0.1301

  Important amplitudes:
      occ i      occ j       vir a       vir b          v   
    ---------------------------------------------------------
     2 (B2) A               8 (A1) A                 -0.6223
     2 (B2) A              10 (A1) A                  0.1292
    ---------------------------------------------------------

  Density matrix analysis:
  ------------------------
  NOs
    Occupation of frontier NOs:
       0.9625   0.9964
    Number of electrons: 26.000000
    Number of unpaired electrons: n_u =  2.74368, n_u,nl =  2.11288
    NO participation ratio (PR_NO):  3.860939
  
  
  Mulliken Population Analysis
  Atom      Charge (e)              h+              e-           Del q
  --------------------------------------------------------------------
   1 C       -0.791029        0.047275       -0.655378       -0.608103
   2 C       -0.791029        0.047275       -0.655378       -0.608103
   3 H        0.128593       -0.003493       -0.048822       -0.052315
   4 H        0.128593       -0.003493       -0.048822       -0.052315
   5 H        0.150887        0.051808        0.093972        0.145780
   6 H        0.150887        0.051808        0.093972        0.145780
   7 O       -0.178668        1.369710       -0.498045        0.871665
   8 H        0.201766        0.139946        0.017666        0.157611
  --------------------------------------------------------------------
  Sum:       -1.000000        1.700836       -1.700836       -0.000000
  
  Multipole moment analysis of the density matrix
    Molecular charge:                      -1.000000
    Number of electrons:                   26.000000
      Center of electronic charge [Ang]: [  0.000000,  -0.000000,   0.095014]
    Total nuclear charge:                  25.000000
      Center of nuclear charge [Ang]:    [  0.000000,   0.000000,  -0.000000]
    Dipole moment [D]:                     11.865601
      Cartesian components [D]:          [ -0.000000,   0.000000, -11.865601]
    RMS size of the density [Ang]:         1.884009
      Cartesian components [Ang]:        [  0.881639,   0.538050,   1.575659]
  
  Exciton analysis of the difference density matrix
    <r_h> [Ang]:                  [  0.000000,  -0.000000,  -1.393377]
    <r_e> [Ang]:                  [  0.000000,  -0.000000,   0.722295]
    |<r_e - r_h>| [Ang]:            2.115672
    Hole size [Ang]:                1.808410
      Cartesian components [Ang]: [  0.834113,   0.858808,   1.355378]
    Electron size [Ang]:            3.459192
      Cartesian components [Ang]: [  1.803123,   1.345811,   2.627461]

  Transition density matrix analysis:
  -----------------------------------
  
  CT numbers (Mulliken)
    omega =     0.8537
    <Phe> =    -0.0017
  
  Exciton analysis of the transition density matrix
    Trans. dipole moment [D]:             0.643914
      Cartesian components [D]:         [ -0.000000,  -0.643914,   0.000000]
    <r_h> [Ang]:                        [  0.000000,  -0.000000,  -1.733578]
    <r_e> [Ang]:                        [  0.000000,  -0.000000,   1.985902]
    |<r_e - r_h>| [Ang]:                  3.719480
    Hole size [Ang]:                      1.102687
      Cartesian components [Ang]:       [  0.475301,   0.817992,   0.566478]
    Electron size [Ang]:                  3.789642
      Cartesian components [Ang]:       [  2.229918,   1.658286,   2.576614]
    RMS electron-hole separation [Ang]:   5.419935
      Cartesian components [Ang]:       [  2.279725,   1.847037,   4.557083]
    Covariance(r_h, r_e) [Ang^2]:         0.018071
    Correlation coefficient:              0.004324
    Center-of-mass size [Ang]:            1.975693
      Cartesian components [Ang]:       [  1.140148,   0.925541,   1.321665]

  Decomposition into state-averaged NTOs
    H- 0 -> L+ 1:  0.6080 ( 73.9%)
    H- 0 -> L+ 2: -0.1829 (  6.7%)
    H- 0 -> L+ 3: -0.1498 (  4.5%)
                   omega =  85.4%
  ----------------------------------------------------------------------------


  Excited state 2 (singlet, B2)                                    [converged]
  ----------------------------------------------------------------------------
  Term symbol:  2 (1) B2                                    R^2 =  2.06304e-09

  Total energy:                                           -153.8544158443 a.u.
  Excitation energy:                                               3.096338 eV

  Osc. strength:                                                      0.029823
  Trans. dip. moment [a.u.]:           [  -0.000000,   -0.627003,    0.000000]
  <i|r^2|0> [a.u.]:                    [  -0.000000,   -0.000000,    0.000000]

  Dip. moment [a.u.]:                  [  -0.000000,    0.000000,    0.009656]
  Total dipole [Debye]:                                               0.024543
  <r^2> [a.u.]:                        [  78.946025,   25.177405,  210.123884]
  Total <r^2> [a.u.]:                                               314.247314

  V1^2 = 0.8831, V2^2 = 0.1169

  Important amplitudes:
      occ i      occ j       vir a       vir b          v   
    ---------------------------------------------------------
     2 (B2) A               9 (A1) A                  0.5173
     2 (B2) A              10 (A1) A                  0.3404
    ---------------------------------------------------------

  Density matrix analysis:
  ------------------------
  NOs
    Occupation of frontier NOs:
       0.9697   0.9887
    Number of electrons: 26.000000
    Number of unpaired electrons: n_u =  2.74360, n_u,nl =  2.11317
    NO participation ratio (PR_NO):  3.863574
  
  
  Mulliken Population Analysis
  Atom      Charge (e)              h+              e-           Del q
  --------------------------------------------------------------------
   1 C       -0.673094        0.028436       -0.518604       -0.490169
   2 C       -0.673094        0.028436       -0.518604       -0.490169
   3 H        0.173972        0.002027       -0.008963       -0.006936
   4 H        0.173972        0.002027       -0.008963       -0.006936
   5 H        0.033652        0.020484        0.008061        0.028545
   6 H        0.033652        0.020484        0.008061        0.028545
   7 O       -0.471265        1.335753       -0.756685        0.579068
   8 H        0.402206        0.150470        0.207581        0.358052
  --------------------------------------------------------------------
  Sum:       -1.000000        1.588116       -1.588116       -0.000000
  
  Multipole moment analysis of the density matrix
    Molecular charge:                      -1.000000
    Number of electrons:                   26.000000
      Center of electronic charge [Ang]: [  0.000000,  -0.000000,  -0.000197]
    Total nuclear charge:                  25.000000
      Center of nuclear charge [Ang]:    [  0.000000,   0.000000,  -0.000000]
    Dipole moment [D]:                     0.024543
      Cartesian components [D]:          [ -0.000000,   0.000000,   0.024543]
    RMS size of the density [Ang]:         1.839714
      Cartesian components [Ang]:        [  0.922103,   0.520739,   1.504361]
  
  Exciton analysis of the difference density matrix
    <r_h> [Ang]:                  [  0.000000,  -0.000000,  -1.560302]
    <r_e> [Ang]:                  [  0.000000,  -0.000000,  -0.853207]
    |<r_e - r_h>| [Ang]:            0.707095
    Hole size [Ang]:                1.657317
      Cartesian components [Ang]: [  0.817978,   0.864106,   1.153661]
    Electron size [Ang]:            3.065521
      Cartesian components [Ang]: [  2.144967,   1.263510,   1.788876]

  Transition density matrix analysis:
  -----------------------------------
  
  CT numbers (Mulliken)
    omega =     0.8663
    <Phe> =    -0.0052
  
  Exciton analysis of the transition density matrix
    Trans. dipole moment [D]:             0.796842
      Cartesian components [D]:         [ -0.000000,  -0.796842,   0.000000]
    <r_h> [Ang]:                        [  0.000000,  -0.000000,  -1.739862]
    <r_e> [Ang]:                        [  0.000000,   0.000000,  -0.602920]
    |<r_e - r_h>| [Ang]:                  1.136943
    Hole size [Ang]:                      1.090296
      Cartesian components [Ang]:       [  0.476162,   0.814676,   0.546184]
    Electron size [Ang]:                  3.631566
      Cartesian components [Ang]:       [  2.615419,   1.501800,   2.022981]
    RMS electron-hole separation [Ang]:   3.952951
      Cartesian components [Ang]:       [  2.657700,   1.704498,   2.378475]
    Covariance(r_h, r_e) [Ang^2]:         0.021914
    Correlation coefficient:              0.005535
    Center-of-mass size [Ang]:            1.898739
      Cartesian components [Ang]:       [  1.329560,   0.856284,   1.050837]

  Decomposition into state-averaged NTOs
    H- 0 -> L+ 0: -0.5567 ( 62.0%)
    H- 0 -> L+ 2: -0.2389 ( 11.4%)
    H- 0 -> L+ 3: -0.2182 (  9.5%)
    H- 0 -> L+ 1: -0.1227 (  3.0%)
                   omega =  86.6%
  ----------------------------------------------------------------------------


  Excited state 3 (singlet, B2)                                    [converged]
  ----------------------------------------------------------------------------
  Term symbol:  3 (1) B2                                    R^2 =  4.16031e-09

  Total energy:                                           -153.8462999585 a.u.
  Excitation energy:                                               3.317182 eV

  Osc. strength:                                                      0.001990
  Trans. dip. moment [a.u.]:           [   0.000000,    0.156487,   -0.000000]
  <i|r^2|0> [a.u.]:                    [  -0.000000,    0.000000,   -0.000000]

  Dip. moment [a.u.]:                  [  -0.000000,    0.000000,   -2.814483]
  Total dipole [Debye]:                                               7.153704
  <r^2> [a.u.]:                        [  70.064699,   33.892486,  203.712955]
  Total <r^2> [a.u.]:                                               307.670140

  V1^2 = 0.8727, V2^2 = 0.1273

  Important amplitudes:
      occ i      occ j       vir a       vir b          v   
    ---------------------------------------------------------
     4 (B1) A               1 (A2) A                 -0.6352
     4 (B1) A               2 (A2) A                  0.1729
    ---------------------------------------------------------

  Density matrix analysis:
  ------------------------
  NOs
    Occupation of frontier NOs:
       0.9698   0.9903
    Number of electrons: 26.000000
    Number of unpaired electrons: n_u =  2.74135, n_u,nl =  2.10941
    NO participation ratio (PR_NO):  3.852743
  
  
  Mulliken Population Analysis
  Atom      Charge (e)              h+              e-           Del q
  --------------------------------------------------------------------
   1 C       -0.631413        0.062975       -0.511462       -0.448487
   2 C       -0.631413        0.062975       -0.511462       -0.448487
   3 H        0.120405       -0.003640       -0.056862       -0.060503
   4 H        0.120405       -0.003640       -0.056862       -0.060503
   5 H        0.016956        0.015615       -0.003766        0.011849
   6 H        0.016956        0.015615       -0.003766        0.011849
   7 O       -0.158811        1.363747       -0.472225        0.891522
   8 H        0.146914        0.124507       -0.021748        0.102759
  --------------------------------------------------------------------
  Sum:       -1.000000        1.638154       -1.638154       -0.000000
  
  Multipole moment analysis of the density matrix
    Molecular charge:                      -1.000000
    Number of electrons:                   26.000000
      Center of electronic charge [Ang]: [  0.000000,  -0.000000,   0.057283]
    Total nuclear charge:                  25.000000
      Center of nuclear charge [Ang]:    [  0.000000,   0.000000,  -0.000000]
    Dipole moment [D]:                     7.153702
      Cartesian components [D]:          [ -0.000000,   0.000000,  -7.153702]
    RMS size of the density [Ang]:         1.819458
      Cartesian components [Ang]:        [  0.868689,   0.604180,   1.480126]
  
  Exciton analysis of the difference density matrix
    <r_h> [Ang]:                  [  0.000000,  -0.000000,  -1.490575]
    <r_e> [Ang]:                  [  0.000000,  -0.000000,   0.107211]
    |<r_e - r_h>| [Ang]:            1.597786
    Hole size [Ang]:                1.668141
      Cartesian components [Ang]: [  0.894960,   0.743586,   1.195334]
    Electron size [Ang]:            2.943097
      Cartesian components [Ang]: [  1.759109,   1.693078,   1.643425]

  Transition density matrix analysis:
  -----------------------------------
  
  CT numbers (Mulliken)
    omega =     0.8516
    <Phe> =    -0.0002
  
  Exciton analysis of the transition density matrix
    Trans. dipole moment [D]:             0.198875
      Cartesian components [D]:         [  0.000000,   0.198875,  -0.000000]
    <r_h> [Ang]:                        [  0.000000,  -0.000000,  -1.703619]
    <r_e> [Ang]:                        [  0.000000,  -0.000000,   1.014331]
    |<r_e - r_h>| [Ang]:                  2.717950
    Hole size [Ang]:                      1.156170
      Cartesian components [Ang]:       [  0.816656,   0.470698,   0.669511]
    Electron size [Ang]:                  3.238712
      Cartesian components [Ang]:       [  2.155244,   2.082968,   1.226957]
    RMS electron-hole separation [Ang]:   4.381213
      Cartesian components [Ang]:       [  2.301395,   2.135306,   3.055990]
    Covariance(r_h, r_e) [Ang^2]:         0.009103
    Correlation coefficient:              0.002431
    Center-of-mass size [Ang]:            1.720769
      Cartesian components [Ang]:       [  1.154078,   1.067836,   0.699198]

  Decomposition into state-averaged NTOs
    H- 2 -> L+ 4: -0.6353 ( 80.7%)
    H- 2 -> L+ 6: -0.1387 (  3.8%)
                   omega =  85.2%
  ----------------------------------------------------------------------------


  Excited state 4 (singlet, B2)                                    [converged]
  ----------------------------------------------------------------------------
  Term symbol:  4 (1) B2                                    R^2 =  4.70268e-09

  Total energy:                                           -153.8163359265 a.u.
  Excitation energy:                                               4.132545 eV

  Osc. strength:                                                      0.014323
  Trans. dip. moment [a.u.]:           [  -0.000000,   -0.376124,    0.000000]
  <i|r^2|0> [a.u.]:                    [   0.000000,   -0.000000,    0.000000]

  Dip. moment [a.u.]:                  [   0.000000,    0.000000,   -1.364005]
  Total dipole [Debye]:                                               3.466956
  <r^2> [a.u.]:                        [  70.452788,   25.631597,  223.062987]
  Total <r^2> [a.u.]:                                               319.147372

  V1^2 = 0.8816, V2^2 = 0.1184

  Important amplitudes:
      occ i      occ j       vir a       vir b          v   
    ---------------------------------------------------------
     2 (B2) A              10 (A1) A                  0.4902
     2 (B2) A               9 (A1) A                 -0.3808
    ---------------------------------------------------------

  Density matrix analysis:
  ------------------------
  NOs
    Occupation of frontier NOs:
       0.9651   0.9943
    Number of electrons: 26.000000
    Number of unpaired electrons: n_u =  2.73474, n_u,nl =  2.10932
    NO participation ratio (PR_NO):  3.836446
  
  
  Mulliken Population Analysis
  Atom      Charge (e)              h+              e-           Del q
  --------------------------------------------------------------------
   1 C       -0.534866        0.045850       -0.397790       -0.351940
   2 C       -0.534866        0.045850       -0.397790       -0.351940
   3 H        0.130583       -0.001230       -0.049095       -0.050325
   4 H        0.130583       -0.001230       -0.049095       -0.050325
   5 H        0.051314        0.033682        0.012525        0.046207
   6 H        0.051314        0.033682        0.012525        0.046207
   7 O       -0.788167        1.311784       -1.049618        0.262166
   8 H        0.494105        0.160740        0.289211        0.449951
  --------------------------------------------------------------------
  Sum:       -1.000000        1.629128       -1.629128       -0.000000
  
  Multipole moment analysis of the density matrix
    Molecular charge:                      -1.000000
    Number of electrons:                   26.000000
      Center of electronic charge [Ang]: [ -0.000000,  -0.000000,   0.027762]
    Total nuclear charge:                  25.000000
      Center of nuclear charge [Ang]:    [  0.000000,   0.000000,  -0.000000]
    Dipole moment [D]:                     3.466955
      Cartesian components [D]:          [  0.000000,   0.000000,  -3.466955]
    RMS size of the density [Ang]:         1.853794
      Cartesian components [Ang]:        [  0.871091,   0.525415,   1.549739]
  
  Exciton analysis of the difference density matrix
    <r_h> [Ang]:                  [  0.000000,  -0.000000,  -1.458849]
    <r_e> [Ang]:                  [ -0.000000,  -0.000000,  -0.323359]
    |<r_e - r_h>| [Ang]:            1.135491
    Hole size [Ang]:                1.745864
      Cartesian components [Ang]: [  0.815648,   0.858132,   1.283109]
    Electron size [Ang]:            3.276226
      Cartesian components [Ang]: [  1.743045,   1.281736,   2.460204]

  Transition density matrix analysis:
  -----------------------------------
  
  CT numbers (Mulliken)
    omega =     0.8646
    <Phe> =    -0.0058
  
  Exciton analysis of the transition density matrix
    Trans. dipole moment [D]:             0.478005
      Cartesian components [D]:         [ -0.000000,  -0.478005,   0.000000]
    <r_h> [Ang]:                        [  0.000000,  -0.000000,  -1.732970]
    <r_e> [Ang]:                        [ -0.000000,  -0.000000,   0.165209]
    |<r_e - r_h>| [Ang]:                  1.898178
    Hole size [Ang]:                      1.100338
      Cartesian components [Ang]:       [  0.474144,   0.815895,   0.565904]
    Electron size [Ang]:                  3.870829
      Cartesian components [Ang]:       [  2.104338,   1.540339,   2.860495]
    RMS electron-hole separation [Ang]:   4.439572
      Cartesian components [Ang]:       [  2.156734,   1.741978,   3.467537]
    Covariance(r_h, r_e) [Ang^2]:         0.043672
    Correlation coefficient:              0.010253
    Center-of-mass size [Ang]:            2.017511
      Cartesian components [Ang]:       [  1.078726,   0.872091,   1.464977]

  Decomposition into state-averaged NTOs
    H- 0 -> L+ 2: -0.4203 ( 35.3%)
    H- 0 -> L+ 0:  0.3405 ( 23.2%)
    H- 0 -> L+ 3: -0.3162 ( 20.0%)
    H- 0 -> L+ 1: -0.1954 (  7.6%)
                   omega =  86.5%
  ----------------------------------------------------------------------------


  Excited state 5 (singlet, B2)                                    [converged]
  ----------------------------------------------------------------------------
  Term symbol:  5 (1) B2                                    R^2 =  1.39555e-08

  Total energy:                                           -153.7646399549 a.u.
  Excitation energy:                                               5.539264 eV

  Osc. strength:                                                      0.001357
  Trans. dip. moment [a.u.]:           [   0.000000,   -0.100000,    0.000000]
  <i|r^2|0> [a.u.]:                    [   0.000000,    0.000000,    0.000000]

  Dip. moment [a.u.]:                  [  -0.000000,    0.000000,   -0.728921]
  Total dipole [Debye]:                                               1.852734
  <r^2> [a.u.]:                        [  61.440507,   31.438440,  208.819548]
  Total <r^2> [a.u.]:                                               301.698495

  V1^2 = 0.8897, V2^2 = 0.1103

  Important amplitudes:
      occ i      occ j       vir a       vir b          v   
    ---------------------------------------------------------
     2 (B2) A              11 (A1) A                  0.6080
     2 (B2) A              10 (A1) A                  0.2446
    ---------------------------------------------------------

  Density matrix analysis:
  ------------------------
  NOs
    Occupation of frontier NOs:
       0.9680   0.9934
    Number of electrons: 26.000000
    Number of unpaired electrons: n_u =  2.72827, n_u,nl =  2.10618
    NO participation ratio (PR_NO):  3.812783
  
  
  Mulliken Population Analysis
  Atom      Charge (e)              h+              e-           Del q
  --------------------------------------------------------------------
   1 C       -0.588181        0.045049       -0.450304       -0.405255
   2 C       -0.588181        0.045049       -0.450304       -0.405255
   3 H        0.248928        0.001285        0.066735        0.068020
   4 H        0.248928        0.001285        0.066735        0.068020
   5 H        0.035221        0.009437        0.020677        0.030114
   6 H        0.035221        0.009437        0.020677        0.030114
   7 O       -0.686264        1.310848       -0.946779        0.364069
   8 H        0.294327        0.138085        0.112087        0.250172
  --------------------------------------------------------------------
  Sum:       -1.000000        1.560475       -1.560475       -0.000000
  
  Multipole moment analysis of the density matrix
    Molecular charge:                      -1.000000
    Number of electrons:                   26.000000
      Center of electronic charge [Ang]: [  0.000000,  -0.000000,   0.014836]
    Total nuclear charge:                  25.000000
      Center of nuclear charge [Ang]:    [  0.000000,   0.000000,  -0.000000]
    Dipole moment [D]:                     1.852733
      Cartesian components [D]:          [ -0.000000,   0.000000,  -1.852733]
    RMS size of the density [Ang]:         1.802546
      Cartesian components [Ang]:        [  0.813471,   0.581895,   1.499612]
  
  Exciton analysis of the difference density matrix
    <r_h> [Ang]:                  [  0.000000,  -0.000000,  -1.551356]
    <r_e> [Ang]:                  [  0.000000,  -0.000000,  -0.581275]
    |<r_e - r_h>| [Ang]:            0.970081
    Hole size [Ang]:                1.619571
      Cartesian components [Ang]: [  0.781627,   0.864969,   1.124232]
    Electron size [Ang]:            2.733432
      Cartesian components [Ang]: [  1.212848,   1.654252,   1.806683]

  Transition density matrix analysis:
  -----------------------------------
  
  CT numbers (Mulliken)
    omega =     0.8718
    <Phe> =    -0.0019
  
  Exciton analysis of the transition density matrix
    Trans. dipole moment [D]:             0.127087
      Cartesian components [D]:         [  0.000000,  -0.127087,   0.000000]
    <r_h> [Ang]:                        [ -0.000000,  -0.000000,  -1.725085]
    <r_e> [Ang]:                        [  0.000000,   0.000000,  -0.186998]
    |<r_e - r_h>| [Ang]:                  1.538087
    Hole size [Ang]:                      1.107678
      Cartesian components [Ang]:       [  0.474020,   0.814001,   0.582802]
    Electron size [Ang]:                  3.128227
      Cartesian components [Ang]:       [  1.367109,   1.991297,   1.987851]
    RMS electron-hole separation [Ang]:   3.643816
      Cartesian components [Ang]:       [  1.446578,   2.144136,   2.566610]
    Covariance(r_h, r_e) [Ang^2]:         0.050537
    Correlation coefficient:              0.014585
    Center-of-mass size [Ang]:            1.666871
      Cartesian components [Ang]:       [  0.723667,   1.079167,   1.044108]

  Decomposition into state-averaged NTOs
    H- 0 -> L+ 3:  0.5200 ( 54.1%)
    H- 0 -> L+ 2: -0.4032 ( 32.5%)
                   omega =  87.2%
  ----------------------------------------------------------------------------


  Excited state 6 (singlet, B2)                                    [converged]
  ----------------------------------------------------------------------------
  Term symbol:  6 (1) B2                                    R^2 =  8.56543e-08

  Total energy:                                           -153.7518093477 a.u.
  Excitation energy:                                               5.888403 eV

  Osc. strength:                                                      0.002913
  Trans. dip. moment [a.u.]:           [  -0.000000,    0.142089,    0.000000]
  <i|r^2|0> [a.u.]:                    [   0.000000,   -0.000000,    0.000000]

  Dip. moment [a.u.]:                  [  -0.000000,   -0.000000,   -2.785853]
  Total dipole [Debye]:                                               7.080934
  <r^2> [a.u.]:                        [  65.771769,   29.415134,  203.044284]
  Total <r^2> [a.u.]:                                               298.231187

  V1^2 = 0.8655, V2^2 = 0.1345

  Important amplitudes:
      occ i      occ j       vir a       vir b          v   
    ---------------------------------------------------------
     4 (B1) A               2 (A2) A                 -0.6302
     4 (B1) A               1 (A2) A                 -0.1749
    ---------------------------------------------------------

  Density matrix analysis:
  ------------------------
  NOs
    Occupation of frontier NOs:
       0.9703   0.9881
    Number of electrons: 26.000000
    Number of unpaired electrons: n_u =  2.73774, n_u,nl =  2.10488
    NO participation ratio (PR_NO):  3.851710
  
  
  Mulliken Population Analysis
  Atom      Charge (e)              h+              e-           Del q
  --------------------------------------------------------------------
   1 C       -0.572139        0.124255       -0.513468       -0.389213
   2 C       -0.572139        0.124255       -0.513468       -0.389213
   3 H        0.096707       -0.003573       -0.080628       -0.084201
   4 H        0.096707       -0.003573       -0.080628       -0.084201
   5 H       -0.013743        0.010846       -0.029697       -0.018850
   6 H       -0.013743        0.010846       -0.029697       -0.018850
   7 O       -0.159768        1.328598       -0.438033        0.890565
   8 H        0.138118        0.114466       -0.020502        0.093964
  --------------------------------------------------------------------
  Sum:       -1.000000        1.706121       -1.706121       -0.000000
  
  Multipole moment analysis of the density matrix
    Molecular charge:                      -1.000000
    Number of electrons:                   26.000000
      Center of electronic charge [Ang]: [  0.000000,   0.000000,   0.056700]
    Total nuclear charge:                  25.000000
      Center of nuclear charge [Ang]:    [  0.000000,   0.000000,  -0.000000]
    Dipole moment [D]:                     7.080932
      Cartesian components [D]:          [ -0.000000,  -0.000000,  -7.080932]
    RMS size of the density [Ang]:         1.791321
      Cartesian components [Ang]:        [  0.841655,   0.562859,   1.477714]
  
  Exciton analysis of the difference density matrix
    <r_h> [Ang]:                  [  0.000000,  -0.000000,  -1.317439]
    <r_e> [Ang]:                  [  0.000000,   0.000000,   0.207815]
    |<r_e - r_h>| [Ang]:            1.525254
    Hole size [Ang]:                1.728462
      Cartesian components [Ang]: [  0.882536,   0.710896,   1.305120]
    Electron size [Ang]:            2.579430
      Cartesian components [Ang]: [  1.508777,   1.411355,   1.544387]

  Transition density matrix analysis:
  -----------------------------------
  
  CT numbers (Mulliken)
    omega =     0.8389
    <Phe> =    -0.0009
  
  Exciton analysis of the transition density matrix
    Trans. dipole moment [D]:             0.180577
      Cartesian components [D]:         [ -0.000000,   0.180577,   0.000000]
    <r_h> [Ang]:                        [  0.000000,  -0.000000,  -1.663583]
    <r_e> [Ang]:                        [  0.000000,   0.000000,   1.032541]
    |<r_e - r_h>| [Ang]:                  2.696124
    Hole size [Ang]:                      1.205377
      Cartesian components [Ang]:       [  0.819157,   0.467789,   0.750392]
    Electron size [Ang]:                  2.703257
      Cartesian components [Ang]:       [  1.809417,   1.735167,   1.011338]
    RMS electron-hole separation [Ang]:   3.997752
      Cartesian components [Ang]:       [  1.982297,   1.796827,   2.970510]
    Covariance(r_h, r_e) [Ang^2]:         0.023800
    Correlation coefficient:              0.007304
    Center-of-mass size [Ang]:            1.483925
      Cartesian components [Ang]:       [  0.995053,   0.898704,   0.635795]

  Decomposition into state-averaged NTOs
    H- 2 -> L+ 6:  0.6288 ( 79.1%)
    H- 2 -> L+ 4: -0.1458 (  4.3%)
                   omega =  83.9%
  ----------------------------------------------------------------------------


  Excited state 7 (singlet, B2)                                    [converged]
  ----------------------------------------------------------------------------
  Term symbol:  7 (1) B2                                    R^2 =  5.50820e-09

  Total energy:                                           -153.7472529707 a.u.
  Excitation energy:                                               6.012388 eV

  Osc. strength:                                                      0.050810
  Trans. dip. moment [a.u.]:           [  -0.000000,    0.587318,    0.000000]
  <i|r^2|0> [a.u.]:                    [   0.000000,    0.000000,    0.000000]

  Dip. moment [a.u.]:                  [  -0.000000,    0.000000,   -1.178432]
  Total dipole [Debye]:                                               2.995275
  <r^2> [a.u.]:                        [  67.236276,   25.719811,  235.624816]
  Total <r^2> [a.u.]:                                               328.580902

  V1^2 = 0.9469, V2^2 = 0.0531

  Important amplitudes:
      occ i      occ j       vir a       vir b          v   
    ---------------------------------------------------------
     1 (B2) A               8 (A1) A                 -0.6531
     1 (B2) A              10 (A1) A                 -0.1303
    ---------------------------------------------------------

  Density matrix analysis:
  ------------------------
  NOs
    Occupation of frontier NOs:
       0.9889   0.9897
    Number of electrons: 26.000000
    Number of unpaired electrons: n_u =  2.61603, n_u,nl =  2.06762
    NO participation ratio (PR_NO):  3.465015
  
  
  Mulliken Population Analysis
  Atom      Charge (e)              h+              e-           Del q
  --------------------------------------------------------------------
   1 C       -0.441421        0.519612       -0.778108       -0.258495
   2 C       -0.441421        0.519612       -0.778108       -0.258495
   3 H        0.230763        0.053232       -0.003377        0.049855
   4 H        0.230763        0.053232       -0.003377        0.049855
   5 H        0.207434        0.126797        0.075530        0.202327
   6 H        0.207434        0.126797        0.075530        0.202327
   7 O       -1.052870        0.048997       -0.051534       -0.002537
   8 H        0.059320        0.022753       -0.007587        0.015166
  --------------------------------------------------------------------
  Sum:       -1.000000        1.471031       -1.471031       -0.000000
  
  Multipole moment analysis of the density matrix
    Molecular charge:                      -1.000000
    Number of electrons:                   26.000000
      Center of electronic charge [Ang]: [  0.000000,  -0.000000,   0.023985]
    Total nuclear charge:                  25.000000
      Center of nuclear charge [Ang]:    [  0.000000,   0.000000,  -0.000000]
    Dipole moment [D]:                     2.995274
      Cartesian components [D]:          [ -0.000000,   0.000000,  -2.995274]
    RMS size of the density [Ang]:         1.881050
      Cartesian components [Ang]:        [  0.850974,   0.526318,   1.592853]
  
  Exciton analysis of the difference density matrix
    <r_h> [Ang]:                  [  0.000000,   0.000000,   0.938764]
    <r_e> [Ang]:                  [  0.000000,  -0.000000,   2.129532]
    |<r_e - r_h>| [Ang]:            1.190769
    Hole size [Ang]:                1.783939
      Cartesian components [Ang]: [  1.040911,   0.911107,   1.126422]
    Electron size [Ang]:            2.755909
      Cartesian components [Ang]: [  1.760439,   1.360436,   1.626378]

  Transition density matrix analysis:
  -----------------------------------
  
  CT numbers (Mulliken)
    omega =     0.9158
    <Phe> =    -0.0064
  
  Exciton analysis of the transition density matrix
    Trans. dipole moment [D]:             0.746406
      Cartesian components [D]:         [ -0.000000,   0.746406,   0.000000]
    <r_h> [Ang]:                        [ -0.000000,  -0.000000,   1.003724]
    <r_e> [Ang]:                        [  0.000000,  -0.000000,   2.809969]
    |<r_e - r_h>| [Ang]:                  1.806245
    Hole size [Ang]:                      1.323955
      Cartesian components [Ang]:       [  0.767160,   0.893811,   0.604504]
    Electron size [Ang]:                  2.899977
      Cartesian components [Ang]:       [  2.026424,   1.585639,   1.337619]
    RMS electron-hole separation [Ang]:   3.651890
      Cartesian components [Ang]:       [  2.161472,   1.814728,   2.317564]
    Covariance(r_h, r_e) [Ang^2]:         0.044470
    Correlation coefficient:              0.011582
    Center-of-mass size [Ang]:            1.600911
      Cartesian components [Ang]:       [  1.086035,   0.912833,   0.741740]

  Decomposition into state-averaged NTOs
    H- 1 -> L+ 1: -0.6721 ( 90.3%)
                   omega =  91.6%
  ----------------------------------------------------------------------------


  Excited state 8 (singlet, B2)                                    [converged]
  ----------------------------------------------------------------------------
  Term symbol:  8 (1) B2                                    R^2 =  7.04595e-09

  Total energy:                                           -153.7019324697 a.u.
  Excitation energy:                                               7.245621 eV

  Osc. strength:                                                      0.007307
  Trans. dip. moment [a.u.]:           [  -0.000000,   -0.202889,   -0.000000]
  <i|r^2|0> [a.u.]:                    [   0.000000,    0.000000,    0.000000]

  Dip. moment [a.u.]:                  [  -0.000000,    0.000000,    2.422850]
  Total dipole [Debye]:                                               6.158273
  <r^2> [a.u.]:                        [  85.253802,   24.551752,  215.316155]
  Total <r^2> [a.u.]:                                               325.121708

  V1^2 = 0.9462, V2^2 = 0.0538

  Important amplitudes:
      occ i      occ j       vir a       vir b          v   
    ---------------------------------------------------------
     1 (B2) A               9 (A1) A                  0.6706
     1 (B2) A               8 (A1) A                  0.1076
    ---------------------------------------------------------

  Density matrix analysis:
  ------------------------
  NOs
    Occupation of frontier NOs:
       0.9837   0.9952
    Number of electrons: 26.000000
    Number of unpaired electrons: n_u =  2.60441, n_u,nl =  2.06471
    NO participation ratio (PR_NO):  3.434629
  
  
  Mulliken Population Analysis
  Atom      Charge (e)              h+              e-           Del q
  --------------------------------------------------------------------
   1 C       -0.421239        0.526650       -0.764963       -0.238313
   2 C       -0.421239        0.526650       -0.764963       -0.238313
   3 H        0.307552        0.090307        0.036336        0.126643
   4 H        0.307552        0.090307        0.036336        0.126643
   5 H        0.099001        0.103745       -0.009851        0.093894
   6 H        0.099001        0.103745       -0.009851        0.093894
   7 O       -1.029561        0.047277       -0.026504        0.020773
   8 H        0.058934        0.022061       -0.007281        0.014780
  --------------------------------------------------------------------
  Sum:       -1.000000        1.510741       -1.510741        0.000000
  
  Multipole moment analysis of the density matrix
    Molecular charge:                      -1.000000
    Number of electrons:                   26.000000
      Center of electronic charge [Ang]: [  0.000000,  -0.000000,  -0.049312]
    Total nuclear charge:                  25.000000
      Center of nuclear charge [Ang]:    [  0.000000,   0.000000,  -0.000000]
    Dipole moment [D]:                     6.158271
      Cartesian components [D]:          [ -0.000000,   0.000000,   6.158271]
    RMS size of the density [Ang]:         1.870624
      Cartesian components [Ang]:        [  0.958233,   0.514228,   1.522036]
  
  Exciton analysis of the difference density matrix
    <r_h> [Ang]:                  [  0.000000,   0.000000,   0.893249]
    <r_e> [Ang]:                  [  0.000000,  -0.000000,   0.791274]
    |<r_e - r_h>| [Ang]:            0.101975
    Hole size [Ang]:                1.775216
      Cartesian components [Ang]: [  1.050811,   0.896785,   1.114883]
    Electron size [Ang]:            3.245950
      Cartesian components [Ang]: [  2.531121,   1.257599,   1.596266]

  Transition density matrix analysis:
  -----------------------------------
  
  CT numbers (Mulliken)
    omega =     0.9156
    <Phe> =    -0.0011
  
  Exciton analysis of the transition density matrix
    Trans. dipole moment [D]:             0.257846
      Cartesian components [D]:         [ -0.000000,  -0.257846,  -0.000000]
    <r_h> [Ang]:                        [ -0.000000,  -0.000000,   1.027432]
    <r_e> [Ang]:                        [  0.000000,   0.000000,   0.834409]
    |<r_e - r_h>| [Ang]:                  0.193023
    Hole size [Ang]:                      1.301363
      Cartesian components [Ang]:       [  0.768491,   0.894595,   0.550151]
    Electron size [Ang]:                  3.817190
      Cartesian components [Ang]:       [  3.035591,   1.482241,   1.777383]
    RMS electron-hole separation [Ang]:   4.032657
      Cartesian components [Ang]:       [  3.125633,   1.729994,   1.870792]
    Covariance(r_h, r_e) [Ang^2]:         0.019709
    Correlation coefficient:              0.003968
    Center-of-mass size [Ang]:            2.018904
      Cartesian components [Ang]:       [  1.568534,   0.866285,   0.930175]

  Decomposition into state-averaged NTOs
    H- 1 -> L+ 0:  0.6747 ( 91.0%)
                   omega =  91.6%
  ----------------------------------------------------------------------------


  Excited state 9 (singlet, B2)                                    [converged]
  ----------------------------------------------------------------------------
  Term symbol:  9 (1) B2                                    R^2 =  2.51491e-06

  Total energy:                                           -153.6814991312 a.u.
  Excitation energy:                                               7.801641 eV

  Osc. strength:                                                      0.000006
  Trans. dip. moment [a.u.]:           [   0.000000,    0.005630,   -0.000000]
  <i|r^2|0> [a.u.]:                    [  -0.000000,    0.000000,   -0.000000]

  Dip. moment [a.u.]:                  [   0.000000,    0.000000,   -3.089010]
  Total dipole [Debye]:                                               7.851482
  <r^2> [a.u.]:                        [  63.805969,   43.937441,  205.825164]
  Total <r^2> [a.u.]:                                               313.568575

  V1^2 = 0.8781, V2^2 = 0.1219

  Important amplitudes:
      occ i      occ j       vir a       vir b          v   
    ---------------------------------------------------------
     7 (A1) A               3 (B2) A                 -0.6581
     7 (A1) A               4 (B2) A                 -0.0504
    ---------------------------------------------------------

  Density matrix analysis:
  ------------------------
  NOs
    Occupation of frontier NOs:
       0.9825   0.9963
    Number of electrons: 26.000000
    Number of unpaired electrons: n_u =  2.78867, n_u,nl =  2.12546
    NO participation ratio (PR_NO):  3.905290
  
  
  Mulliken Population Analysis
  Atom      Charge (e)              h+              e-           Del q
  --------------------------------------------------------------------
   1 C       -0.656664        0.073572       -0.547310       -0.473738
   2 C       -0.656664        0.073572       -0.547310       -0.473738
   3 H        0.132398       -0.000190       -0.048320       -0.048510
   4 H        0.132398       -0.000190       -0.048320       -0.048510
   5 H        0.028623        0.026499       -0.002984        0.023516
   6 H        0.028623        0.026499       -0.002984        0.023516
   7 O       -0.327630        1.164410       -0.441707        0.722703
   8 H        0.318915        0.290694       -0.015934        0.274760
  --------------------------------------------------------------------
  Sum:       -1.000000        1.654867       -1.654867       -0.000000
  
  Multipole moment analysis of the density matrix
    Molecular charge:                      -1.000000
    Number of electrons:                   26.000000
      Center of electronic charge [Ang]: [ -0.000000,  -0.000000,   0.062871]
    Total nuclear charge:                  25.000000
      Center of nuclear charge [Ang]:    [  0.000000,   0.000000,  -0.000000]
    Dipole moment [D]:                     7.851480
      Cartesian components [D]:          [  0.000000,   0.000000,  -7.851480]
    RMS size of the density [Ang]:         1.836650
      Cartesian components [Ang]:        [  0.828982,   0.687910,   1.487566]
  
  Exciton analysis of the difference density matrix
    <r_h> [Ang]:                  [  0.000000,  -0.000000,  -1.392658]
    <r_e> [Ang]:                  [ -0.000000,  -0.000000,   0.276776]
    |<r_e - r_h>| [Ang]:            1.669435
    Hole size [Ang]:                1.766487
      Cartesian components [Ang]: [  0.809768,   0.727577,   1.391180]
    Electron size [Ang]:            3.100520
      Cartesian components [Ang]: [  1.366382,   2.125877,   1.796350]

  Transition density matrix analysis:
  -----------------------------------
  
  CT numbers (Mulliken)
    omega =     0.8591
    <Phe> =    -0.0000
  
  Exciton analysis of the transition density matrix
    Trans. dipole moment [D]:             0.007155
      Cartesian components [D]:         [  0.000000,   0.007155,  -0.000000]
    <r_h> [Ang]:                        [  0.000000,   0.000000,  -1.668726]
    <r_e> [Ang]:                        [ -0.000000,  -0.000000,   1.243668]
    |<r_e - r_h>| [Ang]:                  2.912394
    Hole size [Ang]:                      1.188024
      Cartesian components [Ang]:       [  0.469163,   0.405692,   1.013262]
    Electron size [Ang]:                  3.431741
      Cartesian components [Ang]:       [  1.615676,   2.676725,   1.414772]
    RMS electron-hole separation [Ang]:   4.653636
      Cartesian components [Ang]:       [  1.678269,   2.708788,   3.391490]
    Covariance(r_h, r_e) [Ang^2]:         0.006978
    Correlation coefficient:              0.001712
    Center-of-mass size [Ang]:            1.816742
      Cartesian components [Ang]:       [  0.843277,   1.352900,   0.871262]

  Decomposition into state-averaged NTOs
    H- 3 -> L+ 5:  0.6550 ( 85.8%)
                   omega =  85.9%
  ----------------------------------------------------------------------------


  Excited state 10 (singlet, B2)                                    [converged]
  ----------------------------------------------------------------------------
  Term symbol:  10 (1) B2                                   R^2 =  1.61143e-06

  Total energy:                                           -153.6550049583 a.u.
  Excitation energy:                                               8.522584 eV

  Osc. strength:                                                      0.195132
  Trans. dip. moment [a.u.]:           [   0.000000,   -0.966717,   -0.000000]
  <i|r^2|0> [a.u.]:                    [   0.000000,   -0.000000,    0.000000]

  Dip. moment [a.u.]:                  [  -0.000000,    0.000000,    2.920520]
  Total dipole [Debye]:                                               7.423222
  <r^2> [a.u.]:                        [  63.828217,   30.591805,  215.979412]
  Total <r^2> [a.u.]:                                               310.399433

  V1^2 = 0.9417, V2^2 = 0.0583

  Important amplitudes:
      occ i      occ j       vir a       vir b          v   
    ---------------------------------------------------------
     1 (B2) A              10 (A1) A                  0.6071
     1 (B2) A              11 (A1) A                  0.1854
    ---------------------------------------------------------

  Density matrix analysis:
  ------------------------
  NOs
    Occupation of frontier NOs:
       0.8943   1.0765
    Number of electrons: 26.000000
    Number of unpaired electrons: n_u =  2.66601, n_u,nl =  2.12848
    NO participation ratio (PR_NO):  4.188455
  
  
  Mulliken Population Analysis
  Atom      Charge (e)              h+              e-           Del q
  --------------------------------------------------------------------
   1 C       -0.478226        0.495262       -0.790562       -0.295300
   2 C       -0.478226        0.495262       -0.790562       -0.295300
   3 H        0.236076        0.059040       -0.003872        0.055168
   4 H        0.236076        0.059040       -0.003872        0.055168
   5 H        0.068845        0.062402        0.001336        0.063738
   6 H        0.068845        0.062402        0.001336        0.063738
   7 O       -0.820355        0.129727        0.100251        0.229978
   8 H        0.166964        0.031995        0.090815        0.122810
  --------------------------------------------------------------------
  Sum:       -1.000000        1.395129       -1.395129       -0.000000
  
  Multipole moment analysis of the density matrix
    Molecular charge:                      -1.000000
    Number of electrons:                   26.000000
      Center of electronic charge [Ang]: [  0.000000,  -0.000000,  -0.059441]
    Total nuclear charge:                  25.000000
      Center of nuclear charge [Ang]:    [  0.000000,   0.000000,  -0.000000]
    Dipole moment [D]:                     7.423220
      Cartesian components [D]:          [ -0.000000,   0.000000,   7.423220]
    RMS size of the density [Ang]:         1.827449
      Cartesian components [Ang]:        [  0.829127,   0.574007,   1.524020]
  
  Exciton analysis of the difference density matrix
    <r_h> [Ang]:                  [  0.000000,   0.000000,   0.697002]
    <r_e> [Ang]:                  [  0.000000,  -0.000000,   0.397809]
    |<r_e - r_h>| [Ang]:            0.299193
    Hole size [Ang]:                1.881149
      Cartesian components [Ang]: [  1.023093,   0.921987,   1.281383]
    Electron size [Ang]:            2.953302
      Cartesian components [Ang]: [  1.577329,   1.704160,   1.824792]

  Transition density matrix analysis:
  -----------------------------------
  
  CT numbers (Mulliken)
    omega =     0.9125
    <Phe> =    -0.0133
  
  Exciton analysis of the transition density matrix
    Trans. dipole moment [D]:             1.228575
      Cartesian components [D]:         [  0.000000,  -1.228575,  -0.000000]
    <r_h> [Ang]:                        [  0.000000,  -0.000000,   0.800126]
    <r_e> [Ang]:                        [  0.000000,  -0.000000,   0.326642]
    |<r_e - r_h>| [Ang]:                  0.473484
    Hole size [Ang]:                      1.497393
      Cartesian components [Ang]:       [  0.754333,   0.883254,   0.945002]
    Electron size [Ang]:                  3.303859
      Cartesian components [Ang]:       [  1.752516,   1.969442,   1.991349]
    RMS electron-hole separation [Ang]:   3.693808
      Cartesian components [Ang]:       [  1.903244,   2.149251,   2.324348]
    Covariance(r_h, r_e) [Ang^2]:        -0.131179
    Correlation coefficient:             -0.026516
    Center-of-mass size [Ang]:            1.795502
      Cartesian components [Ang]:       [  0.956337,   1.083790,   1.065198]

  Decomposition into state-averaged NTOs
    H- 1 -> L+ 2:  0.6398 ( 81.9%)
    H- 0 -> L+ 7: -0.1918 (  7.4%)
                   omega =  91.2%
  ----------------------------------------------------------------------------


--------------------------------------------------------------------------------
  Time of ADC calculation:  CPU 220.03 s  wall 57.45 s
================================================================================
 
 --------------------------------------------------------------
             Orbital Energies (a.u.) and Symmetries
 --------------------------------------------------------------
 
 Alpha MOs, Restricted
 -- Occupied --                  
-20.213 -11.049 -11.047  -0.930  -0.854  -0.598  -0.473  -0.384
  1 A1    2 A1    1 B1    3 A1    4 A1    2 B1    5 A1    6 A1                 
 -0.328  -0.271  -0.194  -0.129  -0.128
  3 B1    7 A1    1 B2    4 B1    2 B2                                         
 -- Virtual --                   
  0.174   0.193   0.229   0.232   0.241   0.242   0.292   0.355
  5 B1    8 A1    9 A1    1 A2    6 B1    3 B2   10 A1   11 A1                 
  0.378   0.378   0.448   0.456   0.467   0.524   0.529   0.577
  7 B1    2 A2    4 B2   12 A1    8 B1   13 A1    9 B1   14 A1                 
  0.604   0.629   0.684   0.814   0.953   0.958   1.043   1.045
 10 B1   15 A1   11 B1   16 A1   17 A1    5 B2    3 A2   18 A1                 
  1.077   1.126   1.169   1.190   1.203   1.213   1.275   1.291
 19 A1   12 B1   13 B1   14 B1    6 B2   20 A1   21 A1    4 A2                 
  1.329   1.329   1.370   1.448   1.467   1.483   1.560   1.642
 22 A1   15 B1    7 B2   16 B1    8 B2    5 A2   17 B1   23 A1                 
  1.691   1.719   1.849   1.926   1.960   2.028   2.113   2.122
 18 B1    9 B2   24 A1   19 B1   25 A1    6 A2   26 A1   10 B2                 
  2.135   2.173   2.212   2.281   2.355   2.393   2.433   2.472
 20 B1   27 A1   11 B2   28 A1    7 A2   12 B2   21 B1   22 B1                 
  2.551   2.604   2.714   2.748   2.846   3.008   3.029   3.083
 29 A1    8 A2   23 B1   30 A1   24 B1   31 A1   32 A1   33 A1                 
  3.444   3.562   3.921   3.945   3.970   4.087   4.535
 25 B1   26 B1   13 B2    9 A2   34 A1   27 B1   35 A1                         
 
 Beta MOs, Restricted
 -- Occupied --                  
-20.213 -11.049 -11.047  -0.930  -0.854  -0.598  -0.473  -0.384
  1 A1    2 A1    1 B1    3 A1    4 A1    2 B1    5 A1    6 A1                 
 -0.328  -0.271  -0.194  -0.129  -0.128
  3 B1    7 A1    1 B2    4 B1    2 B2                                         
 -- Virtual --                   
  0.174   0.193   0.229   0.232   0.241   0.242   0.292   0.355
  5 B1    8 A1    9 A1    1 A2    6 B1    3 B2   10 A1   11 A1                 
  0.378   0.378   0.448   0.456   0.467   0.524   0.529   0.577
  7 B1    2 A2    4 B2   12 A1    8 B1   13 A1    9 B1   14 A1                 
  0.604   0.629   0.684   0.814   0.953   0.958   1.043   1.045
 10 B1   15 A1   11 B1   16 A1   17 A1    5 B2    3 A2   18 A1                 
  1.077   1.126   1.169   1.190   1.203   1.213   1.275   1.291
 19 A1   12 B1   13 B1   14 B1    6 B2   20 A1   21 A1    4 A2                 
  1.329   1.329   1.370   1.448   1.467   1.483   1.560   1.642
 22 A1   15 B1    7 B2   16 B1    8 B2    5 A2   17 B1   23 A1                 
  1.691   1.719   1.849   1.926   1.960   2.028   2.113   2.122
 18 B1    9 B2   24 A1   19 B1   25 A1    6 A2   26 A1   10 B2                 
  2.135   2.173   2.212   2.281   2.355   2.393   2.433   2.472
 20 B1   27 A1   11 B2   28 A1    7 A2   12 B2   21 B1   22 B1                 
  2.551   2.604   2.714   2.748   2.846   3.008   3.029   3.083
 29 A1    8 A2   23 B1   30 A1   24 B1   31 A1   32 A1   33 A1                 
  3.444   3.562   3.921   3.945   3.970   4.087   4.535
 25 B1   26 B1   13 B2    9 A2   34 A1   27 B1   35 A1                         
 --------------------------------------------------------------
 
          Ground-State Mulliken Net Atomic Charges

     Atom                 Charge (a.u.)
  ----------------------------------------
      1 C                    -0.176717
      2 C                    -0.176717
      3 H                     0.173007
      4 H                     0.173007
      5 H                    -0.000076
      6 H                    -0.000076
      7 O                    -1.053042
      8 H                     0.060612
  ----------------------------------------
  Sum of atomic charges =    -1.000000

 -----------------------------------------------------------------
                    Cartesian Multipole Moments
 -----------------------------------------------------------------
    Charge (ESU x 10^10)
                -4.8032
    Dipole Moment (Debye)
         X       0.0000      Y       0.0000      Z       5.2625
       Tot       5.2625
    Quadrupole Moments (Debye-Ang)
        XX     -23.6586     XY       0.0000     YY     -26.4923
        XZ       0.0000     YZ      -0.0000     ZZ     -32.8129
    Octopole Moments (Debye-Ang^2)
       XXX       0.0000    XXY       0.0000    XYY      -0.0000
       YYY       0.0000    XXZ       0.8915    XYZ      -0.0000
       YYZ      -0.1881    XZZ       0.0000    YZZ      -0.0000
       ZZZ       5.9181
    Hexadecapole Moments (Debye-Ang^3)
      XXXX     -87.8917   XXXY      -0.0000   XXYY     -21.8390
      XYYY       0.0000   YYYY     -40.3379   XXXZ       0.0000
      XXYZ      -0.0000   XYYZ      -0.0000   YYYZ      -0.0000
      XXZZ     -70.4373   XYZZ       0.0000   YYZZ     -65.2746
      XZZZ       0.0000   YZZZ      -0.0000   ZZZZ    -291.7193
 -----------------------------------------------------------------
 Total job time:  166.44s(wall), 268.03s(cpu) 
 Fri Mar  4 18:43:25 2022

        *************************************************************
        *                                                           *
        *  Thank you very much for using Q-Chem.  Have a nice day.  *
        *                                                           *
        *************************************************************


