/src/tsommerfeld/qchem/exe/qcprog.exe .input1.187879.15018.qcin.1 /src/jdavis/qchem.scratch/qchem15018/

                  Welcome to Q-Chem
     A Quantum Leap Into The Future Of Chemistry


 Q-Chem 5.4 (devel), Q-Chem, Inc., Pleasanton, CA (2021)

 E. Epifanovsky,  A. T. B. Gilbert,  Xintian Feng,  Joonho Lee,  Yuezhi Mao,  
 N. Mardirossian,  P. Pokhilko,  A. White,  M. Wormit,  M. P. Coons,  
 A. L. Dempwolff,  Zhengting Gan,  D. Hait,  P. R. Horn,  L. D. Jacobson,  
 I. Kaliman,  J. Kussmann,  A. W. Lange,  Ka Un Lao,  D. S. Levine,  Jie Liu,  
 S. C. McKenzie,  A. F. Morrison,  K. Nanda,  F. Plasser,  D. R. Rehn,  
 M. L. Vidal,  Zhi-Qiang You,  Ying Zhu,  B. Alam,  B. Albrecht,  
 A. Aldossary,  E. Alguire,  J. H. Andersen,  D. Barton,  K. Begam,  A. Behn,  
 Y. A. Bernard,  E. J. Berquist,  H. Burton,  A. Carreras,  K. Carter-Fenk,  
 R. Chakraborty,  A. D. Chien,  K. D. Closser,  V. Cofer-Shabica,  
 S. Dasgupta,  Jia Deng,  M. de Wergifosse,  M. Diedenhofen,  Hainam Do,  
 S. Ehlert,  Po-Tung Fang,  S. Fatehi,  Qingguo Feng,  T. Friedhoff,  
 J. Gayvert,  Qinghui Ge,  G. Gidofalvi,  M. Goldey,  J. Gomes,  
 C. Gonzalez-Espinoza,  S. Gulania,  A. Gunina,  M. W. D. Hanson-Heine,  
 P. H. P. Harbach,  A. W. Hauser,  M. F. Herbst,  M. Hernandez Vera,  
 M. Hodecker,  Z. C. Holden,  S. Houck,  Xunkun Huang,  Kerwin Hui,  
 B. C. Huynh,  M. Ivanov,  Hyunjun Ji,  Hanjie Jiang,  B. Kaduk,  S. Kaehler,  
 K. Khistyaev,  Jaehoon Kim,  P. Klunzinger,  Z. Koczor-Benda,  
 Joong Hoon Koh,  D. Kosenkov,  L. Koulias,  T. Kowalczyk,  C. M. Krauter,  
 K. Kue,  A. Kunitsa,  T. Kus,  A. Landau,  K. V. Lawler,  D. Lefrancois,  
 S. Lehtola,  Rain Li,  Yi-Pei Li,  Jiashu Liang,  M. Liebenthal,  
 Hung-Hsuan Lin,  You-Sheng Lin,  Fenglai Liu,  Kuan-Yu Liu,  
 M. Loipersberger,  A. Luenser,  A. Manjanath,  P. Manohar,  E. Mansoor,  
 S. F. Manzer,  Shan-Ping Mao,  A. V. Marenich,  T. Markovich,  S. Mason,  
 S. A. Maurer,  P. F. McLaughlin,  M. F. S. J. Menger,  J.-M. Mewes,  
 S. A. Mewes,  P. Morgante,  J. W. Mullinax,  K. J. Oosterbaan,  G. Paran,  
 Alexander C. Paul,  Suranjan K. Paul,  F. Pavosevic,  Zheng Pei,  S. Prager,  
 E. I. Proynov,  E. Ramos,  B. Rana,  A. E. Rask,  A. Rettig,  R. M. Richard,  
 F. Rob,  E. Rossomme,  T. Scheele,  M. Scheurer,  M. Schneider,  
 N. Sergueev,  S. M. Sharada,  W. Skomorowski,  D. W. Small,  C. J. Stein,  
 Yu-Chuan Su,  E. J. Sundstrom,  Zhen Tao,  J. Thirman,  T. Tsuchimochi,  
 N. M. Tubman,  S. P. Veccham,  O. Vydrov,  J. Wenzel,  J. Witte,  A. Yamada,  
 Kun Yao,  S. Yeganeh,  S. R. Yost,  A. Zech,  Igor Ying Zhang,  Xing Zhang,  
 Yu Zhang,  D. Zuev,  A. Aspuru-Guzik,  A. T. Bell,  N. A. Besley,  
 K. B. Bravaya,  B. R. Brooks,  D. Casanova,  Jeng-Da Chai,  S. Coriani,  
 C. J. Cramer,  A. E. DePrince, III,  R. A. DiStasio Jr.,  A. Dreuw,  
 B. D. Dunietz,  T. R. Furlani,  W. A. Goddard III,  S. Grimme,  
 S. Hammes-Schiffer,  T. Head-Gordon,  W. J. Hehre,  Chao-Ping Hsu,  
 T.-C. Jagau,  Yousung Jung,  A. Klamt,  Jing Kong,  D. S. Lambrecht,  
 WanZhen Liang,  N. J. Mayhall,  C. W. McCurdy,  J. B. Neaton,  
 C. Ochsenfeld,  J. A. Parkhill,  R. Peverati,  V. A. Rassolov,  Yihan Shao,  
 L. V. Slipchenko,  T. Stauch,  R. P. Steele,  J. E. Subotnik,  
 A. J. W. Thom,  A. Tkatchenko,  D. G. Truhlar,  T. Van Voorhis,  
 T. A. Wesolowski,  K. B. Whaley,  H. L. Woodcock III,  P. M. Zimmerman,  
 S. Faraji,  P. M. W. Gill,  M. Head-Gordon,  J. M. Herbert,  A. I. Krylov

 Additional authors for Version 5.4.1: 
 S. Kotaru,  Shaozhi Li,  Xiangyuan Li,  F. Matz,  A. Molle,  Haisheng Ren,  
 Yingli Su,  Hung-Yi Tsai,  C. Utku,  Fang Wang

 Contributors to earlier versions of Q-Chem not listed above: 
 R. D. Adamson,  B. Austin,  R. Baer,  J. Baker,  G. J. O. Beran,  
 K. Brandhorst,  S. T. Brown,  E. F. C. Byrd,  A. K. Chakraborty,  
 G. K. L. Chan,  Chun-Min Chang,  Yunqing Chen,  C.-L. Cheng,  
 Siu Hung Chien,  D. M. Chipman,  D. L. Crittenden,  H. Dachsel,  
 R. J. Doerksen,  A. D. Dutoi,  R. G. Edgar,  J. Fosso-Tande,  
 L. Fusti-Molnar,  D. Ghosh,  A. Ghysels,  A. Golubeva-Zadorozhnaya,  
 J. Gonthier,  M. S. Gordon,  S. R. Gwaltney,  G. Hawkins,  J. E. Herr,  
 A. Heyden,  S. Hirata,  E. G. Hohenstein,  G. Kedziora,  F. J. Keil,  
 C. Kelley,  Jihan Kim,  R. A. King,  R. Z. Khaliullin,  P. P. Korambath,  
 W. Kurlancheek,  A. Laurent,  A. M. Lee,  M. S. Lee,  S. V. Levchenko,  
 Ching Yeh Lin,  D. Liotard,  E. Livshits,  R. C. Lochan,  I. Lotan,  
 L. A. Martinez-Martinez,  P. E. Maslen,  N. Nair,  D. P. O'Neill,  
 D. Neuhauser,  E. Neuscamman,  C. M. Oana,  R. Olivares-Amaya,  R. Olson,  
 T. M. Perrine,  B. Peters,  P. A. Pieniazek,  A. Prociuk,  Y. M. Rhee,  
 J. Ritchie,  M. A. Rohrdanz,  E. Rosta,  N. J. Russ,  H. F. Schaefer III,  
 M. W. Schmidt,  N. E. Schultz,  S. Sharma,  N. Shenvi,  C. D. Sherrill,  
 A. C. Simmonett,  A. Sodt,  T. Stein,  D. Stuck,  K. S. Thanthiriwatte,  
 V. Vanovschi,  L. Vogt,  Tao Wang,  A. Warshel,  M. A. Watson,  
 C. F. Williams,  Q. Wu,  X. Xu,  Jun Yang,  W. Zhang,  Yan Zhao

 Please cite Q-Chem as follows:
 Y. Shao et al., Mol. Phys. 113, 184-215 (2015)
 DOI: 10.1080/00268976.2014.952696

 Q-Chem 5.4.1 for Intel X86 EM64T Linux

 Parts of Q-Chem use Armadillo 9.900.5 (Nocturnal Misbehaviour).
 http://arma.sourceforge.net/

 Q-Chem begins on Fri Mar  4 19:05:51 2022  

 Host: node01
0

     Scratch files written to /src/jdavis/qchem.scratch/qchem15018//
 Processing $rem in /src/tsommerfeld/qchem/config/preferences:
 Processing $rem in /home/jdavis/.qchemrc:

 Checking the input file for inconsistencies... 	...done.

--------------------------------------------------------------
User input:
--------------------------------------------------------------
$molecule
-1 1
C        -0.6645000000    0.0000000000    1.1619088658
C         0.6645000000    0.0000000000    1.1619088658
H        -1.1590800000    0.0000000000    0.1995598658
H         1.1590800000    0.0000000000    0.1995598658
H        -1.1590800000    0.0000000000    2.1242568658
H         1.1590800000    0.0000000000    2.1242568658
O         0.0000000000    0.0000000000   -1.5841414040
H         0.0000000000    0.0000000000   -2.5471307683
$end
$rem
   METHOD adc(2)
   BASIS gen
   PURECART 11
   EE_STATES [0,0,0,10]
   scf_convergence 8
   ADC_DAVIDSON_MAXITER 120
   ADC_DAVIDSON_MAXSUBSPACE 200
   adc_nguess_singles 100
   THRESH 14
   S2THRESH 14
   adc_davidson_conv 5
   adc_davidson_thresh 14
   THREADS 10
   MEM_TOTAL 95000
   STATE_ANALYSIS TRUE
$end
$basis
C 1
S   9   1.00
      6.665000D+03           6.920000D-04
      1.000000D+03           5.329000D-03
      2.280000D+02           2.707700D-02
      6.471000D+01           1.017180D-01
      2.106000D+01           2.747400D-01
      7.495000D+00           4.485640D-01
      2.797000D+00           2.850740D-01
      5.215000D-01           1.520400D-02
      1.596000D-01          -3.191000D-03
S   9   1.00
      6.665000D+03          -1.460000D-04
      1.000000D+03          -1.154000D-03
      2.280000D+02          -5.725000D-03
      6.471000D+01          -2.331200D-02
      2.106000D+01          -6.395500D-02
      7.495000D+00          -1.499810D-01
      2.797000D+00          -1.272620D-01
      5.215000D-01           5.445290D-01
      1.596000D-01           5.804960D-01
S   1   1.00
      1.596000D-01           1.000000D+00
S   1   1.00
      0.0469000              1.0000000
P   4   1.00
      9.439000D+00           3.810900D-02
      2.002000D+00           2.094800D-01
      5.456000D-01           5.085570D-01
      1.517000D-01           4.688420D-01
P   1   1.00
      1.517000D-01           1.000000D+00
P   1   1.00
      0.0514861      1.0000000
D   1   1.00
      5.500000D-01           1.0000000
****
C 2
S   9   1.00
      6.665000D+03           6.920000D-04
      1.000000D+03           5.329000D-03
      2.280000D+02           2.707700D-02
      6.471000D+01           1.017180D-01
      2.106000D+01           2.747400D-01
      7.495000D+00           4.485640D-01
      2.797000D+00           2.850740D-01
      5.215000D-01           1.520400D-02
      1.596000D-01          -3.191000D-03
S   9   1.00
      6.665000D+03          -1.460000D-04
      1.000000D+03          -1.154000D-03
      2.280000D+02          -5.725000D-03
      6.471000D+01          -2.331200D-02
      2.106000D+01          -6.395500D-02
      7.495000D+00          -1.499810D-01
      2.797000D+00          -1.272620D-01
      5.215000D-01           5.445290D-01
      1.596000D-01           5.804960D-01
S   1   1.00
      1.596000D-01           1.000000D+00
S   1   1.00
      0.0469000              1.0000000
P   4   1.00
      9.439000D+00           3.810900D-02
      2.002000D+00           2.094800D-01
      5.456000D-01           5.085570D-01
      1.517000D-01           4.688420D-01
P   1   1.00
      1.517000D-01           1.000000D+00
P   1   1.00
      0.0514861      1.0000000
D   1   1.00
      5.500000D-01           1.0000000
****
H 3
cc-pVDZ
****
H 4
cc-pVDZ
****
H 5
cc-pVDZ
****
H 6
cc-pVDZ
****
O 7
aug-cc-pVDZ
****
H 8
cc-pVDZ
****
$end
--------------------------------------------------------------
 ----------------------------------------------------------------
             Standard Nuclear Orientation (Angstroms)
    I     Atom           X                Y                Z
 ----------------------------------------------------------------
    1      C      -0.6645000000    -0.0000000000     1.0270977517
    2      C       0.6645000000     0.0000000000     1.0270977517
    3      H      -1.1590800000    -0.0000000000     0.0647487517
    4      H       1.1590800000     0.0000000000     0.0647487517
    5      H      -1.1590800000    -0.0000000000     1.9894457517
    6      H       1.1590800000     0.0000000000     1.9894457517
    7      O       0.0000000000    -0.0000000000    -1.7189525181
    8      H       0.0000000000    -0.0000000000    -2.6819418824
 ----------------------------------------------------------------
 Molecular Point Group                 C2v   NOp =  4
 Largest Abelian Subgroup              C2v   NOp =  4
 Nuclear Repulsion Energy =          64.38561153 hartrees
 There are       13 alpha and       13 beta electrons
 Requested basis set is non-standard
 There are 40 shells and 84 basis functions
 Total memory of 95000 MB is distributed as follows: 
   MEM_STATIC is set to 192 MB
   QALLOC/CCMAN JOB total memory use is  94808 MB
 Warning: actual memory use might exceed 95000 MB

 Total QAlloc Memory Limit  95000 MB
 Mega-Array Size       188 MB
 MEM_STATIC part       192 MB

                       Distance Matrix (Angstroms)
             C (  1)   C (  2)   H (  3)   H (  4)   H (  5)   H (  6)
   C (  2)  1.329000
   H (  3)  1.082000  2.061931
   H (  4)  2.061931  1.082000  2.318160
   H (  5)  1.082000  2.061931  1.924697  3.013026
   H (  6)  2.061931  1.082000  3.013026  1.924697  2.318160
   O (  7)  2.825306  2.825306  2.127218  2.127218  3.885316  3.885316
   H (  8)  3.768094  3.768094  2.981237  2.981237  4.813037  4.813037
             O (  7)
   H (  8)  0.962989
 
 A cutoff of  1.0D-14 yielded    820 shell pairs
 There are      3652 function pairs (      4018 Cartesian)
 Smallest overlap matrix eigenvalue = 1.52E-04

 Scale SEOQF with 1.000000e-01/1.000000e-01/1.000000e-01

 Standard Electronic Orientation quadrupole field applied
 Nucleus-field energy     =    -0.0000000051 hartrees
 ================ Generating on-the-fly SAD Guess ================
Attempting to make child job directory: /src/jdavis/qchem.scratch/qchem15018//Frg1/
Attempting to make child job directory: /src/jdavis/qchem.scratch/qchem15018//Frg2/
Attempting to make child job directory: /src/jdavis/qchem.scratch/qchem15018//Frg3/
Creating input file /src/jdavis/qchem.scratch/qchem15018/Frg1.input
using default PutDataFrgm: nothing
calling putenv with: QCSCRATCH=/src/jdavis/qchem.scratch/qchem15018/ 
Spawning Job For Fragment 0
Done Job For Fragment 0
calling putenv with: QCSCRATCH=/src/jdavis/qchem.scratch 
calling putenv with: QCTHREADS=1 
Creating input file /src/jdavis/qchem.scratch/qchem15018/Frg2.input
using default PutDataFrgm: nothing
calling putenv with: QCSCRATCH=/src/jdavis/qchem.scratch/qchem15018/ 
Spawning Job For Fragment 1
Done Job For Fragment 1
calling putenv with: QCSCRATCH=/src/jdavis/qchem.scratch 
calling putenv with: QCTHREADS=1 
Creating input file /src/jdavis/qchem.scratch/qchem15018/Frg3.input
using default PutDataFrgm: nothing
calling putenv with: QCSCRATCH=/src/jdavis/qchem.scratch/qchem15018/ 
Spawning Job For Fragment 2
Done Job For Fragment 2
calling putenv with: QCSCRATCH=/src/jdavis/qchem.scratch 
calling putenv with: QCTHREADS=1 
 Time for running child jobs:  CPU 1.81 s  wall 80.91 s
 ============= Method Specific SAD Guess Constructed =============
 Guess from on-the-fly superposition of atomic densities
 Warning: Energy on first SCF cycle will be non-variational
 A restricted Hartree-Fock SCF calculation will be
 performed using Pulay DIIS extrapolation
 SCF converges when DIIS error is below 1.0E-08
 using 10 threads for integral computing
 -------------------------------------------------------
 OpenMP Integral computing Module                
 Release: version 1.0, May 2013, Q-Chem Inc. Pittsburgh 
 -------------------------------------------------------
 ---------------------------------------
  Cycle       Energy         DIIS Error
 ---------------------------------------
    1    -153.5735052252      6.41E-02
    2    -153.2896467375      1.31E-02
    3    -153.3571668930      1.09E-02
    4    -153.4400470829      7.99E-04
    5    -153.4409502396      2.26E-04
    6    -153.4410217301      4.85E-05
    7    -153.4410268256      1.26E-05
    8    -153.4410273485      3.75E-06
    9    -153.4410273931      7.94E-07
   10    -153.4410273946      1.39E-07
   11    -153.4410273947      3.73E-08
   12    -153.4410273947      1.01E-08
   13    -153.4410273947      1.88E-09 Convergence criterion met
 ---------------------------------------
 SCF time:  CPU 13.91 s  wall 1.40 s
 SCF   energy in the final basis set = -153.44102739
 Total energy in the final basis set = -153.44102739
================================================================================
|                                                                              |
|                                 A D C  M A N                                 |
|                                                                              |
 ------------------------------------------------------------------------------ 
|                                                                              |
| Components:                                                                  |
|                                                                              |
| - libvmm - 1.3-trunk                                                         |
|   Authors:                                                                   |
|   Evgeny Epifanovsky, Ilya Kaliman                                           |
|                                                                              |
| - libtensor - 2.5-trunk                                                      |
|   Authors:                                                                   |
|   Evgeny Epifanovsky, Michael Wormit, Dmitry Zuev, Sam Manzer,               |
|   Ilya Kaliman                                                               |
|                                                                              |
| - libwfa - 1.1-trunk                                                         |
|   Authors:                                                                   |
|   Felix Plasser, Stefanie Mewes (Baeppler), Benjamin Thomitzni,              |
|   Michael Wormit, Feng Chen, Anna I. Krylov, Pavel Pokhilko                  |
|                                                                              |
| - libadc - 1.1-trunk                                                         |
|   Authors:                                                                   |
|   Michael Wormit, Adrian L. Dempwolff, Philipp H. P. Harbach,                |
|   Caroline Krauter, Dirk Rehn, Matthias Schneider, Jan Wenzel                |
|                                                                              |
| - adcman - 2.6-trunk                                                         |
|   Authors:                                                                   |
|   Michael Wormit, Adrian L. Dempwolff, Philipp H. P. Harbach,                |
|   Caroline Krauter, Daniel Lefrancois, Jan-Michael Mewes, Dirk Rehn,         |
|   Matthias Schneider, Jan Wenzel, Andreas Dreuw                              |
|                                                                              |
| Authors of earlier versions of ADCMAN:                                       |
| Andreas Dreuw, Jan Hendrik Starcke, Dirk Rehn, Michael Wormit                |
|                                                                              |
================================================================================

 
 Alpha MOs, Restricted
 -- Occupied --                  
-20.213 -11.049 -11.047  -0.929  -0.854  -0.598  -0.473  -0.384
  1 A1    2 A1    1 B1    3 A1    4 A1    2 B1    5 A1    6 A1                 
 -0.328  -0.271  -0.194  -0.129  -0.128
  3 B1    7 A1    1 B2    4 B1    2 B2                                         
 -- Virtual --                   
  0.224   0.243   0.269   0.274   0.302   0.304   0.313   0.355
  8 A1    5 B1    1 A2    9 A1    3 B2    6 B1   10 A1    7 B1                 
  0.369   0.417   0.445   0.465   0.490   0.522   0.530   0.577
 11 A1    2 A2    4 B2    8 B1   12 A1   13 A1    9 B1   14 A1                 
  0.642   0.650   0.712   0.872   0.974   1.029   1.052   1.062
 10 B1   15 A1   11 B1   16 A1   17 A1    5 B2   18 A1   12 B1                 
  1.078   1.105   1.185   1.204   1.207   1.214   1.291   1.307
 19 A1    3 A2   13 B1    6 B2   20 A1   14 B1    4 A2   21 A1                 
  1.331   1.334   1.370   1.468   1.483   1.492   1.555   1.642
 22 A1   15 B1    7 B2    8 B2    5 A2   16 B1   17 B1   23 A1                 
  1.702   1.716   1.856   1.926   1.977   2.038   2.122   2.124
 18 B1    9 B2   24 A1   19 B1   25 A1    6 A2   20 B1   10 B2                 
  2.126   2.191   2.212   2.296   2.358   2.394   2.425   2.514
 26 A1   27 A1   11 B2   28 A1    7 A2   12 B2   21 B1   22 B1                 
  2.556   2.604   2.745   2.756   2.843   3.005   3.032   3.086
 29 A1    8 A2   23 B1   30 A1   24 B1   31 A1   32 A1   33 A1                 
  3.446   3.562   3.921   3.946   3.971   4.085   4.540
 25 B1   26 B1   13 B2    9 A2   34 A1   27 B1   35 A1                         
 
 Beta MOs, Restricted
 -- Occupied --                  
-20.213 -11.049 -11.047  -0.929  -0.854  -0.598  -0.473  -0.384
  1 A1    2 A1    1 B1    3 A1    4 A1    2 B1    5 A1    6 A1                 
 -0.328  -0.271  -0.194  -0.129  -0.128
  3 B1    7 A1    1 B2    4 B1    2 B2                                         
 -- Virtual --                   
  0.224   0.243   0.269   0.274   0.302   0.304   0.313   0.355
  8 A1    5 B1    1 A2    9 A1    3 B2    6 B1   10 A1    7 B1                 
  0.369   0.417   0.445   0.465   0.490   0.522   0.530   0.577
 11 A1    2 A2    4 B2    8 B1   12 A1   13 A1    9 B1   14 A1                 
  0.642   0.650   0.712   0.872   0.974   1.029   1.052   1.062
 10 B1   15 A1   11 B1   16 A1   17 A1    5 B2   18 A1   12 B1                 
  1.078   1.105   1.185   1.204   1.207   1.214   1.291   1.307
 19 A1    3 A2   13 B1    6 B2   20 A1   14 B1    4 A2   21 A1                 
  1.331   1.334   1.370   1.468   1.483   1.492   1.555   1.642
 22 A1   15 B1    7 B2    8 B2    5 A2   16 B1   17 B1   23 A1                 
  1.702   1.716   1.856   1.926   1.977   2.038   2.122   2.124
 18 B1    9 B2   24 A1   19 B1   25 A1    6 A2   20 B1   10 B2                 
  2.126   2.191   2.212   2.296   2.358   2.394   2.425   2.514
 26 A1   27 A1   11 B2   28 A1    7 A2   12 B2   21 B1   22 B1                 
  2.556   2.604   2.745   2.756   2.843   3.005   3.032   3.086
 29 A1    8 A2   23 B1   30 A1   24 B1   31 A1   32 A1   33 A1                 
  3.446   3.562   3.921   3.946   3.971   4.085   4.540
 25 B1   26 B1   13 B2    9 A2   34 A1   27 B1   35 A1                         

--------------------------------------------------------------------------------
                                   HF Summary                                   
--------------------------------------------------------------------------------
  Energy:                                                 -153.4410273947 a.u.
  Dip. moment [a.u.]:                  [   0.000000,    0.000000,    2.082248]
  Total dipole [Debye]:                                               5.292548
  <r^2> [a.u.]:                        [  55.664817,   19.635808,  208.020647]
  Total <r^2> [a.u.]:                                               283.321272
--------------------------------------------------------------------------------

--------------------------------------------------------------------------------
                                 MP(2) Summary                                  
--------------------------------------------------------------------------------
  MP energy contribution:                                   -0.5277325699 a.u.
  Total energy:                                           -153.9687599646 a.u.
  Dip. moment [a.u.]:                  [   0.000000,    0.000000,    2.148616]
  Total dipole [Debye]:                                               5.461237
  <r^2> [a.u.]:                        [  56.596112,   20.296820,  209.254032]
  Total <r^2> [a.u.]:                                               286.146964

  Density matrix analysis:
  ------------------------
  NOs
    Occupation of frontier NOs:
       0.0446   1.9358
    Number of electrons: 26.000000
    Number of unpaired electrons: n_u =  0.71518, n_u,nl =  0.08533
    NO participation ratio (PR_NO): 23.017744
  
  
  Mulliken Population Analysis
  Atom      Charge (e)              h+              e-           Del q
  --------------------------------------------------------------------
   1 C       -0.187069        0.093408       -0.096698       -0.003291
   2 C       -0.187069        0.093408       -0.096698       -0.003291
   3 H        0.182868        0.016631       -0.009075        0.007555
   4 H        0.182868        0.016631       -0.009075        0.007555
   5 H        0.014831        0.017902       -0.012294        0.005609
   6 H        0.014831        0.017902       -0.012294        0.005609
   7 O       -1.070613        0.275243       -0.278452       -0.003209
   8 H        0.049354        0.015727       -0.032266       -0.016539
  --------------------------------------------------------------------
  Sum:       -1.000000        0.546852       -0.546852       -0.000000
  
  Multipole moment analysis of the density matrix
    Molecular charge:                      -1.000000
    Number of electrons:                   26.000000
      Center of electronic charge [Ang]: [ -0.000000,  -0.000000,  -0.043731]
    Total nuclear charge:                  25.000000
      Center of nuclear charge [Ang]:    [  0.000000,   0.000000,  -0.000000]
    Dipole moment [D]:                     5.461236
      Cartesian components [D]:          [  0.000000,   0.000000,   5.461236]
    RMS size of the density [Ang]:         1.754988
      Cartesian components [Ang]:        [  0.780742,   0.467550,   1.500607]
  
  Exciton analysis of the difference density matrix
    <r_h> [Ang]:                  [  0.000000,  -0.000000,  -0.468905]
    <r_e> [Ang]:                  [  0.000000,  -0.000000,  -0.533127]
    |<r_e - r_h>| [Ang]:            0.064222
    Hole size [Ang]:                1.919226
      Cartesian components [Ang]: [  0.838506,   0.711582,   1.572891]
    Electron size [Ang]:            2.250786
      Cartesian components [Ang]: [  1.086271,   0.919149,   1.743909]
--------------------------------------------------------------------------------
  Starting Davidson for singlet states of irrep B2 ... 
--------------------------------------------------------------------------------
   It NVec Conv  Avg. Norm  Max. Norm  Conv. states           Remark
--------------------------------------------------------------------------------
       100    0  1.476e-01  5.648e-01  0.2747 n n n n n n n n Guess.
    1  110    0  1.741e-02  9.023e-02  0.1229 n n n n n n n n 
    2  120    0  1.315e-02  1.038e-01  0.1221 n n n n n n n n 
    3  130    0  4.809e-03  4.387e-02  0.1221 n n n n n n n n 
    4  140    0  1.056e-03  9.938e-03  0.1221 n n n n n n n n 
    5  150    3  2.127e-04  2.010e-03  0.1221 y y n n n y n n 
    6  160    7  2.781e-05  2.596e-04  0.1221 y y y y y y n y 
    7  170    8  4.375e-06  4.097e-05  0.1221 y y y y y y y y 
    8  180   10  4.299e-07  4.032e-06  0.1221 y y y y y y y y Converged.
--------------------------------------------------------------------------------
  Davidson Summary: 
 ------------------------------------------------------------
  State  0: excitation energy =   0.1221 a.u.   (converged)
  State  1: excitation energy =   0.1275 a.u.   (converged)
  State  2: excitation energy =   0.1379 a.u.   (converged)
  State  3: excitation energy =   0.1828 a.u.   (converged)
  State  4: excitation energy =   0.2289 a.u.   (converged)
  State  5: excitation energy =   0.2341 a.u.   (converged)
  State  6: excitation energy =   0.2622 a.u.   (converged)
  State  7: excitation energy =   0.2924 a.u.   (converged)
  State  8: excitation energy =   0.3185 a.u.   (converged)
  State  9: excitation energy =   0.3255 a.u.   (converged)
 ------------------------------------------------------------


--------------------------------------------------------------------------------
                   State-averaged natural transition orbitals
--------------------------------------------------------------------------------
--------------------------------------------------------------------------------

--------------------------------------------------------------------------------
                             Excited State Summary
--------------------------------------------------------------------------------
--------------------------------------------------------------------------------

  Excited state 1 (singlet, B2)                                    [converged]
  ----------------------------------------------------------------------------
  Term symbol:  1 (1) B2                                    R^2 =  2.30183e-09

  Total energy:                                           -153.8466246221 a.u.
  Excitation energy:                                               3.323472 eV

  Osc. strength:                                                      0.053383
  Trans. dip. moment [a.u.]:           [  -0.000000,    0.809702,    0.000000]
  <i|r^2|0> [a.u.]:                    [   0.000000,   -0.000000,    0.000000]

  Dip. moment [a.u.]:                  [   0.000000,   -0.000000,    2.300236]
  Total dipole [Debye]:                                               5.846618
  <r^2> [a.u.]:                        [  65.421471,   25.370117,  219.033025]
  Total <r^2> [a.u.]:                                               309.824612

  V1^2 = 0.8930, V2^2 = 0.1070

  Important amplitudes:
      occ i      occ j       vir a       vir b          v   
    ---------------------------------------------------------
     2 (B2) A               9 (A1) A                  0.5303
     2 (B2) A              10 (A1) A                  0.3398
    ---------------------------------------------------------

  Density matrix analysis:
  ------------------------
  NOs
    Occupation of frontier NOs:
       0.9666   0.9940
    Number of electrons: 26.000000
    Number of unpaired electrons: n_u =  2.72228, n_u,nl =  2.10475
    NO participation ratio (PR_NO):  3.799536
  
  
  Mulliken Population Analysis
  Atom      Charge (e)              h+              e-           Del q
  --------------------------------------------------------------------
   1 C       -0.587539        0.016741       -0.417211       -0.400470
   2 C       -0.587539        0.016741       -0.417211       -0.400470
   3 H        0.152835        0.001931       -0.031963       -0.030033
   4 H        0.152835        0.001931       -0.031963       -0.030033
   5 H        0.022105        0.012725       -0.005451        0.007274
   6 H        0.022105        0.012725       -0.005451        0.007274
   7 O       -0.901775        1.294371       -1.125533        0.168838
   8 H        0.726972        0.173345        0.504273        0.677618
  --------------------------------------------------------------------
  Sum:       -1.000000        1.530511       -1.530511       -0.000000
  
  Multipole moment analysis of the density matrix
    Molecular charge:                      -1.000000
    Number of electrons:                   26.000000
      Center of electronic charge [Ang]: [ -0.000000,   0.000000,  -0.046817]
    Total nuclear charge:                  25.000000
      Center of nuclear charge [Ang]:    [  0.000000,   0.000000,  -0.000000]
    Dipole moment [D]:                     5.846616
      Cartesian components [D]:          [  0.000000,  -0.000000,   5.846616]
    RMS size of the density [Ang]:         1.826122
      Cartesian components [Ang]:        [  0.839411,   0.522728,   1.535209]
  
  Exciton analysis of the difference density matrix
    <r_h> [Ang]:                  [  0.000000,  -0.000000,  -1.624573]
    <r_e> [Ang]:                  [ -0.000000,  -0.000000,  -1.676996]
    |<r_e - r_h>| [Ang]:            0.052423
    Hole size [Ang]:                1.584256
      Cartesian components [Ang]: [  0.782650,   0.866062,   1.071104]
    Electron size [Ang]:            2.582431
      Cartesian components [Ang]: [  1.492402,   1.295490,   1.662345]

  Transition density matrix analysis:
  -----------------------------------
  
  CT numbers (Mulliken)
    omega =     0.8751
    <Phe> =    -0.0102
  
  Exciton analysis of the transition density matrix
    Trans. dipole moment [D]:             1.029028
      Cartesian components [D]:         [ -0.000000,   1.029028,   0.000000]
    <r_h> [Ang]:                        [  0.000000,  -0.000000,  -1.743571]
    <r_e> [Ang]:                        [ -0.000000,   0.000000,  -1.850537]
    |<r_e - r_h>| [Ang]:                  0.106966
    Hole size [Ang]:                      1.085573
      Cartesian components [Ang]:       [  0.473635,   0.815938,   0.537013]
    Electron size [Ang]:                  2.977205
      Cartesian components [Ang]:       [  1.744052,   1.519608,   1.874253]
    RMS electron-hole separation [Ang]:   3.160968
      Cartesian components [Ang]:       [  1.806542,   1.719179,   1.942306]
    Covariance(r_h, r_e) [Ang^2]:         0.030969
    Correlation coefficient:              0.009582
    Center-of-mass size [Ang]:            1.589352
      Cartesian components [Ang]:       [  0.903950,   0.865210,   0.979962]

  Decomposition into state-averaged NTOs
    H- 0 -> L+ 0:  0.4565 ( 41.7%)
    H- 0 -> L+ 3: -0.4295 ( 36.9%)
    H- 0 -> L+ 4: -0.1480 (  4.4%)
    H- 0 -> L+ 1: -0.1413 (  4.0%)
                   omega =  87.5%
  ----------------------------------------------------------------------------


  Excited state 2 (singlet, B2)                                    [converged]
  ----------------------------------------------------------------------------
  Term symbol:  2 (1) B2                                    R^2 =  4.09284e-09

  Total energy:                                           -153.8412134740 a.u.
  Excitation energy:                                               3.470717 eV

  Osc. strength:                                                      0.008871
  Trans. dip. moment [a.u.]:           [  -0.000000,   -0.322991,    0.000000]
  <i|r^2|0> [a.u.]:                    [   0.000000,    0.000000,    0.000000]

  Dip. moment [a.u.]:                  [   0.000000,   -0.000000,   -4.188809]
  Total dipole [Debye]:                                              10.646892
  <r^2> [a.u.]:                        [  69.508962,   25.437690,  224.140196]
  Total <r^2> [a.u.]:                                               319.086847

  V1^2 = 0.8702, V2^2 = 0.1298

  Important amplitudes:
      occ i      occ j       vir a       vir b          v   
    ---------------------------------------------------------
     2 (B2) A               8 (A1) A                 -0.6279
     2 (B2) A              10 (A1) A                 -0.1249
    ---------------------------------------------------------

  Density matrix analysis:
  ------------------------
  NOs
    Occupation of frontier NOs:
       0.9631   0.9948
    Number of electrons: 26.000000
    Number of unpaired electrons: n_u =  2.74510, n_u,nl =  2.11283
    NO participation ratio (PR_NO):  3.868812
  
  
  Mulliken Population Analysis
  Atom      Charge (e)              h+              e-           Del q
  --------------------------------------------------------------------
   1 C       -0.810097        0.049668       -0.672696       -0.623028
   2 C       -0.810097        0.049668       -0.672696       -0.623028
   3 H        0.147808       -0.002077       -0.032984       -0.035060
   4 H        0.147808       -0.002077       -0.032984       -0.035060
   5 H        0.242250        0.048558        0.178861        0.227419
   6 H        0.242250        0.048558        0.178861        0.227419
   7 O       -0.409244        1.362487       -0.701117        0.661369
   8 H        0.249324        0.141382        0.058588        0.199970
  --------------------------------------------------------------------
  Sum:       -1.000000        1.696168       -1.696168       -0.000000
  
  Multipole moment analysis of the density matrix
    Molecular charge:                      -1.000000
    Number of electrons:                   26.000000
      Center of electronic charge [Ang]: [ -0.000000,   0.000000,   0.085255]
    Total nuclear charge:                  25.000000
      Center of nuclear charge [Ang]:    [  0.000000,   0.000000,  -0.000000]
    Dipole moment [D]:                     10.646888
      Cartesian components [D]:          [  0.000000,  -0.000000, -10.646888]
    RMS size of the density [Ang]:         1.851864
      Cartesian components [Ang]:        [  0.865237,   0.523424,   1.551385]
  
  Exciton analysis of the difference density matrix
    <r_h> [Ang]:                  [  0.000000,  -0.000000,  -1.388302]
    <r_e> [Ang]:                  [ -0.000000,   0.000000,   0.588872]
    |<r_e - r_h>| [Ang]:            1.977175
    Hole size [Ang]:                1.790588
      Cartesian components [Ang]: [  0.822250,   0.846248,   1.346839]
    Electron size [Ang]:            3.197659
      Cartesian components [Ang]: [  1.675690,   1.250946,   2.419135]

  Transition density matrix analysis:
  -----------------------------------
  
  CT numbers (Mulliken)
    omega =     0.8534
    <Phe> =    -0.0013
  
  Exciton analysis of the transition density matrix
    Trans. dipole moment [D]:             0.410481
      Cartesian components [D]:         [ -0.000000,  -0.410481,   0.000000]
    <r_h> [Ang]:                        [  0.000000,  -0.000000,  -1.730541]
    <r_e> [Ang]:                        [ -0.000000,   0.000000,   1.751177]
    |<r_e - r_h>| [Ang]:                  3.481717
    Hole size [Ang]:                      1.109603
      Cartesian components [Ang]:       [  0.476341,   0.819204,   0.577254]
    Electron size [Ang]:                  3.471774
      Cartesian components [Ang]:       [  2.056429,   1.531548,   2.340658]
    RMS electron-hole separation [Ang]:   5.035994
      Cartesian components [Ang]:       [  2.110494,   1.734368,   4.230724]
    Covariance(r_h, r_e) [Ang^2]:         0.022777
    Correlation coefficient:              0.005913
    Center-of-mass size [Ang]:            1.825513
      Cartesian components [Ang]:       [  1.055631,   0.869689,   1.209042]

  Decomposition into state-averaged NTOs
    H- 0 -> L+ 1: -0.6014 ( 72.3%)
    H- 0 -> L+ 3:  0.2318 ( 10.7%)
    H- 0 -> L+ 4:  0.0850 (  1.4%)
                   omega =  85.3%
  ----------------------------------------------------------------------------


  Excited state 3 (singlet, B2)                                    [converged]
  ----------------------------------------------------------------------------
  Term symbol:  3 (1) B2                                    R^2 =  1.05781e-08

  Total energy:                                           -153.8308571799 a.u.
  Excitation energy:                                               3.752526 eV

  Osc. strength:                                                      0.001067
  Trans. dip. moment [a.u.]:           [   0.000000,    0.107717,    0.000000]
  <i|r^2|0> [a.u.]:                    [   0.000000,    0.000000,    0.000000]

  Dip. moment [a.u.]:                  [   0.000000,    0.000000,   -2.794265]
  Total dipole [Debye]:                                               7.102314
  <r^2> [a.u.]:                        [  63.473918,   27.123698,  201.983411]
  Total <r^2> [a.u.]:                                               292.581026

  V1^2 = 0.8718, V2^2 = 0.1282

  Important amplitudes:
      occ i      occ j       vir a       vir b          v   
    ---------------------------------------------------------
     4 (B1) A               1 (A2) A                  0.6370
     4 (B1) A               2 (A2) A                 -0.1702
    ---------------------------------------------------------

  Density matrix analysis:
  ------------------------
  NOs
    Occupation of frontier NOs:
       0.9668   0.9949
    Number of electrons: 26.000000
    Number of unpaired electrons: n_u =  2.72308, n_u,nl =  2.10165
    NO participation ratio (PR_NO):  3.799336
  
  
  Mulliken Population Analysis
  Atom      Charge (e)              h+              e-           Del q
  --------------------------------------------------------------------
   1 C       -0.609807        0.090297       -0.513034       -0.422737
   2 C       -0.609807        0.090297       -0.513034       -0.422737
   3 H        0.111143       -0.000499       -0.071225       -0.071725
   4 H        0.111143       -0.000499       -0.071225       -0.071725
   5 H        0.008016        0.010893       -0.017709       -0.006816
   6 H        0.008016        0.010893       -0.017709       -0.006816
   7 O       -0.163567        1.360643       -0.453597        0.907046
   8 H        0.144862        0.116217       -0.020708        0.095509
  --------------------------------------------------------------------
  Sum:       -1.000000        1.678241       -1.678241        0.000000
  
  Multipole moment analysis of the density matrix
    Molecular charge:                      -1.000000
    Number of electrons:                   26.000000
      Center of electronic charge [Ang]: [ -0.000000,  -0.000000,   0.056872]
    Total nuclear charge:                  25.000000
      Center of nuclear charge [Ang]:    [  0.000000,   0.000000,  -0.000000]
    Dipole moment [D]:                     7.102312
      Cartesian components [D]:          [  0.000000,   0.000000,  -7.102312]
    RMS size of the density [Ang]:         1.774249
      Cartesian components [Ang]:        [  0.826822,   0.540492,   1.473836]
  
  Exciton analysis of the difference density matrix
    <r_h> [Ang]:                  [  0.000000,  -0.000000,  -1.393245]
    <r_e> [Ang]:                  [ -0.000000,   0.000000,   0.165328]
    |<r_e - r_h>| [Ang]:            1.558572
    Hole size [Ang]:                1.707779
      Cartesian components [Ang]: [  0.888632,   0.732896,   1.260836]
    Electron size [Ang]:            2.429791
      Cartesian components [Ang]: [  1.391864,   1.294704,   1.513387]

  Transition density matrix analysis:
  -----------------------------------
  
  CT numbers (Mulliken)
    omega =     0.8464
    <Phe> =    -0.0006
  
  Exciton analysis of the transition density matrix
    Trans. dipole moment [D]:             0.136894
      Cartesian components [D]:         [  0.000000,   0.136894,   0.000000]
    <r_h> [Ang]:                        [  0.000000,  -0.000000,  -1.693347]
    <r_e> [Ang]:                        [ -0.000000,  -0.000000,   1.022399]
    |<r_e - r_h>| [Ang]:                  2.715747
    Hole size [Ang]:                      1.166337
      Cartesian components [Ang]:       [  0.814335,   0.464407,   0.693921]
    Electron size [Ang]:                  2.433613
      Cartesian components [Ang]:       [  1.644444,   1.544909,   0.911883]
    RMS electron-hole separation [Ang]:   3.826072
      Cartesian components [Ang]:       [  1.830579,   1.612788,   2.947325]
    Covariance(r_h, r_e) [Ang^2]:         0.009631
    Correlation coefficient:              0.003393
    Center-of-mass size [Ang]:            1.351118
      Cartesian components [Ang]:       [  0.919736,   0.806807,   0.573295]

  Decomposition into state-averaged NTOs
    H- 2 -> L+ 2: -0.6302 ( 79.4%)
    H- 2 -> L+ 6: -0.1588 (  5.0%)
                   omega =  84.6%
  ----------------------------------------------------------------------------


  Excited state 4 (singlet, B2)                                    [converged]
  ----------------------------------------------------------------------------
  Term symbol:  4 (1) B2                                    R^2 =  1.31439e-08

  Total energy:                                           -153.7859103764 a.u.
  Excitation energy:                                               4.975590 eV

  Osc. strength:                                                      0.000012
  Trans. dip. moment [a.u.]:           [  -0.000000,   -0.009991,   -0.000000]
  <i|r^2|0> [a.u.]:                    [   0.000000,   -0.000000,    0.000000]

  Dip. moment [a.u.]:                  [  -0.000000,    0.000000,   -2.302993]
  Total dipole [Debye]:                                               5.853625
  <r^2> [a.u.]:                        [  68.939650,   23.455459,  217.404263]
  Total <r^2> [a.u.]:                                               309.799372

  V1^2 = 0.8789, V2^2 = 0.1211

  Important amplitudes:
      occ i      occ j       vir a       vir b          v   
    ---------------------------------------------------------
     2 (B2) A              10 (A1) A                 -0.4999
     2 (B2) A               9 (A1) A                  0.3723
    ---------------------------------------------------------

  Density matrix analysis:
  ------------------------
  NOs
    Occupation of frontier NOs:
       0.9653   0.9926
    Number of electrons: 26.000000
    Number of unpaired electrons: n_u =  2.74011, n_u,nl =  2.11096
    NO participation ratio (PR_NO):  3.856102
  
  
  Mulliken Population Analysis
  Atom      Charge (e)              h+              e-           Del q
  --------------------------------------------------------------------
   1 C       -0.614263        0.041472       -0.468665       -0.427193
   2 C       -0.614263        0.041472       -0.468665       -0.427193
   3 H        0.199191        0.002912        0.013411        0.016323
   4 H        0.199191        0.002912        0.013411        0.016323
   5 H        0.044202        0.034266       -0.004895        0.029371
   6 H        0.044202        0.034266       -0.004895        0.029371
   7 O       -0.542445        1.344319       -0.816150        0.528168
   8 H        0.284184        0.139282        0.095549        0.234831
  --------------------------------------------------------------------
  Sum:       -1.000000        1.640900       -1.640900        0.000000
  
  Multipole moment analysis of the density matrix
    Molecular charge:                      -1.000000
    Number of electrons:                   26.000000
      Center of electronic charge [Ang]: [  0.000000,  -0.000000,   0.046873]
    Total nuclear charge:                  25.000000
      Center of nuclear charge [Ang]:    [  0.000000,   0.000000,  -0.000000]
    Dipole moment [D]:                     5.853623
      Cartesian components [D]:          [ -0.000000,   0.000000,  -5.853623]
    RMS size of the density [Ang]:         1.826046
      Cartesian components [Ang]:        [  0.861686,   0.502616,   1.529483]
  
  Exciton analysis of the difference density matrix
    <r_h> [Ang]:                  [  0.000000,  -0.000000,  -1.444799]
    <r_e> [Ang]:                  [  0.000000,   0.000000,  -0.009190]
    |<r_e - r_h>| [Ang]:            1.435608
    Hole size [Ang]:                1.737092
      Cartesian components [Ang]: [  0.805447,   0.846855,   1.285138]
    Electron size [Ang]:            3.023451
      Cartesian components [Ang]: [  1.659890,   1.120804,   2.264910]

  Transition density matrix analysis:
  -----------------------------------
  
  CT numbers (Mulliken)
    omega =     0.8617
    <Phe> =    -0.0024
  
  Exciton analysis of the transition density matrix
    Trans. dipole moment [D]:             0.012697
      Cartesian components [D]:         [ -0.000000,  -0.012697,  -0.000000]
    <r_h> [Ang]:                        [  0.000000,  -0.000000,  -1.728622]
    <r_e> [Ang]:                        [  0.000000,   0.000000,   0.706745]
    |<r_e - r_h>| [Ang]:                  2.435367
    Hole size [Ang]:                      1.109700
      Cartesian components [Ang]:       [  0.475706,   0.817776,   0.579983]
    Electron size [Ang]:                  3.447478
      Cartesian components [Ang]:       [  2.009367,   1.333665,   2.463511]
    RMS electron-hole separation [Ang]:   4.355139
      Cartesian components [Ang]:       [  2.064412,   1.564209,   3.501241]
    Covariance(r_h, r_e) [Ang^2]:         0.040157
    Correlation coefficient:              0.010497
    Center-of-mass size [Ang]:            1.816373
      Cartesian components [Ang]:       [  1.032704,   0.782318,   1.273073]

  Decomposition into state-averaged NTOs
    H- 0 -> L+ 0:  0.4659 ( 43.4%)
    H- 0 -> L+ 3:  0.3913 ( 30.6%)
    H- 0 -> L+ 1:  0.2030 (  8.2%)
    H- 0 -> L+ 4:  0.1336 (  3.6%)
                   omega =  86.2%
  ----------------------------------------------------------------------------


  Excited state 5 (singlet, B2)                                    [converged]
  ----------------------------------------------------------------------------
  Term symbol:  5 (1) B2                                    R^2 =  6.87719e-08

  Total energy:                                           -153.7398224093 a.u.
  Excitation energy:                                               6.229708 eV

  Osc. strength:                                                      0.001658
  Trans. dip. moment [a.u.]:           [   0.000000,    0.104228,    0.000000]
  <i|r^2|0> [a.u.]:                    [  -0.000000,    0.000000,    0.000000]

  Dip. moment [a.u.]:                  [  -0.000000,    0.000000,   -2.019928]
  Total dipole [Debye]:                                               5.134146
  <r^2> [a.u.]:                        [  63.511612,   29.712907,  204.890552]
  Total <r^2> [a.u.]:                                               298.115071

  V1^2 = 0.8848, V2^2 = 0.1152

  Important amplitudes:
      occ i      occ j       vir a       vir b          v   
    ---------------------------------------------------------
     2 (B2) A              11 (A1) A                 -0.6123
     2 (B2) A              10 (A1) A                  0.2212
    ---------------------------------------------------------

  Density matrix analysis:
  ------------------------
  NOs
    Occupation of frontier NOs:
       0.9785   0.9805
    Number of electrons: 26.000000
    Number of unpaired electrons: n_u =  2.76371, n_u,nl =  2.11867
    NO participation ratio (PR_NO):  3.915637
  
  
  Mulliken Population Analysis
  Atom      Charge (e)              h+              e-           Del q
  --------------------------------------------------------------------
   1 C       -0.669328        0.048576       -0.530835       -0.482259
   2 C       -0.669328        0.048576       -0.530835       -0.482259
   3 H        0.200086        0.000607        0.016612        0.017218
   4 H        0.200086        0.000607        0.016612        0.017218
   5 H        0.021721        0.012363       -0.005473        0.006890
   6 H        0.021721        0.012363       -0.005473        0.006890
   7 O       -0.281742        1.336297       -0.547426        0.788871
   8 H        0.176784        0.121739        0.005691        0.127430
  --------------------------------------------------------------------
  Sum:       -1.000000        1.581128       -1.581128       -0.000000
  
  Multipole moment analysis of the density matrix
    Molecular charge:                      -1.000000
    Number of electrons:                   26.000000
      Center of electronic charge [Ang]: [  0.000000,  -0.000000,   0.041112]
    Total nuclear charge:                  25.000000
      Center of nuclear charge [Ang]:    [  0.000000,   0.000000,  -0.000000]
    Dipole moment [D]:                     5.134144
      Cartesian components [D]:          [ -0.000000,   0.000000,  -5.134144]
    RMS size of the density [Ang]:         1.791398
      Cartesian components [Ang]:        [  0.827068,   0.565701,   1.484940]
  
  Exciton analysis of the difference density matrix
    <r_h> [Ang]:                  [  0.000000,  -0.000000,  -1.506700]
    <r_e> [Ang]:                  [  0.000000,  -0.000000,  -0.111558]
    |<r_e - r_h>| [Ang]:            1.395142
    Hole size [Ang]:                1.655689
      Cartesian components [Ang]: [  0.784867,   0.855693,   1.180288]
    Electron size [Ang]:            2.668078
      Cartesian components [Ang]: [  1.356760,   1.549149,   1.696460]

  Transition density matrix analysis:
  -----------------------------------
  
  CT numbers (Mulliken)
    omega =     0.8671
    <Phe> =    -0.0006
  
  Exciton analysis of the transition density matrix
    Trans. dipole moment [D]:             0.132461
      Cartesian components [D]:         [  0.000000,   0.132461,   0.000000]
    <r_h> [Ang]:                        [  0.000000,  -0.000000,  -1.679998]
    <r_e> [Ang]:                        [  0.000000,  -0.000000,   0.586633]
    |<r_e - r_h>| [Ang]:                  2.266632
    Hole size [Ang]:                      1.169212
      Cartesian components [Ang]:       [  0.481648,   0.817847,   0.682788]
    Electron size [Ang]:                  2.906974
      Cartesian components [Ang]:       [  1.568912,   1.877065,   1.570235]
    RMS electron-hole separation [Ang]:   3.840639
      Cartesian components [Ang]:       [  1.640699,   2.040263,   2.809973]
    Covariance(r_h, r_e) [Ang^2]:         0.102333
    Correlation coefficient:              0.030108
    Center-of-mass size [Ang]:            1.582895
      Cartesian components [Ang]:       [  0.820830,   1.027354,   0.881100]

  Decomposition into state-averaged NTOs
    H- 0 -> L+ 4:  0.6144 ( 75.5%)
    H- 0 -> L+ 3: -0.2078 (  8.6%)
    H- 1 -> L+ 1: -0.0850 (  1.4%)
                   omega =  86.7%
  ----------------------------------------------------------------------------


  Excited state 6 (singlet, B2)                                    [converged]
  ----------------------------------------------------------------------------
  Term symbol:  6 (1) B2                                    R^2 =  1.08851e-08

  Total energy:                                           -153.7346639879 a.u.
  Excitation energy:                                               6.370075 eV

  Osc. strength:                                                      0.078500
  Trans. dip. moment [a.u.]:           [   0.000000,   -0.709226,   -0.000000]
  <i|r^2|0> [a.u.]:                    [   0.000000,   -0.000000,   -0.000000]

  Dip. moment [a.u.]:                  [   0.000000,    0.000000,   -0.731786]
  Total dipole [Debye]:                                               1.860015
  <r^2> [a.u.]:                        [  64.377608,   25.085197,  229.494924]
  Total <r^2> [a.u.]:                                               318.957728

  V1^2 = 0.9470, V2^2 = 0.0530

  Important amplitudes:
      occ i      occ j       vir a       vir b          v   
    ---------------------------------------------------------
     1 (B2) A               8 (A1) A                  0.6605
     1 (B2) A              10 (A1) A                 -0.1103
    ---------------------------------------------------------

  Density matrix analysis:
  ------------------------
  NOs
    Occupation of frontier NOs:
       0.9766   0.9995
    Number of electrons: 26.000000
    Number of unpaired electrons: n_u =  2.64291, n_u,nl =  2.07449
    NO participation ratio (PR_NO):  3.541515
  
  
  Mulliken Population Analysis
  Atom      Charge (e)              h+              e-           Del q
  --------------------------------------------------------------------
   1 C       -0.479216        0.509643       -0.801789       -0.292146
   2 C       -0.479216        0.509643       -0.801789       -0.292146
   3 H        0.230549        0.047352        0.000329        0.047681
   4 H        0.230549        0.047352        0.000329        0.047681
   5 H        0.269648        0.123062        0.131755        0.254817
   6 H        0.269648        0.123062        0.131755        0.254817
   7 O       -1.108650        0.057169       -0.095206       -0.038037
   8 H        0.066689        0.021569       -0.004234        0.017335
  --------------------------------------------------------------------
  Sum:       -1.000000        1.438850       -1.438850       -0.000000
  
  Multipole moment analysis of the density matrix
    Molecular charge:                      -1.000000
    Number of electrons:                   26.000000
      Center of electronic charge [Ang]: [ -0.000000,  -0.000000,   0.014894]
    Total nuclear charge:                  25.000000
      Center of nuclear charge [Ang]:    [  0.000000,   0.000000,  -0.000000]
    Dipole moment [D]:                     1.860014
      Cartesian components [D]:          [  0.000000,   0.000000,  -1.860014]
    RMS size of the density [Ang]:         1.853391
      Cartesian components [Ang]:        [  0.832687,   0.519784,   1.572105]
  
  Exciton analysis of the difference density matrix
    <r_h> [Ang]:                  [ -0.000000,  -0.000000,   0.919297]
    <r_e> [Ang]:                  [ -0.000000,  -0.000000,   1.978645]
    |<r_e - r_h>| [Ang]:            1.059348
    Hole size [Ang]:                1.767032
      Cartesian components [Ang]: [  1.017489,   0.898276,   1.131466]
    Electron size [Ang]:            2.537339
      Cartesian components [Ang]: [  1.596783,   1.318640,   1.466139]

  Transition density matrix analysis:
  -----------------------------------
  
  CT numbers (Mulliken)
    omega =     0.9157
    <Phe> =    -0.0090
  
  Exciton analysis of the transition density matrix
    Trans. dipole moment [D]:             0.901336
      Cartesian components [D]:         [  0.000000,  -0.901336,  -0.000000]
    <r_h> [Ang]:                        [  0.000000,  -0.000000,   0.968873]
    <r_e> [Ang]:                        [ -0.000000,   0.000000,   2.557145]
    |<r_e - r_h>| [Ang]:                  1.588272
    Hole size [Ang]:                      1.348681
      Cartesian components [Ang]:       [  0.760645,   0.887378,   0.672994]
    Electron size [Ang]:                  2.648954
      Cartesian components [Ang]:       [  1.811394,   1.526357,   1.185766]
    RMS electron-hole separation [Ang]:   3.341162
      Cartesian components [Ang]:       [  1.958008,   1.757649,   2.059183]
    Covariance(r_h, r_e) [Ang^2]:         0.097570
    Correlation coefficient:              0.027311
    Center-of-mass size [Ang]:            1.502584
      Cartesian components [Ang]:       [  0.985604,   0.886718,   0.707159]

  Decomposition into state-averaged NTOs
    H- 1 -> L+ 1: -0.6684 ( 89.4%)
    H- 0 -> L+ 4: -0.0729 (  1.1%)
                   omega =  91.6%
  ----------------------------------------------------------------------------


  Excited state 7 (singlet, B2)                                    [converged]
  ----------------------------------------------------------------------------
  Term symbol:  7 (1) B2                                    R^2 =  1.85177e-07

  Total energy:                                           -153.7065714648 a.u.
  Excitation energy:                                               7.134512 eV

  Osc. strength:                                                      0.006568
  Trans. dip. moment [a.u.]:           [   0.000000,    0.193844,   -0.000000]
  <i|r^2|0> [a.u.]:                    [  -0.000000,   -0.000000,   -0.000000]

  Dip. moment [a.u.]:                  [   0.000000,   -0.000000,   -2.764568]
  Total dipole [Debye]:                                               7.026832
  <r^2> [a.u.]:                        [  66.013335,   29.909083,  202.894152]
  Total <r^2> [a.u.]:                                               298.816569

  V1^2 = 0.8667, V2^2 = 0.1333

  Important amplitudes:
      occ i      occ j       vir a       vir b          v   
    ---------------------------------------------------------
     4 (B1) A               2 (A2) A                  0.6302
     4 (B1) A               1 (A2) A                  0.1748
    ---------------------------------------------------------

  Density matrix analysis:
  ------------------------
  NOs
    Occupation of frontier NOs:
       0.9718   0.9818
    Number of electrons: 26.000000
    Number of unpaired electrons: n_u =  2.75702, n_u,nl =  2.11248
    NO participation ratio (PR_NO):  3.921150
  
  
  Mulliken Population Analysis
  Atom      Charge (e)              h+              e-           Del q
  --------------------------------------------------------------------
   1 C       -0.600535        0.095770       -0.509236       -0.413465
   2 C       -0.600535        0.095770       -0.509236       -0.413465
   3 H        0.109203       -0.003362       -0.070303       -0.073665
   4 H        0.109203       -0.003362       -0.070303       -0.073665
   5 H        0.006409        0.009163       -0.017585       -0.008422
   6 H        0.006409        0.009163       -0.017585       -0.008422
   7 O       -0.174271        1.345775       -0.449433        0.896342
   8 H        0.144116        0.115230       -0.020468        0.094762
  --------------------------------------------------------------------
  Sum:       -1.000000        1.664147       -1.664147        0.000000
  
  Multipole moment analysis of the density matrix
    Molecular charge:                      -1.000000
    Number of electrons:                   26.000000
      Center of electronic charge [Ang]: [ -0.000000,   0.000000,   0.056267]
    Total nuclear charge:                  25.000000
      Center of nuclear charge [Ang]:    [  0.000000,   0.000000,  -0.000000]
    Dipole moment [D]:                     7.026830
      Cartesian components [D]:          [  0.000000,  -0.000000,  -7.026830]
    RMS size of the density [Ang]:         1.793094
      Cartesian components [Ang]:        [  0.843199,   0.567566,   1.477183]
  
  Exciton analysis of the difference density matrix
    <r_h> [Ang]:                  [  0.000000,  -0.000000,  -1.393534]
    <r_e> [Ang]:                  [ -0.000000,   0.000000,   0.168795]
    |<r_e - r_h>| [Ang]:            1.562329
    Hole size [Ang]:                1.692892
      Cartesian components [Ang]: [  0.878924,   0.717210,   1.256577]
    Electron size [Ang]:            2.628928
      Cartesian components [Ang]: [  1.535304,   1.460089,   1.556356]

  Transition density matrix analysis:
  -----------------------------------
  
  CT numbers (Mulliken)
    omega =     0.8437
    <Phe> =    -0.0009
  
  Exciton analysis of the transition density matrix
    Trans. dipole moment [D]:             0.246352
      Cartesian components [D]:         [  0.000000,   0.246352,  -0.000000]
    <r_h> [Ang]:                        [  0.000000,  -0.000000,  -1.664584]
    <r_e> [Ang]:                        [ -0.000000,   0.000000,   1.028209]
    |<r_e - r_h>| [Ang]:                  2.692793
    Hole size [Ang]:                      1.203335
      Cartesian components [Ang]:       [  0.817694,   0.463423,   0.751420]
    Electron size [Ang]:                  2.775009
      Cartesian components [Ang]:       [  1.850252,   1.790407,   1.035222]
    RMS electron-hole separation [Ang]:   4.046811
      Cartesian components [Ang]:       [  2.018637,   1.849077,   2.980385]
    Covariance(r_h, r_e) [Ang^2]:         0.011574
    Correlation coefficient:              0.003466
    Center-of-mass size [Ang]:            1.514252
      Cartesian components [Ang]:       [  1.013560,   0.924871,   0.640522]

  Decomposition into state-averaged NTOs
    H- 2 -> L+ 6: -0.6298 ( 79.3%)
    H- 2 -> L+ 2:  0.1471 (  4.3%)
                   omega =  84.4%
  ----------------------------------------------------------------------------


  Excited state 8 (singlet, B2)                                    [converged]
  ----------------------------------------------------------------------------
  Term symbol:  8 (1) B2                                    R^2 =  6.70603e-08

  Total energy:                                           -153.6763630303 a.u.
  Excitation energy:                                               7.956525 eV

  Osc. strength:                                                      0.035668
  Trans. dip. moment [a.u.]:           [   0.000000,   -0.427758,   -0.000000]
  <i|r^2|0> [a.u.]:                    [   0.000000,    0.000000,    0.000000]

  Dip. moment [a.u.]:                  [  -0.000000,   -0.000000,    2.839394]
  Total dipole [Debye]:                                               7.217020
  <r^2> [a.u.]:                        [  72.212141,   24.449308,  214.344795]
  Total <r^2> [a.u.]:                                               311.006244

  V1^2 = 0.9482, V2^2 = 0.0518

  Important amplitudes:
      occ i      occ j       vir a       vir b          v   
    ---------------------------------------------------------
     1 (B2) A               9 (A1) A                 -0.6508
     1 (B2) A              10 (A1) A                  0.1488
    ---------------------------------------------------------

  Density matrix analysis:
  ------------------------
  NOs
    Occupation of frontier NOs:
       0.9846   0.9909
    Number of electrons: 26.000000
    Number of unpaired electrons: n_u =  2.60759, n_u,nl =  2.06558
    NO participation ratio (PR_NO):  3.454388
  
  
  Mulliken Population Analysis
  Atom      Charge (e)              h+              e-           Del q
  --------------------------------------------------------------------
   1 C       -0.505081        0.517976       -0.835987       -0.318011
   2 C       -0.505081        0.517976       -0.835987       -0.318011
   3 H        0.340258        0.086181        0.071210        0.157391
   4 H        0.340258        0.086181        0.071210        0.157391
   5 H        0.094977        0.093302       -0.013156        0.080146
   6 H        0.094977        0.093302       -0.013156        0.080146
   7 O       -0.954501        0.048177        0.067935        0.116112
   8 H        0.094190        0.018480        0.026356        0.044836
  --------------------------------------------------------------------
  Sum:       -1.000000        1.461576       -1.461576       -0.000000
  
  Multipole moment analysis of the density matrix
    Molecular charge:                      -1.000000
    Number of electrons:                   26.000000
      Center of electronic charge [Ang]: [  0.000000,   0.000000,  -0.057790]
    Total nuclear charge:                  25.000000
      Center of nuclear charge [Ang]:    [  0.000000,   0.000000,  -0.000000]
    Dipole moment [D]:                     7.217018
      Cartesian components [D]:          [ -0.000000,  -0.000000,   7.217018]
    RMS size of the density [Ang]:         1.829289
      Cartesian components [Ang]:        [  0.881900,   0.513154,   1.518296]
  
  Exciton analysis of the difference density matrix
    <r_h> [Ang]:                  [ -0.000000,  -0.000000,   0.900115]
    <r_e> [Ang]:                  [  0.000000,   0.000000,   0.650012]
    |<r_e - r_h>| [Ang]:            0.250103
    Hole size [Ang]:                1.726084
      Cartesian components [Ang]: [  1.025974,   0.884858,   1.069471]
    Electron size [Ang]:            2.851304
      Cartesian components [Ang]: [  2.011107,   1.256409,   1.583293]

  Transition density matrix analysis:
  -----------------------------------
  
  CT numbers (Mulliken)
    omega =     0.9171
    <Phe> =    -0.0035
  
  Exciton analysis of the transition density matrix
    Trans. dipole moment [D]:             0.543626
      Cartesian components [D]:         [  0.000000,  -0.543626,  -0.000000]
    <r_h> [Ang]:                        [  0.000000,  -0.000000,   1.022608]
    <r_e> [Ang]:                        [  0.000000,   0.000000,   0.620450]
    |<r_e - r_h>| [Ang]:                  0.402159
    Hole size [Ang]:                      1.297868
      Cartesian components [Ang]:       [  0.765597,   0.887535,   0.557320]
    Electron size [Ang]:                  3.279014
      Cartesian components [Ang]:       [  2.347591,   1.466030,   1.758269]
    RMS electron-hole separation [Ang]:   3.542996
      Cartesian components [Ang]:       [  2.462262,   1.709642,   1.888706]
    Covariance(r_h, r_e) [Ang^2]:         0.022653
    Correlation coefficient:              0.005323
    Center-of-mass size [Ang]:            1.766473
      Cartesian components [Ang]:       [  1.238134,   0.858931,   0.921784]

  Decomposition into state-averaged NTOs
    H- 1 -> L+ 0:  0.6737 ( 90.8%)
                   omega =  91.7%
  ----------------------------------------------------------------------------


  Excited state 9 (singlet, B2)                                    [converged]
  ----------------------------------------------------------------------------
  Term symbol:  9 (1) B2                                    R^2 =  1.47627e-06

  Total energy:                                           -153.6502526222 a.u.
  Excitation energy:                                               8.667026 eV

  Osc. strength:                                                      0.000112
  Trans. dip. moment [a.u.]:           [  -0.000000,    0.022973,   -0.000000]
  <i|r^2|0> [a.u.]:                    [  -0.000000,   -0.000000,   -0.000000]

  Dip. moment [a.u.]:                  [   0.000000,    0.000000,    1.759523]
  Total dipole [Debye]:                                               4.472262
  <r^2> [a.u.]:                        [  58.445296,   24.320598,  207.675781]
  Total <r^2> [a.u.]:                                               290.441674

  V1^2 = 0.9440, V2^2 = 0.0560

  Important amplitudes:
      occ i      occ j       vir a       vir b          v   
    ---------------------------------------------------------
     3 (B1) A               1 (A2) A                 -0.5770
     3 (B1) A               2 (A2) A                  0.3313
    ---------------------------------------------------------

  Density matrix analysis:
  ------------------------
  NOs
    Occupation of frontier NOs:
       0.9442   1.0692
    Number of electrons: 26.000000
    Number of unpaired electrons: n_u =  2.70631, n_u,nl =  2.11488
    NO participation ratio (PR_NO):  4.086082
  
  
  Mulliken Population Analysis
  Atom      Charge (e)              h+              e-           Del q
  --------------------------------------------------------------------
   1 C       -0.429704        0.242611       -0.485246       -0.242635
   2 C       -0.429704        0.242611       -0.485246       -0.242635
   3 H        0.287548        0.126174       -0.021494        0.104680
   4 H        0.287548        0.126174       -0.021494        0.104680
   5 H        0.128311        0.123342       -0.009862        0.113480
   6 H        0.128311        0.123342       -0.009862        0.113480
   7 O       -1.033248        0.101956       -0.064591        0.037365
   8 H        0.060937        0.014007       -0.002423        0.011583
  --------------------------------------------------------------------
  Sum:       -1.000000        1.100218       -1.100218       -0.000000
  
  Multipole moment analysis of the density matrix
    Molecular charge:                      -1.000000
    Number of electrons:                   26.000000
      Center of electronic charge [Ang]: [ -0.000000,  -0.000000,  -0.035812]
    Total nuclear charge:                  25.000000
      Center of nuclear charge [Ang]:    [  0.000000,   0.000000,  -0.000000]
    Dipole moment [D]:                     4.472261
      Cartesian components [D]:          [  0.000000,   0.000000,   4.472261]
    RMS size of the density [Ang]:         1.768296
      Cartesian components [Ang]:        [  0.793395,   0.511802,   1.495143]
  
  Exciton analysis of the difference density matrix
    <r_h> [Ang]:                  [  0.000000,   0.000000,   0.683726]
    <r_e> [Ang]:                  [ -0.000000,  -0.000000,   0.870870]
    |<r_e - r_h>| [Ang]:            0.187144
    Hole size [Ang]:                1.774990
      Cartesian components [Ang]: [  1.101493,   0.540171,   1.282778]
    Electron size [Ang]:            1.988153
      Cartesian components [Ang]: [  1.297668,   1.147136,   0.976159]

  Transition density matrix analysis:
  -----------------------------------
  
  CT numbers (Mulliken)
    omega =     0.9153
    <Phe> =    -0.0100
  
  Exciton analysis of the transition density matrix
    Trans. dipole moment [D]:             0.029196
      Cartesian components [D]:         [ -0.000000,   0.029196,  -0.000000]
    <r_h> [Ang]:                        [ -0.000000,   0.000000,   0.786653]
    <r_e> [Ang]:                        [ -0.000000,  -0.000000,   0.978863]
    |<r_e - r_h>| [Ang]:                  0.192210
    Hole size [Ang]:                      1.646490
      Cartesian components [Ang]:       [  1.097860,   0.446795,   1.142806]
    Electron size [Ang]:                  1.965319
      Cartesian components [Ang]:       [  1.330660,   1.186200,   0.827497]
    RMS electron-hole separation [Ang]:   2.492778
      Cartesian components [Ang]:       [  1.697327,   1.267401,   1.314047]
    Covariance(r_h, r_e) [Ang^2]:         0.198204
    Correlation coefficient:              0.061252
    Center-of-mass size [Ang]:            1.320020
      Cartesian components [Ang]:       [  0.876212,   0.633855,   0.756925]

  Decomposition into state-averaged NTOs
    H- 3 -> L+ 2:  0.6561 ( 86.1%)
    H- 0 -> L+ 5: -0.1428 (  4.1%)
                   omega =  91.5%
  ----------------------------------------------------------------------------


  Excited state 10 (singlet, B2)                                    [converged]
  ----------------------------------------------------------------------------
  Term symbol:  10 (1) B2                                   R^2 =  4.03241e-06

  Total energy:                                           -153.6432463013 a.u.
  Excitation energy:                                               8.857677 eV

  Osc. strength:                                                      0.005954
  Trans. dip. moment [a.u.]:           [   0.000000,   -0.165635,   -0.000000]
  <i|r^2|0> [a.u.]:                    [  -0.000000,   -0.000000,   -0.000000]

  Dip. moment [a.u.]:                  [   0.000000,    0.000000,   -0.521549]
  Total dipole [Debye]:                                               1.325645
  <r^2> [a.u.]:                        [  61.341473,   21.395604,  207.024017]
  Total <r^2> [a.u.]:                                               289.761094

  V1^2 = 0.9050, V2^2 = 0.0950

  Important amplitudes:
      occ i      occ j       vir a       vir b          v   
    ---------------------------------------------------------
     2 (B2) A              13 (A1) A                  0.5480
     2 (B2) A              12 (A1) A                  0.3019
    ---------------------------------------------------------

  Density matrix analysis:
  ------------------------
  NOs
    Occupation of frontier NOs:
       0.9136   1.0454
    Number of electrons: 26.000000
    Number of unpaired electrons: n_u =  2.77177, n_u,nl =  2.14322
    NO participation ratio (PR_NO):  4.293561
  
  
  Mulliken Population Analysis
  Atom      Charge (e)              h+              e-           Del q
  --------------------------------------------------------------------
   1 C       -0.125751        0.052026        0.009292        0.061319
   2 C       -0.125751        0.052026        0.009292        0.061319
   3 H       -0.090729       -0.000252       -0.273345       -0.273597
   4 H       -0.090729       -0.000252       -0.273345       -0.273597
   5 H       -0.034867        0.012703       -0.062401       -0.049698
   6 H       -0.034867        0.012703       -0.062401       -0.049698
   7 O       -0.628284        1.187676       -0.745347        0.442329
   8 H        0.130978        0.097189       -0.015565        0.081624
  --------------------------------------------------------------------
  Sum:       -1.000000        1.413820       -1.413820       -0.000000
  
  Multipole moment analysis of the density matrix
    Molecular charge:                      -1.000000
    Number of electrons:                   26.000000
      Center of electronic charge [Ang]: [ -0.000000,  -0.000000,   0.010615]
    Total nuclear charge:                  25.000000
      Center of nuclear charge [Ang]:    [  0.000000,   0.000000,  -0.000000]
    Dipole moment [D]:                     1.325644
      Cartesian components [D]:          [  0.000000,   0.000000,  -1.325644]
    RMS size of the density [Ang]:         1.766553
      Cartesian components [Ang]:        [  0.812815,   0.480039,   1.493186]
  
  Exciton analysis of the difference density matrix
    <r_h> [Ang]:                  [  0.000000,  -0.000000,  -1.460441]
    <r_e> [Ang]:                  [ -0.000000,  -0.000000,  -0.461028]
    |<r_e - r_h>| [Ang]:            0.999413
    Hole size [Ang]:                1.624994
      Cartesian components [Ang]: [  0.756520,   0.835634,   1.170471]
    Electron size [Ang]:            2.297124
      Cartesian components [Ang]: [  1.229721,   0.957034,   1.687795]

  Transition density matrix analysis:
  -----------------------------------
  
  CT numbers (Mulliken)
    omega =     0.8822
    <Phe> =    -0.0072
  
  Exciton analysis of the transition density matrix
    Trans. dipole moment [D]:             0.210501
      Cartesian components [D]:         [  0.000000,  -0.210501,  -0.000000]
    <r_h> [Ang]:                        [  0.000000,  -0.000000,  -1.514012]
    <r_e> [Ang]:                        [ -0.000000,  -0.000000,  -0.116495]
    |<r_e - r_h>| [Ang]:                  1.397517
    Hole size [Ang]:                      1.347426
      Cartesian components [Ang]:       [  0.534095,   0.797212,   0.945913]
    Electron size [Ang]:                  2.425177
      Cartesian components [Ang]:       [  1.351991,   1.041455,   1.723072]
    RMS electron-hole separation [Ang]:   3.039913
      Cartesian components [Ang]:       [  1.451726,   1.311450,   2.326727]
    Covariance(r_h, r_e) [Ang^2]:         0.204514
    Correlation coefficient:              0.062586
    Center-of-mass size [Ang]:            1.423558
      Cartesian components [Ang]:       [  0.727799,   0.655830,   1.032818]

  Decomposition into state-averaged NTOs
    H- 0 -> L+ 5:  0.6308 ( 79.6%)
    H- 3 -> L+ 2:  0.1492 (  4.5%)
    H- 1 -> L+ 3:  0.1038 (  2.2%)
    H- 0 -> L+ 4: -0.0749 (  1.1%)
                   omega =  88.2%
  ----------------------------------------------------------------------------


--------------------------------------------------------------------------------
  Time of ADC calculation:  CPU 209.58 s  wall 55.96 s
================================================================================
 
 --------------------------------------------------------------
             Orbital Energies (a.u.) and Symmetries
 --------------------------------------------------------------
 
 Alpha MOs, Restricted
 -- Occupied --                  
-20.213 -11.049 -11.047  -0.929  -0.854  -0.598  -0.473  -0.384
  1 A1    2 A1    1 B1    3 A1    4 A1    2 B1    5 A1    6 A1                 
 -0.328  -0.271  -0.194  -0.129  -0.128
  3 B1    7 A1    1 B2    4 B1    2 B2                                         
 -- Virtual --                   
  0.224   0.243   0.269   0.274   0.302   0.304   0.313   0.355
  8 A1    5 B1    1 A2    9 A1    3 B2    6 B1   10 A1    7 B1                 
  0.369   0.417   0.445   0.465   0.490   0.522   0.530   0.577
 11 A1    2 A2    4 B2    8 B1   12 A1   13 A1    9 B1   14 A1                 
  0.642   0.650   0.712   0.872   0.974   1.029   1.052   1.062
 10 B1   15 A1   11 B1   16 A1   17 A1    5 B2   18 A1   12 B1                 
  1.078   1.105   1.185   1.204   1.207   1.214   1.291   1.307
 19 A1    3 A2   13 B1    6 B2   20 A1   14 B1    4 A2   21 A1                 
  1.331   1.334   1.370   1.468   1.483   1.492   1.555   1.642
 22 A1   15 B1    7 B2    8 B2    5 A2   16 B1   17 B1   23 A1                 
  1.702   1.716   1.856   1.926   1.977   2.038   2.122   2.124
 18 B1    9 B2   24 A1   19 B1   25 A1    6 A2   20 B1   10 B2                 
  2.126   2.191   2.212   2.296   2.358   2.394   2.425   2.514
 26 A1   27 A1   11 B2   28 A1    7 A2   12 B2   21 B1   22 B1                 
  2.556   2.604   2.745   2.756   2.843   3.005   3.032   3.086
 29 A1    8 A2   23 B1   30 A1   24 B1   31 A1   32 A1   33 A1                 
  3.446   3.562   3.921   3.946   3.971   4.085   4.540
 25 B1   26 B1   13 B2    9 A2   34 A1   27 B1   35 A1                         
 
 Beta MOs, Restricted
 -- Occupied --                  
-20.213 -11.049 -11.047  -0.929  -0.854  -0.598  -0.473  -0.384
  1 A1    2 A1    1 B1    3 A1    4 A1    2 B1    5 A1    6 A1                 
 -0.328  -0.271  -0.194  -0.129  -0.128
  3 B1    7 A1    1 B2    4 B1    2 B2                                         
 -- Virtual --                   
  0.224   0.243   0.269   0.274   0.302   0.304   0.313   0.355
  8 A1    5 B1    1 A2    9 A1    3 B2    6 B1   10 A1    7 B1                 
  0.369   0.417   0.445   0.465   0.490   0.522   0.530   0.577
 11 A1    2 A2    4 B2    8 B1   12 A1   13 A1    9 B1   14 A1                 
  0.642   0.650   0.712   0.872   0.974   1.029   1.052   1.062
 10 B1   15 A1   11 B1   16 A1   17 A1    5 B2   18 A1   12 B1                 
  1.078   1.105   1.185   1.204   1.207   1.214   1.291   1.307
 19 A1    3 A2   13 B1    6 B2   20 A1   14 B1    4 A2   21 A1                 
  1.331   1.334   1.370   1.468   1.483   1.492   1.555   1.642
 22 A1   15 B1    7 B2    8 B2    5 A2   16 B1   17 B1   23 A1                 
  1.702   1.716   1.856   1.926   1.977   2.038   2.122   2.124
 18 B1    9 B2   24 A1   19 B1   25 A1    6 A2   20 B1   10 B2                 
  2.126   2.191   2.212   2.296   2.358   2.394   2.425   2.514
 26 A1   27 A1   11 B2   28 A1    7 A2   12 B2   21 B1   22 B1                 
  2.556   2.604   2.745   2.756   2.843   3.005   3.032   3.086
 29 A1    8 A2   23 B1   30 A1   24 B1   31 A1   32 A1   33 A1                 
  3.446   3.562   3.921   3.946   3.971   4.085   4.540
 25 B1   26 B1   13 B2    9 A2   34 A1   27 B1   35 A1                         
 --------------------------------------------------------------
 
          Ground-State Mulliken Net Atomic Charges

     Atom                 Charge (a.u.)
  ----------------------------------------
      1 C                    -0.183779
      2 C                    -0.183779
      3 H                     0.175312
      4 H                     0.175312
      5 H                     0.009222
      6 H                     0.009222
      7 O                    -1.067404
      8 H                     0.065893
  ----------------------------------------
  Sum of atomic charges =    -1.000000

 -----------------------------------------------------------------
                    Cartesian Multipole Moments
 -----------------------------------------------------------------
    Charge (ESU x 10^10)
                -4.8032
    Dipole Moment (Debye)
         X       0.0000      Y       0.0000      Z       5.2925
       Tot       5.2925
    Quadrupole Moments (Debye-Ang)
        XX     -23.6085     XY       0.0000     YY     -26.4108
        XZ       0.0000     YZ      -0.0000     ZZ     -32.8404
    Octopole Moments (Debye-Ang^2)
       XXX       0.0000    XXY       0.0000    XYY      -0.0000
       YYY       0.0000    XXZ       1.0334    XYZ      -0.0000
       YYZ      -0.0046    XZZ       0.0000    YZZ       0.0000
       ZZZ       6.4213
    Hexadecapole Moments (Debye-Ang^3)
      XXXX     -87.1122   XXXY      -0.0000   XXYY     -21.3309
      XYYY       0.0000   YYYY     -38.2184   XXXZ       0.0000
      XXYZ      -0.0000   XYYZ      -0.0000   YYYZ      -0.0000
      XXZZ     -70.1718   XYZZ       0.0000   YYZZ     -64.8548
      XZZZ       0.0000   YZZZ      -0.0000   ZZZZ    -291.8918
 -----------------------------------------------------------------
 Total job time:  165.27s(wall), 257.54s(cpu) 
 Fri Mar  4 19:08:37 2022

        *************************************************************
        *                                                           *
        *  Thank you very much for using Q-Chem.  Have a nice day.  *
        *                                                           *
        *************************************************************


