/src/tsommerfeld/qchem/exe/qcprog.exe .input2.290909.23553.qcin.1 /src/jdavis/qchem.scratch/qchem23553/

                  Welcome to Q-Chem
     A Quantum Leap Into The Future Of Chemistry


 Q-Chem 5.4 (devel), Q-Chem, Inc., Pleasanton, CA (2021)

 E. Epifanovsky,  A. T. B. Gilbert,  Xintian Feng,  Joonho Lee,  Yuezhi Mao,  
 N. Mardirossian,  P. Pokhilko,  A. White,  M. Wormit,  M. P. Coons,  
 A. L. Dempwolff,  Zhengting Gan,  D. Hait,  P. R. Horn,  L. D. Jacobson,  
 I. Kaliman,  J. Kussmann,  A. W. Lange,  Ka Un Lao,  D. S. Levine,  Jie Liu,  
 S. C. McKenzie,  A. F. Morrison,  K. Nanda,  F. Plasser,  D. R. Rehn,  
 M. L. Vidal,  Zhi-Qiang You,  Ying Zhu,  B. Alam,  B. Albrecht,  
 A. Aldossary,  E. Alguire,  J. H. Andersen,  D. Barton,  K. Begam,  A. Behn,  
 Y. A. Bernard,  E. J. Berquist,  H. Burton,  A. Carreras,  K. Carter-Fenk,  
 R. Chakraborty,  A. D. Chien,  K. D. Closser,  V. Cofer-Shabica,  
 S. Dasgupta,  Jia Deng,  M. de Wergifosse,  M. Diedenhofen,  Hainam Do,  
 S. Ehlert,  Po-Tung Fang,  S. Fatehi,  Qingguo Feng,  T. Friedhoff,  
 J. Gayvert,  Qinghui Ge,  G. Gidofalvi,  M. Goldey,  J. Gomes,  
 C. Gonzalez-Espinoza,  S. Gulania,  A. Gunina,  M. W. D. Hanson-Heine,  
 P. H. P. Harbach,  A. W. Hauser,  M. F. Herbst,  M. Hernandez Vera,  
 M. Hodecker,  Z. C. Holden,  S. Houck,  Xunkun Huang,  Kerwin Hui,  
 B. C. Huynh,  M. Ivanov,  Hyunjun Ji,  Hanjie Jiang,  B. Kaduk,  S. Kaehler,  
 K. Khistyaev,  Jaehoon Kim,  P. Klunzinger,  Z. Koczor-Benda,  
 Joong Hoon Koh,  D. Kosenkov,  L. Koulias,  T. Kowalczyk,  C. M. Krauter,  
 K. Kue,  A. Kunitsa,  T. Kus,  A. Landau,  K. V. Lawler,  D. Lefrancois,  
 S. Lehtola,  Rain Li,  Yi-Pei Li,  Jiashu Liang,  M. Liebenthal,  
 Hung-Hsuan Lin,  You-Sheng Lin,  Fenglai Liu,  Kuan-Yu Liu,  
 M. Loipersberger,  A. Luenser,  A. Manjanath,  P. Manohar,  E. Mansoor,  
 S. F. Manzer,  Shan-Ping Mao,  A. V. Marenich,  T. Markovich,  S. Mason,  
 S. A. Maurer,  P. F. McLaughlin,  M. F. S. J. Menger,  J.-M. Mewes,  
 S. A. Mewes,  P. Morgante,  J. W. Mullinax,  K. J. Oosterbaan,  G. Paran,  
 Alexander C. Paul,  Suranjan K. Paul,  F. Pavosevic,  Zheng Pei,  S. Prager,  
 E. I. Proynov,  E. Ramos,  B. Rana,  A. E. Rask,  A. Rettig,  R. M. Richard,  
 F. Rob,  E. Rossomme,  T. Scheele,  M. Scheurer,  M. Schneider,  
 N. Sergueev,  S. M. Sharada,  W. Skomorowski,  D. W. Small,  C. J. Stein,  
 Yu-Chuan Su,  E. J. Sundstrom,  Zhen Tao,  J. Thirman,  T. Tsuchimochi,  
 N. M. Tubman,  S. P. Veccham,  O. Vydrov,  J. Wenzel,  J. Witte,  A. Yamada,  
 Kun Yao,  S. Yeganeh,  S. R. Yost,  A. Zech,  Igor Ying Zhang,  Xing Zhang,  
 Yu Zhang,  D. Zuev,  A. Aspuru-Guzik,  A. T. Bell,  N. A. Besley,  
 K. B. Bravaya,  B. R. Brooks,  D. Casanova,  Jeng-Da Chai,  S. Coriani,  
 C. J. Cramer,  A. E. DePrince, III,  R. A. DiStasio Jr.,  A. Dreuw,  
 B. D. Dunietz,  T. R. Furlani,  W. A. Goddard III,  S. Grimme,  
 S. Hammes-Schiffer,  T. Head-Gordon,  W. J. Hehre,  Chao-Ping Hsu,  
 T.-C. Jagau,  Yousung Jung,  A. Klamt,  Jing Kong,  D. S. Lambrecht,  
 WanZhen Liang,  N. J. Mayhall,  C. W. McCurdy,  J. B. Neaton,  
 C. Ochsenfeld,  J. A. Parkhill,  R. Peverati,  V. A. Rassolov,  Yihan Shao,  
 L. V. Slipchenko,  T. Stauch,  R. P. Steele,  J. E. Subotnik,  
 A. J. W. Thom,  A. Tkatchenko,  D. G. Truhlar,  T. Van Voorhis,  
 T. A. Wesolowski,  K. B. Whaley,  H. L. Woodcock III,  P. M. Zimmerman,  
 S. Faraji,  P. M. W. Gill,  M. Head-Gordon,  J. M. Herbert,  A. I. Krylov

 Additional authors for Version 5.4.1: 
 S. Kotaru,  Shaozhi Li,  Xiangyuan Li,  F. Matz,  A. Molle,  Haisheng Ren,  
 Yingli Su,  Hung-Yi Tsai,  C. Utku,  Fang Wang

 Contributors to earlier versions of Q-Chem not listed above: 
 R. D. Adamson,  B. Austin,  R. Baer,  J. Baker,  G. J. O. Beran,  
 K. Brandhorst,  S. T. Brown,  E. F. C. Byrd,  A. K. Chakraborty,  
 G. K. L. Chan,  Chun-Min Chang,  Yunqing Chen,  C.-L. Cheng,  
 Siu Hung Chien,  D. M. Chipman,  D. L. Crittenden,  H. Dachsel,  
 R. J. Doerksen,  A. D. Dutoi,  R. G. Edgar,  J. Fosso-Tande,  
 L. Fusti-Molnar,  D. Ghosh,  A. Ghysels,  A. Golubeva-Zadorozhnaya,  
 J. Gonthier,  M. S. Gordon,  S. R. Gwaltney,  G. Hawkins,  J. E. Herr,  
 A. Heyden,  S. Hirata,  E. G. Hohenstein,  G. Kedziora,  F. J. Keil,  
 C. Kelley,  Jihan Kim,  R. A. King,  R. Z. Khaliullin,  P. P. Korambath,  
 W. Kurlancheek,  A. Laurent,  A. M. Lee,  M. S. Lee,  S. V. Levchenko,  
 Ching Yeh Lin,  D. Liotard,  E. Livshits,  R. C. Lochan,  I. Lotan,  
 L. A. Martinez-Martinez,  P. E. Maslen,  N. Nair,  D. P. O'Neill,  
 D. Neuhauser,  E. Neuscamman,  C. M. Oana,  R. Olivares-Amaya,  R. Olson,  
 T. M. Perrine,  B. Peters,  P. A. Pieniazek,  A. Prociuk,  Y. M. Rhee,  
 J. Ritchie,  M. A. Rohrdanz,  E. Rosta,  N. J. Russ,  H. F. Schaefer III,  
 M. W. Schmidt,  N. E. Schultz,  S. Sharma,  N. Shenvi,  C. D. Sherrill,  
 A. C. Simmonett,  A. Sodt,  T. Stein,  D. Stuck,  K. S. Thanthiriwatte,  
 V. Vanovschi,  L. Vogt,  Tao Wang,  A. Warshel,  M. A. Watson,  
 C. F. Williams,  Q. Wu,  X. Xu,  Jun Yang,  W. Zhang,  Yan Zhao

 Please cite Q-Chem as follows:
 Y. Shao et al., Mol. Phys. 113, 184-215 (2015)
 DOI: 10.1080/00268976.2014.952696

 Q-Chem 5.4.1 for Intel X86 EM64T Linux

 Parts of Q-Chem use Armadillo 9.900.5 (Nocturnal Misbehaviour).
 http://arma.sourceforge.net/

 Q-Chem begins on Wed Mar  2 15:55:57 2022  

 Host: node01
0

     Scratch files written to /src/jdavis/qchem.scratch/qchem23553//
 Processing $rem in /src/tsommerfeld/qchem/config/preferences:
 Processing $rem in /home/jdavis/.qchemrc:

 Checking the input file for inconsistencies... 	...done.

--------------------------------------------------------------
User input:
--------------------------------------------------------------
$molecule
-1 1
C        -0.6645000000    0.0000000000    1.1619088658
C         0.6645000000    0.0000000000    1.1619088658
H        -1.1590800000    0.0000000000    0.1995598658
H         1.1590800000    0.0000000000    0.1995598658
H        -1.1590800000    0.0000000000    2.1242568658
H         1.1590800000    0.0000000000    2.1242568658
O         0.0000000000    0.0000000000   -1.5841414040
H         0.0000000000    0.0000000000   -2.5471307683
$end
$rem
   METHOD adc(2)
   BASIS gen
   PURECART 11
   EE_STATES [0,0,0,10]
   scf_convergence 8
   ADC_DAVIDSON_MAXITER 120
   ADC_DAVIDSON_MAXSUBSPACE 200
   adc_nguess_singles 100
   THRESH 14
   S2THRESH 14
   adc_davidson_conv 5
   adc_davidson_thresh 14
   THREADS 10
   MEM_TOTAL 95000
   STATE_ANALYSIS TRUE
$end
$basis
C 1
S   9   1.00
      6.665000D+03           6.920000D-04
      1.000000D+03           5.329000D-03
      2.280000D+02           2.707700D-02
      6.471000D+01           1.017180D-01
      2.106000D+01           2.747400D-01
      7.495000D+00           4.485640D-01
      2.797000D+00           2.850740D-01
      5.215000D-01           1.520400D-02
      1.596000D-01          -3.191000D-03
S   9   1.00
      6.665000D+03          -1.460000D-04
      1.000000D+03          -1.154000D-03
      2.280000D+02          -5.725000D-03
      6.471000D+01          -2.331200D-02
      2.106000D+01          -6.395500D-02
      7.495000D+00          -1.499810D-01
      2.797000D+00          -1.272620D-01
      5.215000D-01           5.445290D-01
      1.596000D-01           5.804960D-01
S   1   1.00
      1.596000D-01           1.000000D+00
S   1   1.00
      0.0469000              1.0000000
P   4   1.00
      9.439000D+00           3.810900D-02
      2.002000D+00           2.094800D-01
      5.456000D-01           5.085570D-01
      1.517000D-01           4.688420D-01
P   1   1.00
      1.517000D-01           1.000000D+00
P   1   1.00
      0.0992945      1.0000000
P   1   1.00
      0.0496473      1.0000000
D   1   1.00
      5.500000D-01           1.0000000
****
C 2
S   9   1.00
      6.665000D+03           6.920000D-04
      1.000000D+03           5.329000D-03
      2.280000D+02           2.707700D-02
      6.471000D+01           1.017180D-01
      2.106000D+01           2.747400D-01
      7.495000D+00           4.485640D-01
      2.797000D+00           2.850740D-01
      5.215000D-01           1.520400D-02
      1.596000D-01          -3.191000D-03
S   9   1.00
      6.665000D+03          -1.460000D-04
      1.000000D+03          -1.154000D-03
      2.280000D+02          -5.725000D-03
      6.471000D+01          -2.331200D-02
      2.106000D+01          -6.395500D-02
      7.495000D+00          -1.499810D-01
      2.797000D+00          -1.272620D-01
      5.215000D-01           5.445290D-01
      1.596000D-01           5.804960D-01
S   1   1.00
      1.596000D-01           1.000000D+00
S   1   1.00
      0.0469000              1.0000000
P   4   1.00
      9.439000D+00           3.810900D-02
      2.002000D+00           2.094800D-01
      5.456000D-01           5.085570D-01
      1.517000D-01           4.688420D-01
P   1   1.00
      1.517000D-01           1.000000D+00
P   1   1.00
      0.0992945      1.0000000
P   1   1.00
      0.0496473      1.0000000
D   1   1.00
      5.500000D-01           1.0000000
****
H 3
cc-pVDZ
****
H 4
cc-pVDZ
****
H 5
cc-pVDZ
****
H 6
cc-pVDZ
****
O 7
aug-cc-pVDZ
****
H 8
cc-pVDZ
****
$end
--------------------------------------------------------------
 ----------------------------------------------------------------
             Standard Nuclear Orientation (Angstroms)
    I     Atom           X                Y                Z
 ----------------------------------------------------------------
    1      C      -0.6645000000    -0.0000000000     1.0270977517
    2      C       0.6645000000     0.0000000000     1.0270977517
    3      H      -1.1590800000    -0.0000000000     0.0647487517
    4      H       1.1590800000     0.0000000000     0.0647487517
    5      H      -1.1590800000    -0.0000000000     1.9894457517
    6      H       1.1590800000     0.0000000000     1.9894457517
    7      O       0.0000000000    -0.0000000000    -1.7189525181
    8      H       0.0000000000    -0.0000000000    -2.6819418824
 ----------------------------------------------------------------
 Molecular Point Group                 C2v   NOp =  4
 Largest Abelian Subgroup              C2v   NOp =  4
 Nuclear Repulsion Energy =          64.38561153 hartrees
 There are       13 alpha and       13 beta electrons
 Requested basis set is non-standard
 There are 42 shells and 90 basis functions
 Total memory of 95000 MB is distributed as follows: 
   MEM_STATIC is set to 192 MB
   QALLOC/CCMAN JOB total memory use is  94808 MB
 Warning: actual memory use might exceed 95000 MB

 Total QAlloc Memory Limit  95000 MB
 Mega-Array Size       188 MB
 MEM_STATIC part       192 MB

                       Distance Matrix (Angstroms)
             C (  1)   C (  2)   H (  3)   H (  4)   H (  5)   H (  6)
   C (  2)  1.329000
   H (  3)  1.082000  2.061931
   H (  4)  2.061931  1.082000  2.318160
   H (  5)  1.082000  2.061931  1.924697  3.013026
   H (  6)  2.061931  1.082000  3.013026  1.924697  2.318160
   O (  7)  2.825306  2.825306  2.127218  2.127218  3.885316  3.885316
   H (  8)  3.768094  3.768094  2.981237  2.981237  4.813037  4.813037
             O (  7)
   H (  8)  0.962989
 
 A cutoff of  1.0D-14 yielded    903 shell pairs
 There are      4183 function pairs (      4573 Cartesian)
 Smallest overlap matrix eigenvalue = 1.47E-04

 Scale SEOQF with 1.000000e-01/1.000000e-01/1.000000e-01

 Standard Electronic Orientation quadrupole field applied
 Nucleus-field energy     =    -0.0000000051 hartrees
 ================ Generating on-the-fly SAD Guess ================
Attempting to make child job directory: /src/jdavis/qchem.scratch/qchem23553//Frg1/
Attempting to make child job directory: /src/jdavis/qchem.scratch/qchem23553//Frg2/
Attempting to make child job directory: /src/jdavis/qchem.scratch/qchem23553//Frg3/
Creating input file /src/jdavis/qchem.scratch/qchem23553/Frg1.input
using default PutDataFrgm: nothing
calling putenv with: QCSCRATCH=/src/jdavis/qchem.scratch/qchem23553/ 
Spawning Job For Fragment 0
Done Job For Fragment 0
calling putenv with: QCSCRATCH=/src/jdavis/qchem.scratch 
calling putenv with: QCTHREADS=1 
Creating input file /src/jdavis/qchem.scratch/qchem23553/Frg2.input
using default PutDataFrgm: nothing
calling putenv with: QCSCRATCH=/src/jdavis/qchem.scratch/qchem23553/ 
Spawning Job For Fragment 1
Done Job For Fragment 1
calling putenv with: QCSCRATCH=/src/jdavis/qchem.scratch 
calling putenv with: QCTHREADS=1 
Creating input file /src/jdavis/qchem.scratch/qchem23553/Frg3.input
using default PutDataFrgm: nothing
calling putenv with: QCSCRATCH=/src/jdavis/qchem.scratch/qchem23553/ 
Spawning Job For Fragment 2
Done Job For Fragment 2
calling putenv with: QCSCRATCH=/src/jdavis/qchem.scratch 
calling putenv with: QCTHREADS=1 
 Time for running child jobs:  CPU 1.76 s  wall 80.45 s
 ============= Method Specific SAD Guess Constructed =============
 Guess from on-the-fly superposition of atomic densities
 Warning: Energy on first SCF cycle will be non-variational
 A restricted Hartree-Fock SCF calculation will be
 performed using Pulay DIIS extrapolation
 SCF converges when DIIS error is below 1.0E-08
 using 10 threads for integral computing
 -------------------------------------------------------
 OpenMP Integral computing Module                
 Release: version 1.0, May 2013, Q-Chem Inc. Pittsburgh 
 -------------------------------------------------------
 ---------------------------------------
  Cycle       Energy         DIIS Error
 ---------------------------------------
    1    -153.5763517751      5.99E-02
    2    -153.2901963118      1.22E-02
    3    -153.3575137128      1.02E-02
    4    -153.4406674816      7.48E-04
    5    -153.4415745839      2.11E-04
    6    -153.4416468131      4.58E-05
    7    -153.4416520100      1.19E-05
    8    -153.4416525509      3.58E-06
    9    -153.4416525975      7.46E-07
   10    -153.4416525991      1.29E-07
   11    -153.4416525992      3.43E-08
   12    -153.4416525992      9.43E-09 Convergence criterion met
 ---------------------------------------
 SCF time:  CPU 13.96 s  wall 1.41 s
 SCF   energy in the final basis set = -153.44165260
 Total energy in the final basis set = -153.44165260
================================================================================
|                                                                              |
|                                 A D C  M A N                                 |
|                                                                              |
 ------------------------------------------------------------------------------ 
|                                                                              |
| Components:                                                                  |
|                                                                              |
| - libvmm - 1.3-trunk                                                         |
|   Authors:                                                                   |
|   Evgeny Epifanovsky, Ilya Kaliman                                           |
|                                                                              |
| - libtensor - 2.5-trunk                                                      |
|   Authors:                                                                   |
|   Evgeny Epifanovsky, Michael Wormit, Dmitry Zuev, Sam Manzer,               |
|   Ilya Kaliman                                                               |
|                                                                              |
| - libwfa - 1.1-trunk                                                         |
|   Authors:                                                                   |
|   Felix Plasser, Stefanie Mewes (Baeppler), Benjamin Thomitzni,              |
|   Michael Wormit, Feng Chen, Anna I. Krylov, Pavel Pokhilko                  |
|                                                                              |
| - libadc - 1.1-trunk                                                         |
|   Authors:                                                                   |
|   Michael Wormit, Adrian L. Dempwolff, Philipp H. P. Harbach,                |
|   Caroline Krauter, Dirk Rehn, Matthias Schneider, Jan Wenzel                |
|                                                                              |
| - adcman - 2.6-trunk                                                         |
|   Authors:                                                                   |
|   Michael Wormit, Adrian L. Dempwolff, Philipp H. P. Harbach,                |
|   Caroline Krauter, Daniel Lefrancois, Jan-Michael Mewes, Dirk Rehn,         |
|   Matthias Schneider, Jan Wenzel, Andreas Dreuw                              |
|                                                                              |
| Authors of earlier versions of ADCMAN:                                       |
| Andreas Dreuw, Jan Hendrik Starcke, Dirk Rehn, Michael Wormit                |
|                                                                              |
================================================================================

 
 Alpha MOs, Restricted
 -- Occupied --                  
-20.213 -11.049 -11.047  -0.930  -0.854  -0.598  -0.473  -0.384
  1 A1    2 A1    1 B1    3 A1    4 A1    2 B1    5 A1    6 A1                 
 -0.328  -0.271  -0.194  -0.130  -0.128
  3 B1    7 A1    1 B2    4 B1    2 B2                                         
 -- Virtual --                   
  0.208   0.219   0.249   0.250   0.251   0.284   0.303   0.340
  8 A1    5 B1    1 A2    9 A1    3 B2    6 B1   10 A1   11 A1                 
  0.356   0.367   0.444   0.465   0.469   0.504   0.520   0.543
  7 B1    2 A2    4 B2    8 B1   12 A1   13 A1    9 B1   10 B1                 
  0.559   0.577   0.589   0.622   0.631   0.671   0.718   0.723
 14 A1   15 A1    5 B2   16 A1   11 B1    3 A2   12 B1   17 A1                 
  0.804   1.002   1.043   1.114   1.144   1.200   1.216   1.259
 13 B1   18 A1   19 A1   14 B1   20 A1    6 B2   15 B1   21 A1                 
  1.291   1.316   1.322   1.340   1.350   1.364   1.366   1.398
  4 A2   22 A1   16 B1   23 A1   17 B1   24 A1    7 B2    8 B2                 
  1.452   1.484   1.492   1.560   1.670   1.686   1.719   1.832
  5 A2    6 A2    9 B2   18 B1   19 B1   25 A1   10 B2   20 B1                 
  1.882   2.009   2.045   2.073   2.133   2.142   2.195   2.213
 26 A1   21 B1   27 A1    7 A2   11 B2   28 A1   22 B1   12 B2                 
  2.282   2.361   2.372   2.395   2.437   2.531   2.585   2.604
 29 A1   30 A1    8 A2   13 B2   23 B1   24 B1   31 A1    9 A2                 
  2.749   2.773   2.857   3.055   3.101   3.147   3.500   3.583
 25 B1   32 A1   26 B1   33 A1   34 A1   35 A1   27 B1   28 B1                 
  3.923   3.946   3.973   4.089   4.547
 14 B2   10 A2   36 A1   29 B1   37 A1                                         
 
 Beta MOs, Restricted
 -- Occupied --                  
-20.213 -11.049 -11.047  -0.930  -0.854  -0.598  -0.473  -0.384
  1 A1    2 A1    1 B1    3 A1    4 A1    2 B1    5 A1    6 A1                 
 -0.328  -0.271  -0.194  -0.130  -0.128
  3 B1    7 A1    1 B2    4 B1    2 B2                                         
 -- Virtual --                   
  0.208   0.219   0.249   0.250   0.251   0.284   0.303   0.340
  8 A1    5 B1    1 A2    9 A1    3 B2    6 B1   10 A1   11 A1                 
  0.356   0.367   0.444   0.465   0.469   0.504   0.520   0.543
  7 B1    2 A2    4 B2    8 B1   12 A1   13 A1    9 B1   10 B1                 
  0.559   0.577   0.589   0.622   0.631   0.671   0.718   0.723
 14 A1   15 A1    5 B2   16 A1   11 B1    3 A2   12 B1   17 A1                 
  0.804   1.002   1.043   1.114   1.144   1.200   1.216   1.259
 13 B1   18 A1   19 A1   14 B1   20 A1    6 B2   15 B1   21 A1                 
  1.291   1.316   1.322   1.340   1.350   1.364   1.366   1.398
  4 A2   22 A1   16 B1   23 A1   17 B1   24 A1    7 B2    8 B2                 
  1.452   1.484   1.492   1.560   1.670   1.686   1.719   1.832
  5 A2    6 A2    9 B2   18 B1   19 B1   25 A1   10 B2   20 B1                 
  1.882   2.009   2.045   2.073   2.133   2.142   2.195   2.213
 26 A1   21 B1   27 A1    7 A2   11 B2   28 A1   22 B1   12 B2                 
  2.282   2.361   2.372   2.395   2.437   2.531   2.585   2.604
 29 A1   30 A1    8 A2   13 B2   23 B1   24 B1   31 A1    9 A2                 
  2.749   2.773   2.857   3.055   3.101   3.147   3.500   3.583
 25 B1   32 A1   26 B1   33 A1   34 A1   35 A1   27 B1   28 B1                 
  3.923   3.946   3.973   4.089   4.547
 14 B2   10 A2   36 A1   29 B1   37 A1                                         

--------------------------------------------------------------------------------
                                   HF Summary                                   
--------------------------------------------------------------------------------
  Energy:                                                 -153.4416525992 a.u.
  Dip. moment [a.u.]:                  [   0.000000,    0.000000,    2.077922]
  Total dipole [Debye]:                                               5.281552
  <r^2> [a.u.]:                        [  55.661904,   19.715647,  208.034004]
  Total <r^2> [a.u.]:                                               283.411555
--------------------------------------------------------------------------------

--------------------------------------------------------------------------------
                                 MP(2) Summary                                  
--------------------------------------------------------------------------------
  MP energy contribution:                                   -0.5303376250 a.u.
  Total energy:                                           -153.9719902241 a.u.
  Dip. moment [a.u.]:                  [  -0.000000,    0.000000,    2.144062]
  Total dipole [Debye]:                                               5.449663
  <r^2> [a.u.]:                        [  56.595130,   20.371112,  209.266736]
  Total <r^2> [a.u.]:                                               286.232978

  Density matrix analysis:
  ------------------------
  NOs
    Occupation of frontier NOs:
       0.0447   1.9355
    Number of electrons: 26.000000
    Number of unpaired electrons: n_u =  0.71670, n_u,nl =  0.08559
    NO participation ratio (PR_NO): 23.043109
  
  
  Mulliken Population Analysis
  Atom      Charge (e)              h+              e-           Del q
  --------------------------------------------------------------------
   1 C       -0.271472        0.091422       -0.095826       -0.004404
   2 C       -0.271472        0.091422       -0.095826       -0.004404
   3 H        0.227245        0.017484       -0.010813        0.006671
   4 H        0.227245        0.017484       -0.010813        0.006671
   5 H        0.058303        0.019785       -0.012270        0.007515
   6 H        0.058303        0.019785       -0.012270        0.007515
   7 O       -1.075780        0.276127       -0.279254       -0.003127
   8 H        0.047627        0.015484       -0.031921       -0.016437
  --------------------------------------------------------------------
  Sum:       -1.000000        0.548992       -0.548992        0.000000
  
  Multipole moment analysis of the density matrix
    Molecular charge:                      -1.000000
    Number of electrons:                   26.000000
      Center of electronic charge [Ang]: [  0.000000,  -0.000000,  -0.043638]
    Total nuclear charge:                  25.000000
      Center of nuclear charge [Ang]:    [  0.000000,   0.000000,  -0.000000]
    Dipole moment [D]:                     5.449661
      Cartesian components [D]:          [ -0.000000,   0.000000,   5.449661]
    RMS size of the density [Ang]:         1.755255
      Cartesian components [Ang]:        [  0.780736,   0.468405,   1.500656]
  
  Exciton analysis of the difference density matrix
    <r_h> [Ang]:                  [ -0.000000,   0.000000,  -0.465886]
    <r_e> [Ang]:                  [ -0.000000,  -0.000000,  -0.529639]
    |<r_e - r_h>| [Ang]:            0.063753
    Hole size [Ang]:                1.920379
      Cartesian components [Ang]: [  0.836163,   0.715502,   1.573767]
    Electron size [Ang]:            2.250229
      Cartesian components [Ang]: [  1.084060,   0.919935,   1.744152]
--------------------------------------------------------------------------------
  Starting Davidson for singlet states of irrep B2 ... 
--------------------------------------------------------------------------------
   It NVec Conv  Avg. Norm  Max. Norm  Conv. states           Remark
--------------------------------------------------------------------------------
       100    0  1.543e-01  5.821e-01  0.2723 n n n n n n n n Guess.
    1  110    0  1.404e-02  7.424e-02  0.1155 n n n n n n n n 
    2  120    0  2.954e-03  1.441e-02  0.1144 n n n n n n n n 
    3  130    0  1.715e-02  1.271e-01  0.1144 n n n n n n n n 
    4  140    0  4.155e-03  3.538e-02  0.1144 n n n n n n n n 
    5  150    3  7.603e-04  6.756e-03  0.1144 y n y n n n y n 
    6  160    8  1.172e-04  1.094e-03  0.1144 y y y y y y y y 
    7  170    8  1.669e-05  1.549e-04  0.1144 y y y y y y y y 
    8  180    9  1.853e-06  1.609e-05  0.1144 y y y y y y y y 
    9  190   10  2.050e-07  1.722e-06  0.1144 y y y y y y y y Converged.
--------------------------------------------------------------------------------
  Davidson Summary: 
 ------------------------------------------------------------
  State  0: excitation energy =   0.1144 a.u.   (converged)
  State  1: excitation energy =   0.1227 a.u.   (converged)
  State  2: excitation energy =   0.1314 a.u.   (converged)
  State  3: excitation energy =   0.1599 a.u.   (converged)
  State  4: excitation energy =   0.2054 a.u.   (converged)
  State  5: excitation energy =   0.2203 a.u.   (converged)
  State  6: excitation energy =   0.2275 a.u.   (converged)
  State  7: excitation energy =   0.2816 a.u.   (converged)
  State  8: excitation energy =   0.2972 a.u.   (converged)
  State  9: excitation energy =   0.3110 a.u.   (converged)
 ------------------------------------------------------------


--------------------------------------------------------------------------------
                   State-averaged natural transition orbitals
--------------------------------------------------------------------------------
--------------------------------------------------------------------------------

--------------------------------------------------------------------------------
                             Excited State Summary
--------------------------------------------------------------------------------
--------------------------------------------------------------------------------

  Excited state 1 (singlet, B2)                                    [converged]
  ----------------------------------------------------------------------------
  Term symbol:  1 (1) B2                                    R^2 =  6.90367e-10

  Total energy:                                           -153.8575804548 a.u.
  Excitation energy:                                               3.113248 eV

  Osc. strength:                                                      0.014988
  Trans. dip. moment [a.u.]:           [  -0.000000,    0.443289,    0.000000]
  <i|r^2|0> [a.u.]:                    [   0.000000,   -0.000000,    0.000000]

  Dip. moment [a.u.]:                  [  -0.000000,   -0.000000,   -1.604401]
  Total dipole [Debye]:                                               4.077982
  <r^2> [a.u.]:                        [  75.849904,   25.327274,  214.893062]
  Total <r^2> [a.u.]:                                               316.070240

  V1^2 = 0.8779, V2^2 = 0.1221

  Important amplitudes:
      occ i      occ j       vir a       vir b          v   
    ---------------------------------------------------------
     2 (B2) A               8 (A1) A                 -0.5030
     2 (B2) A               9 (A1) A                  0.3035
    ---------------------------------------------------------

  Density matrix analysis:
  ------------------------
  NOs
    Occupation of frontier NOs:
       0.9647   0.9921
    Number of electrons: 26.000000
    Number of unpaired electrons: n_u =  2.74346, n_u,nl =  2.11229
    NO participation ratio (PR_NO):  3.869504
  
  
  Mulliken Population Analysis
  Atom      Charge (e)              h+              e-           Del q
  --------------------------------------------------------------------
   1 C       -0.734656        0.030860       -0.494045       -0.463185
   2 C       -0.734656        0.030860       -0.494045       -0.463185
   3 H        0.200925        0.001837       -0.028157       -0.026320
   4 H        0.200925        0.001837       -0.028157       -0.026320
   5 H        0.087875        0.031030       -0.001458        0.029572
   6 H        0.087875        0.031030       -0.001458        0.029572
   7 O       -0.529427        1.346765       -0.800412        0.546353
   8 H        0.421140        0.151187        0.222325        0.373513
  --------------------------------------------------------------------
  Sum:       -1.000000        1.625406       -1.625406        0.000000
  
  Multipole moment analysis of the density matrix
    Molecular charge:                      -1.000000
    Number of electrons:                   26.000000
      Center of electronic charge [Ang]: [  0.000000,   0.000000,   0.032654]
    Total nuclear charge:                  25.000000
      Center of nuclear charge [Ang]:    [  0.000000,   0.000000,  -0.000000]
    Dipole moment [D]:                     4.077981
      Cartesian components [D]:          [ -0.000000,  -0.000000,  -4.077981]
    RMS size of the density [Ang]:         1.844753
      Cartesian components [Ang]:        [  0.903841,   0.522286,   1.520987]
  
  Exciton analysis of the difference density matrix
    <r_h> [Ang]:                  [  0.000000,   0.000000,  -1.500358]
    <r_e> [Ang]:                  [  0.000000,   0.000000,  -0.279985]
    |<r_e - r_h>| [Ang]:            1.220373
    Hole size [Ang]:                1.707595
      Cartesian components [Ang]: [  0.816063,   0.854869,   1.232527]
    Electron size [Ang]:            3.198279
      Cartesian components [Ang]: [  1.995799,   1.258832,   2.158962]

  Transition density matrix analysis:
  -----------------------------------
  
  CT numbers (Mulliken)
    omega =     0.8610
    <Phe> =    -0.0040
  
  Exciton analysis of the transition density matrix
    Trans. dipole moment [D]:             0.563364
      Cartesian components [D]:         [ -0.000000,   0.563364,   0.000000]
    <r_h> [Ang]:                        [  0.000000,  -0.000000,  -1.735643]
    <r_e> [Ang]:                        [  0.000000,   0.000000,   0.292685]
    |<r_e - r_h>| [Ang]:                  2.028328
    Hole size [Ang]:                      1.100344
      Cartesian components [Ang]:       [  0.475530,   0.818037,   0.561644]
    Electron size [Ang]:                  3.745561
      Cartesian components [Ang]:       [  2.449015,   1.514071,   2.395651]
    RMS electron-hole separation [Ang]:   4.392368
      Cartesian components [Ang]:       [  2.494190,   1.717831,   3.181347]
    Covariance(r_h, r_e) [Ang^2]:         0.030603
    Correlation coefficient:              0.007425
    Center-of-mass size [Ang]:            1.955837
      Cartesian components [Ang]:       [  1.247660,   0.862011,   1.235143]

  Decomposition into state-averaged NTOs
    H- 0 -> L+ 0: -0.4441 ( 39.4%)
    H- 0 -> L+ 1: -0.4048 ( 32.8%)
    H- 0 -> L+ 2: -0.2608 ( 13.6%)
                   omega =  86.1%
  ----------------------------------------------------------------------------


  Excited state 2 (singlet, B2)                                    [converged]
  ----------------------------------------------------------------------------
  Term symbol:  2 (1) B2                                    R^2 =  7.33400e-10

  Total energy:                                           -153.8493177314 a.u.
  Excitation energy:                                               3.338088 eV

  Osc. strength:                                                      0.042299
  Trans. dip. moment [a.u.]:           [  -0.000000,    0.719180,   -0.000000]
  <i|r^2|0> [a.u.]:                    [  -0.000000,   -0.000000,    0.000000]

  Dip. moment [a.u.]:                  [  -0.000000,    0.000000,   -1.403825]
  Total dipole [Debye]:                                               3.568167
  <r^2> [a.u.]:                        [  64.332656,   24.993479,  230.714012]
  Total <r^2> [a.u.]:                                               320.040147

  V1^2 = 0.8814, V2^2 = 0.1186

  Important amplitudes:
      occ i      occ j       vir a       vir b          v   
    ---------------------------------------------------------
     2 (B2) A               8 (A1) A                  0.4147
     2 (B2) A               9 (A1) A                  0.3508
    ---------------------------------------------------------

  Density matrix analysis:
  ------------------------
  NOs
    Occupation of frontier NOs:
       0.9653   0.9941
    Number of electrons: 26.000000
    Number of unpaired electrons: n_u =  2.73669, n_u,nl =  2.10935
    NO participation ratio (PR_NO):  3.842092
  
  
  Mulliken Population Analysis
  Atom      Charge (e)              h+              e-           Del q
  --------------------------------------------------------------------
   1 C       -0.776233        0.028594       -0.533355       -0.504762
   2 C       -0.776233        0.028594       -0.533355       -0.504762
   3 H        0.164908       -0.000087       -0.062250       -0.062336
   4 H        0.164908       -0.000087       -0.062250       -0.062336
   5 H        0.166281        0.039734        0.068243        0.107977
   6 H        0.166281        0.039734        0.068243        0.107977
   7 O       -0.580210        1.328880       -0.833310        0.495570
   8 H        0.470299        0.160458        0.262214        0.422672
  --------------------------------------------------------------------
  Sum:       -1.000000        1.625819       -1.625819       -0.000000
  
  Multipole moment analysis of the density matrix
    Molecular charge:                      -1.000000
    Number of electrons:                   26.000000
      Center of electronic charge [Ang]: [  0.000000,  -0.000000,   0.028572]
    Total nuclear charge:                  25.000000
      Center of nuclear charge [Ang]:    [  0.000000,   0.000000,  -0.000000]
    Dipole moment [D]:                     3.568166
      Cartesian components [D]:          [ -0.000000,   0.000000,  -3.568166]
    RMS size of the density [Ang]:         1.856373
      Cartesian components [Ang]:        [  0.832396,   0.518833,   1.576087]
  
  Exciton analysis of the difference density matrix
    <r_h> [Ang]:                  [ -0.000000,   0.000000,  -1.466061]
    <r_e> [Ang]:                  [  0.000000,  -0.000000,  -0.311283]
    |<r_e - r_h>| [Ang]:            1.154778
    Hole size [Ang]:                1.742791
      Cartesian components [Ang]: [  0.803127,   0.860309,   1.285369]
    Electron size [Ang]:            3.303430
      Cartesian components [Ang]: [  1.406312,   1.239468,   2.720047]

  Transition density matrix analysis:
  -----------------------------------
  
  CT numbers (Mulliken)
    omega =     0.8642
    <Phe> =    -0.0061
  
  Exciton analysis of the transition density matrix
    Trans. dipole moment [D]:             0.913987
      Cartesian components [D]:         [ -0.000000,   0.913987,  -0.000000]
    <r_h> [Ang]:                        [  0.000000,  -0.000000,  -1.739485]
    <r_e> [Ang]:                        [  0.000000,  -0.000000,   0.168741]
    |<r_e - r_h>| [Ang]:                  1.908226
    Hole size [Ang]:                      1.094348
      Cartesian components [Ang]:       [  0.475054,   0.817517,   0.550988]
    Electron size [Ang]:                  3.905177
      Cartesian components [Ang]:       [  1.658366,   1.482934,   3.209538]
    RMS electron-hole separation [Ang]:   4.473771
      Cartesian components [Ang]:       [  1.724644,   1.689620,   3.766352]
    Covariance(r_h, r_e) [Ang^2]:         0.037353
    Correlation coefficient:              0.008740
    Center-of-mass size [Ang]:            2.032407
      Cartesian components [Ang]:       [  0.862745,   0.848533,   1.632893]

  Decomposition into state-averaged NTOs
    H- 0 -> L+ 1:  0.4662 ( 43.5%)
    H- 0 -> L+ 2: -0.4056 ( 32.9%)
    H- 0 -> L+ 0: -0.1961 (  7.7%)
    H- 0 -> L+ 4: -0.0906 (  1.6%)
                   omega =  86.4%
  ----------------------------------------------------------------------------


  Excited state 3 (singlet, B2)                                    [converged]
  ----------------------------------------------------------------------------
  Term symbol:  3 (1) B2                                    R^2 =  6.89128e-10

  Total energy:                                           -153.8406148848 a.u.
  Excitation energy:                                               3.574905 eV

  Osc. strength:                                                      0.001284
  Trans. dip. moment [a.u.]:           [   0.000000,    0.121072,    0.000000]
  <i|r^2|0> [a.u.]:                    [   0.000000,    0.000000,    0.000000]

  Dip. moment [a.u.]:                  [   0.000000,    0.000000,   -2.801048]
  Total dipole [Debye]:                                               7.119556
  <r^2> [a.u.]:                        [  66.378385,   30.297985,  202.785378]
  Total <r^2> [a.u.]:                                               299.461748

  V1^2 = 0.8720, V2^2 = 0.1280

  Important amplitudes:
      occ i      occ j       vir a       vir b          v   
    ---------------------------------------------------------
     4 (B1) A               1 (A2) A                  0.6219
     4 (B1) A               2 (A2) A                  0.2171
    ---------------------------------------------------------

  Density matrix analysis:
  ------------------------
  NOs
    Occupation of frontier NOs:
       0.9670   0.9934
    Number of electrons: 26.000000
    Number of unpaired electrons: n_u =  2.73276, n_u,nl =  2.10519
    NO participation ratio (PR_NO):  3.829555
  
  
  Mulliken Population Analysis
  Atom      Charge (e)              h+              e-           Del q
  --------------------------------------------------------------------
   1 C       -0.713920        0.072346       -0.514795       -0.442449
   2 C       -0.713920        0.072346       -0.514795       -0.442449
   3 H        0.161182       -0.000170       -0.065893       -0.066063
   4 H        0.161182       -0.000170       -0.065893       -0.066063
   5 H        0.065723        0.012164       -0.004744        0.007420
   6 H        0.065723        0.012164       -0.004744        0.007420
   7 O       -0.173981        1.366124       -0.464325        0.901799
   8 H        0.148011        0.121271       -0.020887        0.100383
  --------------------------------------------------------------------
  Sum:       -1.000000        1.656075       -1.656075        0.000000
  
  Multipole moment analysis of the density matrix
    Molecular charge:                      -1.000000
    Number of electrons:                   26.000000
      Center of electronic charge [Ang]: [ -0.000000,  -0.000000,   0.057010]
    Total nuclear charge:                  25.000000
      Center of nuclear charge [Ang]:    [  0.000000,   0.000000,  -0.000000]
    Dipole moment [D]:                     7.119554
      Cartesian components [D]:          [  0.000000,   0.000000,  -7.119554]
    RMS size of the density [Ang]:         1.795007
      Cartesian components [Ang]:        [  0.845528,   0.571244,   1.476758]
  
  Exciton analysis of the difference density matrix
    <r_h> [Ang]:                  [ -0.000000,   0.000000,  -1.446863]
    <r_e> [Ang]:                  [ -0.000000,  -0.000000,   0.133282]
    |<r_e - r_h>| [Ang]:            1.580145
    Hole size [Ang]:                1.681417
      Cartesian components [Ang]: [  0.888731,   0.735833,   1.223058]
    Electron size [Ang]:            2.672019
      Cartesian components [Ang]: [  1.563365,   1.489967,   1.573396]

  Transition density matrix analysis:
  -----------------------------------
  
  CT numbers (Mulliken)
    omega =     0.8486
    <Phe> =    -0.0004
  
  Exciton analysis of the transition density matrix
    Trans. dipole moment [D]:             0.153867
      Cartesian components [D]:         [  0.000000,   0.153867,   0.000000]
    <r_h> [Ang]:                        [ -0.000000,  -0.000000,  -1.699703]
    <r_e> [Ang]:                        [ -0.000000,  -0.000000,   1.016863]
    |<r_e - r_h>| [Ang]:                  2.716566
    Hole size [Ang]:                      1.159250
      Cartesian components [Ang]:       [  0.815527,   0.465128,   0.680024]
    Electron size [Ang]:                  2.829932
      Cartesian components [Ang]:       [  1.890370,   1.813083,   1.071328]
    RMS electron-hole separation [Ang]:   4.088110
      Cartesian components [Ang]:       [  2.054870,   1.871408,   2.997997]
    Covariance(r_h, r_e) [Ang^2]:         0.009729
    Correlation coefficient:              0.002966
    Center-of-mass size [Ang]:            1.530672
      Cartesian components [Ang]:       [  1.031344,   0.936090,   0.634842]

  Decomposition into state-averaged NTOs
    H- 2 -> L+ 3:  0.6495 ( 84.4%)
                   omega =  84.9%
  ----------------------------------------------------------------------------


  Excited state 4 (singlet, B2)                                    [converged]
  ----------------------------------------------------------------------------
  Term symbol:  4 (1) B2                                    R^2 =  1.38194e-09

  Total energy:                                           -153.8120629925 a.u.
  Excitation energy:                                               4.351841 eV

  Osc. strength:                                                      0.002074
  Trans. dip. moment [a.u.]:           [   0.000000,    0.139464,   -0.000000]
  <i|r^2|0> [a.u.]:                    [   0.000000,    0.000000,   -0.000000]

  Dip. moment [a.u.]:                  [  -0.000000,    0.000000,   -1.041945]
  Total dipole [Debye]:                                               2.648361
  <r^2> [a.u.]:                        [  73.423690,   24.237639,  220.611647]
  Total <r^2> [a.u.]:                                               318.272977

  V1^2 = 0.8810, V2^2 = 0.1190

  Important amplitudes:
      occ i      occ j       vir a       vir b          v   
    ---------------------------------------------------------
     2 (B2) A               9 (A1) A                 -0.4562
     2 (B2) A              10 (A1) A                  0.4097
    ---------------------------------------------------------

  Density matrix analysis:
  ------------------------
  NOs
    Occupation of frontier NOs:
       0.9646   0.9947
    Number of electrons: 26.000000
    Number of unpaired electrons: n_u =  2.73788, n_u,nl =  2.10976
    NO participation ratio (PR_NO):  3.845403
  
  
  Mulliken Population Analysis
  Atom      Charge (e)              h+              e-           Del q
  --------------------------------------------------------------------
   1 C       -0.569256        0.031677       -0.329462       -0.297784
   2 C       -0.569256        0.031677       -0.329462       -0.297784
   3 H        0.214323        0.004355       -0.017276       -0.012922
   4 H        0.214323        0.004355       -0.017276       -0.012922
   5 H        0.050965        0.033257       -0.040595       -0.007338
   6 H        0.050965        0.033257       -0.040595       -0.007338
   7 O       -0.834757        1.325795       -1.084771        0.241024
   8 H        0.442692        0.158972        0.236092        0.395064
  --------------------------------------------------------------------
  Sum:       -1.000000        1.623345       -1.623345       -0.000000
  
  Multipole moment analysis of the density matrix
    Molecular charge:                      -1.000000
    Number of electrons:                   26.000000
      Center of electronic charge [Ang]: [  0.000000,  -0.000000,   0.021207]
    Total nuclear charge:                  25.000000
      Center of nuclear charge [Ang]:    [  0.000000,   0.000000,  -0.000000]
    Dipole moment [D]:                     2.648361
      Cartesian components [D]:          [ -0.000000,   0.000000,  -2.648361]
    RMS size of the density [Ang]:         1.851339
      Cartesian components [Ang]:        [  0.889268,   0.510928,   1.541301]
  
  Exciton analysis of the difference density matrix
    <r_h> [Ang]:                  [ -0.000000,   0.000000,  -1.487281]
    <r_e> [Ang]:                  [  0.000000,   0.000000,  -0.448708]
    |<r_e - r_h>| [Ang]:            1.038573
    Hole size [Ang]:                1.726481
      Cartesian components [Ang]: [  0.823110,   0.859448,   1.250830]
    Electron size [Ang]:            3.243198
      Cartesian components [Ang]: [  1.892208,   1.185593,   2.352074]

  Transition density matrix analysis:
  -----------------------------------
  
  CT numbers (Mulliken)
    omega =     0.8641
    <Phe> =    -0.0031
  
  Exciton analysis of the transition density matrix
    Trans. dipole moment [D]:             0.177241
      Cartesian components [D]:         [  0.000000,   0.177241,  -0.000000]
    <r_h> [Ang]:                        [  0.000000,  -0.000000,  -1.739013]
    <r_e> [Ang]:                        [  0.000000,   0.000000,  -0.014167]
    |<r_e - r_h>| [Ang]:                  1.724847
    Hole size [Ang]:                      1.095010
      Cartesian components [Ang]:       [  0.474650,   0.818058,   0.551847]
    Electron size [Ang]:                  3.843930
      Cartesian components [Ang]:       [  2.303360,   1.410549,   2.735084]
    RMS electron-hole separation [Ang]:   4.346500
      Cartesian components [Ang]:       [  2.351249,   1.630431,   3.271909]
    Covariance(r_h, r_e) [Ang^2]:         0.028940
    Correlation coefficient:              0.006876
    Center-of-mass size [Ang]:            2.002044
      Cartesian components [Ang]:       [  1.176132,   0.815389,   1.400013]

  Decomposition into state-averaged NTOs
    H- 0 -> L+ 2: -0.4436 ( 39.3%)
    H- 0 -> L+ 0:  0.4375 ( 38.3%)
    H- 0 -> L+ 1: -0.1968 (  7.7%)
                   omega =  86.4%
  ----------------------------------------------------------------------------


  Excited state 5 (singlet, B2)                                    [converged]
  ----------------------------------------------------------------------------
  Term symbol:  5 (1) B2                                    R^2 =  4.14820e-09

  Total energy:                                           -153.7665913410 a.u.
  Excitation energy:                                               5.589188 eV

  Osc. strength:                                                      0.008061
  Trans. dip. moment [a.u.]:           [   0.000000,    0.242627,    0.000000]
  <i|r^2|0> [a.u.]:                    [  -0.000000,   -0.000000,    0.000000]

  Dip. moment [a.u.]:                  [   0.000000,    0.000000,   -1.984854]
  Total dipole [Debye]:                                               5.044998
  <r^2> [a.u.]:                        [  64.389064,   31.843116,  206.317665]
  Total <r^2> [a.u.]:                                               302.549845

  V1^2 = 0.8818, V2^2 = 0.1182

  Important amplitudes:
      occ i      occ j       vir a       vir b          v   
    ---------------------------------------------------------
     2 (B2) A              11 (A1) A                 -0.6004
     2 (B2) A              10 (A1) A                  0.2486
    ---------------------------------------------------------

  Density matrix analysis:
  ------------------------
  NOs
    Occupation of frontier NOs:
       0.9674   0.9915
    Number of electrons: 26.000000
    Number of unpaired electrons: n_u =  2.74297, n_u,nl =  2.11098
    NO participation ratio (PR_NO):  3.860898
  
  
  Mulliken Population Analysis
  Atom      Charge (e)              h+              e-           Del q
  --------------------------------------------------------------------
   1 C       -0.780397        0.051559       -0.560485       -0.508926
   2 C       -0.780397        0.051559       -0.560485       -0.508926
   3 H        0.262604       -0.000127        0.035486        0.035359
   4 H        0.262604       -0.000127        0.035486        0.035359
   5 H        0.118181        0.011366        0.048512        0.059878
   6 H        0.118181        0.011366        0.048512        0.059878
   7 O       -0.389879        1.347074       -0.661172        0.685901
   8 H        0.189103        0.129025        0.012450        0.141476
  --------------------------------------------------------------------
  Sum:       -1.000000        1.601697       -1.601697        0.000000
  
  Multipole moment analysis of the density matrix
    Molecular charge:                      -1.000000
    Number of electrons:                   26.000000
      Center of electronic charge [Ang]: [ -0.000000,  -0.000000,   0.040398]
    Total nuclear charge:                  25.000000
      Center of nuclear charge [Ang]:    [  0.000000,   0.000000,  -0.000000]
    Dipole moment [D]:                     5.044996
      Cartesian components [D]:          [  0.000000,   0.000000,  -5.044996]
    RMS size of the density [Ang]:         1.804696
      Cartesian components [Ang]:        [  0.832761,   0.585629,   1.490126]
  
  Exciton analysis of the difference density matrix
    <r_h> [Ang]:                  [  0.000000,   0.000000,  -1.513779]
    <r_e> [Ang]:                  [ -0.000000,  -0.000000,  -0.149646]
    |<r_e - r_h>| [Ang]:            1.364133
    Hole size [Ang]:                1.662294
      Cartesian components [Ang]: [  0.789766,   0.858034,   1.184597]
    Electron size [Ang]:            2.808037
      Cartesian components [Ang]: [  1.409383,   1.655868,   1.776741]

  Transition density matrix analysis:
  -----------------------------------
  
  CT numbers (Mulliken)
    omega =     0.8647
    <Phe> =    -0.0008
  
  Exciton analysis of the transition density matrix
    Trans. dipole moment [D]:             0.308348
      Cartesian components [D]:         [  0.000000,   0.308348,   0.000000]
    <r_h> [Ang]:                        [  0.000000,  -0.000000,  -1.718590]
    <r_e> [Ang]:                        [ -0.000000,  -0.000000,   0.530140]
    |<r_e - r_h>| [Ang]:                  2.248730
    Hole size [Ang]:                      1.121532
      Cartesian components [Ang]:       [  0.476562,   0.817079,   0.602581]
    Electron size [Ang]:                  3.131296
      Cartesian components [Ang]:       [  1.646568,   2.026843,   1.727929]
    RMS electron-hole separation [Ang]:   4.004160
      Cartesian components [Ang]:       [  1.713779,   2.178032,   2.890058]
    Covariance(r_h, r_e) [Ang^2]:         0.043170
    Correlation coefficient:              0.012293
    Center-of-mass size [Ang]:            1.669520
      Cartesian components [Ang]:       [  0.857257,   1.096312,   0.922230]

  Decomposition into state-averaged NTOs
    H- 0 -> L+ 4: -0.6462 ( 83.5%)
    H- 0 -> L+ 2:  0.1002 (  2.0%)
                   omega =  86.5%
  ----------------------------------------------------------------------------


  Excited state 6 (singlet, B2)                                    [converged]
  ----------------------------------------------------------------------------
  Term symbol:  6 (1) B2                                    R^2 =  1.19500e-08

  Total energy:                                           -153.7516465671 a.u.
  Excitation energy:                                               5.995856 eV

  Osc. strength:                                                      0.003085
  Trans. dip. moment [a.u.]:           [   0.000000,    0.144921,   -0.000000]
  <i|r^2|0> [a.u.]:                    [  -0.000000,   -0.000000,   -0.000000]

  Dip. moment [a.u.]:                  [   0.000000,   -0.000000,   -2.801124]
  Total dipole [Debye]:                                               7.119749
  <r^2> [a.u.]:                        [  68.712877,   32.682730,  203.713311]
  Total <r^2> [a.u.]:                                               305.108918

  V1^2 = 0.8670, V2^2 = 0.1330

  Important amplitudes:
      occ i      occ j       vir a       vir b          v   
    ---------------------------------------------------------
     4 (B1) A               2 (A2) A                 -0.6134
     4 (B1) A               1 (A2) A                  0.2207
    ---------------------------------------------------------

  Density matrix analysis:
  ------------------------
  NOs
    Occupation of frontier NOs:
       0.9680   0.9879
    Number of electrons: 26.000000
    Number of unpaired electrons: n_u =  2.74610, n_u,nl =  2.10881
    NO participation ratio (PR_NO):  3.882416
  
  
  Mulliken Population Analysis
  Atom      Charge (e)              h+              e-           Del q
  --------------------------------------------------------------------
   1 C       -0.685702        0.089888       -0.504119       -0.414230
   2 C       -0.685702        0.089888       -0.504119       -0.414230
   3 H        0.149643       -0.002601       -0.075001       -0.077602
   4 H        0.149643       -0.002601       -0.075001       -0.077602
   5 H        0.051205        0.009316       -0.016415       -0.007098
   6 H        0.051205        0.009316       -0.016415       -0.007098
   7 O       -0.176104        1.356845       -0.457168        0.899676
   8 H        0.145813        0.119087       -0.020901        0.098186
  --------------------------------------------------------------------
  Sum:       -1.000000        1.669139       -1.669139        0.000000
  
  Multipole moment analysis of the density matrix
    Molecular charge:                      -1.000000
    Number of electrons:                   26.000000
      Center of electronic charge [Ang]: [ -0.000000,   0.000000,   0.057011]
    Total nuclear charge:                  25.000000
      Center of nuclear charge [Ang]:    [  0.000000,   0.000000,  -0.000000]
    Dipole moment [D]:                     7.119747
      Cartesian components [D]:          [  0.000000,  -0.000000,  -7.119747]
    RMS size of the density [Ang]:         1.811870
      Cartesian components [Ang]:        [  0.860268,   0.593299,   1.480138]
  
  Exciton analysis of the difference density matrix
    <r_h> [Ang]:                  [ -0.000000,   0.000000,  -1.413830]
    <r_e> [Ang]:                  [ -0.000000,   0.000000,   0.153972]
    |<r_e - r_h>| [Ang]:            1.567802
    Hole size [Ang]:                1.687285
      Cartesian components [Ang]: [  0.881595,   0.723302,   1.243606]
    Electron size [Ang]:            2.826468
      Cartesian components [Ang]: [  1.676360,   1.608932,   1.609371]

  Transition density matrix analysis:
  -----------------------------------
  
  CT numbers (Mulliken)
    omega =     0.8434
    <Phe> =    -0.0006
  
  Exciton analysis of the transition density matrix
    Trans. dipole moment [D]:             0.184176
      Cartesian components [D]:         [  0.000000,   0.184176,  -0.000000]
    <r_h> [Ang]:                        [ -0.000000,  -0.000000,  -1.682680]
    <r_e> [Ang]:                        [ -0.000000,   0.000000,   1.028911]
    |<r_e - r_h>| [Ang]:                  2.711592
    Hole size [Ang]:                      1.181324
      Cartesian components [Ang]:       [  0.817224,   0.464500,   0.715479]
    Electron size [Ang]:                  3.086406
      Cartesian components [Ang]:       [  2.050585,   1.994713,   1.158501]
    RMS electron-hole separation [Ang]:   4.271295
      Cartesian components [Ang]:       [  2.203842,   2.047770,   3.032108]
    Covariance(r_h, r_e) [Ang^2]:         0.015098
    Correlation coefficient:              0.004141
    Center-of-mass size [Ang]:            1.654662
      Cartesian components [Ang]:       [  1.105508,   1.024197,   0.683212]

  Decomposition into state-averaged NTOs
    H- 2 -> L+ 6:  0.6465 ( 83.6%)
                   omega =  84.3%
  ----------------------------------------------------------------------------


  Excited state 7 (singlet, B2)                                    [converged]
  ----------------------------------------------------------------------------
  Term symbol:  7 (1) B2                                    R^2 =  1.05416e-09

  Total energy:                                           -153.7444653276 a.u.
  Excitation energy:                                               6.191267 eV

  Osc. strength:                                                      0.066069
  Trans. dip. moment [a.u.]:           [   0.000000,    0.659979,   -0.000000]
  <i|r^2|0> [a.u.]:                    [   0.000000,    0.000000,    0.000000]

  Dip. moment [a.u.]:                  [  -0.000000,    0.000000,   -0.955136]
  Total dipole [Debye]:                                               2.427713
  <r^2> [a.u.]:                        [  66.205314,   24.888692,  232.339276]
  Total <r^2> [a.u.]:                                               323.433282

  V1^2 = 0.9467, V2^2 = 0.0533

  Important amplitudes:
      occ i      occ j       vir a       vir b          v   
    ---------------------------------------------------------
     1 (B2) A               8 (A1) A                 -0.6569
     1 (B2) A               9 (A1) A                 -0.1158
    ---------------------------------------------------------

  Density matrix analysis:
  ------------------------
  NOs
    Occupation of frontier NOs:
       0.9879   0.9892
    Number of electrons: 26.000000
    Number of unpaired electrons: n_u =  2.61699, n_u,nl =  2.06766
    NO participation ratio (PR_NO):  3.472725
  
  
  Mulliken Population Analysis
  Atom      Charge (e)              h+              e-           Del q
  --------------------------------------------------------------------
   1 C       -0.475020        0.527896       -0.731444       -0.203549
   2 C       -0.475020        0.527896       -0.731444       -0.203549
   3 H        0.278355        0.046956        0.004153        0.051110
   4 H        0.278355        0.046956        0.004153        0.051110
   5 H        0.213466        0.121797        0.033366        0.155163
   6 H        0.213466        0.121797        0.033366        0.155163
   7 O       -1.099919        0.047446       -0.071586       -0.024139
   8 H        0.066319        0.019550       -0.000858        0.018692
  --------------------------------------------------------------------
  Sum:       -1.000000        1.460294       -1.460294        0.000000
  
  Multipole moment analysis of the density matrix
    Molecular charge:                      -1.000000
    Number of electrons:                   26.000000
      Center of electronic charge [Ang]: [  0.000000,  -0.000000,   0.019440]
    Total nuclear charge:                  25.000000
      Center of nuclear charge [Ang]:    [  0.000000,   0.000000,  -0.000000]
    Dipole moment [D]:                     2.427712
      Cartesian components [D]:          [ -0.000000,   0.000000,  -2.427712]
    RMS size of the density [Ang]:         1.866308
      Cartesian components [Ang]:        [  0.844425,   0.517745,   1.581769]
  
  Exciton analysis of the difference density matrix
    <r_h> [Ang]:                  [ -0.000000,  -0.000000,   0.944101]
    <r_e> [Ang]:                  [  0.000000,  -0.000000,   2.067179]
    |<r_e - r_h>| [Ang]:            1.123079
    Hole size [Ang]:                1.762187
      Cartesian components [Ang]: [  1.029803,   0.903123,   1.108684]
    Electron size [Ang]:            2.618587
      Cartesian components [Ang]: [  1.703925,   1.296893,   1.507218]

  Transition density matrix analysis:
  -----------------------------------
  
  CT numbers (Mulliken)
    omega =     0.9152
    <Phe> =    -0.0075
  
  Exciton analysis of the transition density matrix
    Trans. dipole moment [D]:             0.838749
      Cartesian components [D]:         [  0.000000,   0.838749,  -0.000000]
    <r_h> [Ang]:                        [ -0.000000,  -0.000000,   1.003986]
    <r_e> [Ang]:                        [  0.000000,  -0.000000,   2.703240]
    |<r_e - r_h>| [Ang]:                  1.699254
    Hole size [Ang]:                      1.321291
      Cartesian components [Ang]:       [  0.766143,   0.892172,   0.602380]
    Electron size [Ang]:                  2.742181
      Cartesian components [Ang]:       [  1.954747,   1.509022,   1.192212]
    RMS electron-hole separation [Ang]:   3.473665
      Cartesian components [Ang]:       [  2.093502,   1.746799,   2.152276]
    Covariance(r_h, r_e) [Ang^2]:         0.043241
    Correlation coefficient:              0.011934
    Center-of-mass size [Ang]:            1.529039
      Cartesian components [Ang]:       [  1.052767,   0.879621,   0.675211]

  Decomposition into state-averaged NTOs
    H- 1 -> L+ 1: -0.6667 ( 88.9%)
    H- 1 -> L+ 0: -0.0991 (  2.0%)
                   omega =  91.5%
  ----------------------------------------------------------------------------


  Excited state 8 (singlet, B2)                                    [converged]
  ----------------------------------------------------------------------------
  Term symbol:  8 (1) B2                                    R^2 =  1.26396e-08

  Total energy:                                           -153.6904211373 a.u.
  Excitation energy:                                               7.661885 eV

  Osc. strength:                                                      0.021105
  Trans. dip. moment [a.u.]:           [   0.000000,   -0.335309,   -0.000000]
  <i|r^2|0> [a.u.]:                    [   0.000000,    0.000000,    0.000000]

  Dip. moment [a.u.]:                  [  -0.000000,   -0.000000,    2.726800]
  Total dipole [Debye]:                                               6.930836
  <r^2> [a.u.]:                        [  78.527897,   24.358759,  214.558020]
  Total <r^2> [a.u.]:                                               317.444676

  V1^2 = 0.9461, V2^2 = 0.0539

  Important amplitudes:
      occ i      occ j       vir a       vir b          v   
    ---------------------------------------------------------
     1 (B2) A               9 (A1) A                 -0.6599
     1 (B2) A               8 (A1) A                  0.1175
    ---------------------------------------------------------

  Density matrix analysis:
  ------------------------
  NOs
    Occupation of frontier NOs:
       0.9842   0.9923
    Number of electrons: 26.000000
    Number of unpaired electrons: n_u =  2.60890, n_u,nl =  2.06562
    NO participation ratio (PR_NO):  3.454165
  
  
  Mulliken Population Analysis
  Atom      Charge (e)              h+              e-           Del q
  --------------------------------------------------------------------
   1 C       -0.524135        0.525852       -0.778515       -0.252663
   2 C       -0.524135        0.525852       -0.778515       -0.252663
   3 H        0.338280        0.088000        0.023036        0.111036
   4 H        0.338280        0.088000        0.023036        0.111036
   5 H        0.143230        0.098533       -0.013606        0.084927
   6 H        0.143230        0.098533       -0.013606        0.084927
   7 O       -0.982943        0.049307        0.043530        0.092837
   8 H        0.068191        0.018741        0.001823        0.020564
  --------------------------------------------------------------------
  Sum:       -1.000000        1.492817       -1.492817        0.000000
  
  Multipole moment analysis of the density matrix
    Molecular charge:                      -1.000000
    Number of electrons:                   26.000000
      Center of electronic charge [Ang]: [  0.000000,   0.000000,  -0.055498]
    Total nuclear charge:                  25.000000
      Center of nuclear charge [Ang]:    [  0.000000,   0.000000,  -0.000000]
    Dipole moment [D]:                     6.930834
      Cartesian components [D]:          [ -0.000000,  -0.000000,   6.930834]
    RMS size of the density [Ang]:         1.848216
      Cartesian components [Ang]:        [  0.919658,   0.512203,   1.519138]
  
  Exciton analysis of the difference density matrix
    <r_h> [Ang]:                  [  0.000000,  -0.000000,   0.892767]
    <r_e> [Ang]:                  [  0.000000,   0.000000,   0.686196]
    |<r_e - r_h>| [Ang]:            0.206570
    Hole size [Ang]:                1.758308
      Cartesian components [Ang]: [  1.049016,   0.889966,   1.095068]
    Electron size [Ang]:            3.045099
      Cartesian components [Ang]: [  2.283565,   1.240991,   1.586789]

  Transition density matrix analysis:
  -----------------------------------
  
  CT numbers (Mulliken)
    omega =     0.9151
    <Phe> =    -0.0019
  
  Exciton analysis of the transition density matrix
    Trans. dipole moment [D]:             0.426135
      Cartesian components [D]:         [  0.000000,  -0.426135,  -0.000000]
    <r_h> [Ang]:                        [ -0.000000,  -0.000000,   1.026517]
    <r_e> [Ang]:                        [  0.000000,   0.000000,   0.673006]
    |<r_e - r_h>| [Ang]:                  0.353512
    Hole size [Ang]:                      1.299994
      Cartesian components [Ang]:       [  0.767846,   0.892066,   0.551920]
    Electron size [Ang]:                  3.546351
      Cartesian components [Ang]:       [  2.705439,   1.460336,   1.767660]
    RMS electron-hole separation [Ang]:   3.786792
      Cartesian components [Ang]:       [  2.805792,   1.708775,   1.883458]
    Covariance(r_h, r_e) [Ang^2]:         0.025881
    Correlation coefficient:              0.005614
    Center-of-mass size [Ang]:            1.891980
      Cartesian components [Ang]:       [  1.409388,   0.856856,   0.926827]

  Decomposition into state-averaged NTOs
    H- 1 -> L+ 0:  0.6676 ( 89.1%)
    H- 1 -> L+ 1: -0.1001 (  2.0%)
                   omega =  91.5%
  ----------------------------------------------------------------------------


  Excited state 9 (singlet, B2)                                    [converged]
  ----------------------------------------------------------------------------
  Term symbol:  9 (1) B2                                    R^2 =  1.72244e-06

  Total energy:                                           -153.6747595637 a.u.
  Excitation energy:                                               8.088058 eV

  Osc. strength:                                                      0.000020
  Trans. dip. moment [a.u.]:           [  -0.000000,    0.009945,    0.000000]
  <i|r^2|0> [a.u.]:                    [  -0.000000,    0.000000,    0.000000]

  Dip. moment [a.u.]:                  [  -0.000000,    0.000000,   -3.022674]
  Total dipole [Debye]:                                               7.682872
  <r^2> [a.u.]:                        [  63.510728,   43.804344,  205.685754]
  Total <r^2> [a.u.]:                                               313.000827

  V1^2 = 0.8783, V2^2 = 0.1217

  Important amplitudes:
      occ i      occ j       vir a       vir b          v   
    ---------------------------------------------------------
     7 (A1) A               3 (B2) A                 -0.6567
     7 (A1) A               4 (B2) A                 -0.0495
    ---------------------------------------------------------

  Density matrix analysis:
  ------------------------
  NOs
    Occupation of frontier NOs:
       0.9824   0.9962
    Number of electrons: 26.000000
    Number of unpaired electrons: n_u =  2.79144, n_u,nl =  2.12575
    NO participation ratio (PR_NO):  3.913357
  
  
  Mulliken Population Analysis
  Atom      Charge (e)              h+              e-           Del q
  --------------------------------------------------------------------
   1 C       -0.737590        0.073182       -0.539301       -0.466119
   2 C       -0.737590        0.073182       -0.539301       -0.466119
   3 H        0.172695       -0.002382       -0.052168       -0.054550
   4 H        0.172695       -0.002382       -0.052168       -0.054550
   5 H        0.079894        0.024312       -0.002722        0.021591
   6 H        0.079894        0.024312       -0.002722        0.021591
   7 O       -0.349084        1.179482       -0.452786        0.726696
   8 H        0.319088        0.287197       -0.015736        0.271461
  --------------------------------------------------------------------
  Sum:       -1.000000        1.656903       -1.656903        0.000000
  
  Multipole moment analysis of the density matrix
    Molecular charge:                      -1.000000
    Number of electrons:                   26.000000
      Center of electronic charge [Ang]: [  0.000000,  -0.000000,   0.061520]
    Total nuclear charge:                  25.000000
      Center of nuclear charge [Ang]:    [  0.000000,   0.000000,  -0.000000]
    Dipole moment [D]:                     7.682870
      Cartesian components [D]:          [ -0.000000,   0.000000,  -7.682870]
    RMS size of the density [Ang]:         1.835030
      Cartesian components [Ang]:        [  0.827062,   0.686868,   1.487117]
  
  Exciton analysis of the difference density matrix
    <r_h> [Ang]:                  [ -0.000000,   0.000000,  -1.390920]
    <r_e> [Ang]:                  [  0.000000,  -0.000000,   0.259218]
    |<r_e - r_h>| [Ang]:            1.650138
    Hole size [Ang]:                1.774585
      Cartesian components [Ang]: [  0.807376,   0.733787,   1.399590]
    Electron size [Ang]:            3.088782
      Cartesian components [Ang]: [  1.349311,   2.121044,   1.794743]

  Transition density matrix analysis:
  -----------------------------------
  
  CT numbers (Mulliken)
    omega =     0.8595
    <Phe> =    -0.0002
  
  Exciton analysis of the transition density matrix
    Trans. dipole moment [D]:             0.012639
      Cartesian components [D]:         [ -0.000000,   0.012639,   0.000000]
    <r_h> [Ang]:                        [ -0.000000,   0.000000,  -1.673934]
    <r_e> [Ang]:                        [  0.000000,  -0.000000,   1.205740]
    |<r_e - r_h>| [Ang]:                  2.879674
    Hole size [Ang]:                      1.184641
      Cartesian components [Ang]:       [  0.467133,   0.405641,   1.010255]
    Electron size [Ang]:                  3.424762
      Cartesian components [Ang]:       [  1.595767,   2.669057,   1.434803]
    RMS electron-hole separation [Ang]:   4.626503
      Cartesian components [Ang]:       [  1.658946,   2.700522,   3.370402]
    Covariance(r_h, r_e) [Ang^2]:         0.010184
    Correlation coefficient:              0.002510
    Center-of-mass size [Ang]:            1.813335
      Cartesian components [Ang]:       [  0.833257,   1.349444,   0.879128]

  Decomposition into state-averaged NTOs
    H- 3 -> L+ 5: -0.6551 ( 85.8%)
                   omega =  85.9%
  ----------------------------------------------------------------------------


  Excited state 10 (singlet, B2)                                    [converged]
  ----------------------------------------------------------------------------
  Term symbol:  10 (1) B2                                   R^2 =  1.11183e-06

  Total energy:                                           -153.6610091565 a.u.
  Excitation energy:                                               8.462225 eV

  Osc. strength:                                                      0.004859
  Trans. dip. moment [a.u.]:           [   0.000000,   -0.153085,   -0.000000]
  <i|r^2|0> [a.u.]:                    [   0.000000,   -0.000000,   -0.000000]

  Dip. moment [a.u.]:                  [   0.000000,    0.000000,   -1.590006]
  Total dipole [Debye]:                                               4.041393
  <r^2> [a.u.]:                        [  61.187276,   21.630330,  209.208347]
  Total <r^2> [a.u.]:                                               292.025953

  V1^2 = 0.8934, V2^2 = 0.1066

  Important amplitudes:
      occ i      occ j       vir a       vir b          v   
    ---------------------------------------------------------
     2 (B2) A              12 (A1) A                  0.5449
     2 (B2) A              13 (A1) A                  0.3065
    ---------------------------------------------------------

  Density matrix analysis:
  ------------------------
  NOs
    Occupation of frontier NOs:
       0.9501   1.0063
    Number of electrons: 26.000000
    Number of unpaired electrons: n_u =  2.78980, n_u,nl =  2.12917
    NO participation ratio (PR_NO):  4.041371
  
  
  Mulliken Population Analysis
  Atom      Charge (e)              h+              e-           Del q
  --------------------------------------------------------------------
   1 C       -0.228068        0.062438       -0.019034        0.043404
   2 C       -0.228068        0.062438       -0.019034        0.043404
   3 H       -0.065523       -0.004429       -0.288338       -0.292768
   4 H       -0.065523       -0.004429       -0.288338       -0.292768
   5 H        0.017865        0.017998       -0.058436       -0.040438
   6 H        0.017865        0.017998       -0.058436       -0.040438
   7 O       -0.591271        1.246039       -0.761529        0.484509
   8 H        0.142723        0.109514       -0.014419        0.095095
  --------------------------------------------------------------------
  Sum:       -1.000000        1.507565       -1.507565       -0.000000
  
  Multipole moment analysis of the density matrix
    Molecular charge:                      -1.000000
    Number of electrons:                   26.000000
      Center of electronic charge [Ang]: [ -0.000000,  -0.000000,   0.032361]
    Total nuclear charge:                  25.000000
      Center of nuclear charge [Ang]:    [  0.000000,   0.000000,  -0.000000]
    Dipole moment [D]:                     4.041392
      Cartesian components [D]:          [  0.000000,   0.000000,  -4.041392]
    RMS size of the density [Ang]:         1.773180
      Cartesian components [Ang]:        [  0.811792,   0.482665,   1.500732]
  
  Exciton analysis of the difference density matrix
    <r_h> [Ang]:                  [ -0.000000,   0.000000,  -1.449937]
    <r_e> [Ang]:                  [ -0.000000,  -0.000000,  -0.139225]
    |<r_e - r_h>| [Ang]:            1.310712
    Hole size [Ang]:                1.660199
      Cartesian components [Ang]: [  0.764502,   0.836940,   1.212983]
    Electron size [Ang]:            2.432125
      Cartesian components [Ang]: [  1.198937,   0.966626,   1.882397]

  Transition density matrix analysis:
  -----------------------------------
  
  CT numbers (Mulliken)
    omega =     0.8720
    <Phe> =    -0.0045
  
  Exciton analysis of the transition density matrix
    Trans. dipole moment [D]:             0.194551
      Cartesian components [D]:         [  0.000000,  -0.194551,  -0.000000]
    <r_h> [Ang]:                        [  0.000000,  -0.000000,  -1.622145]
    <r_e> [Ang]:                        [ -0.000000,   0.000000,   0.383204]
    |<r_e - r_h>| [Ang]:                  2.005349
    Hole size [Ang]:                      1.234179
      Cartesian components [Ang]:       [  0.509503,   0.803528,   0.786096]
    Electron size [Ang]:                  2.553824
      Cartesian components [Ang]:       [  1.330042,   1.067086,   1.901139]
    RMS electron-hole separation [Ang]:   3.452725
      Cartesian components [Ang]:       [  1.421723,   1.335260,   2.849051]
    Covariance(r_h, r_e) [Ang^2]:         0.072665
    Correlation coefficient:              0.023055
    Center-of-mass size [Ang]:            1.430956
      Cartesian components [Ang]:       [  0.713428,   0.668158,   1.045094]

  Decomposition into state-averaged NTOs
    H- 0 -> L+ 7:  0.6424 ( 82.5%)
    H- 4 -> L+ 3: -0.1073 (  2.3%)
                   omega =  87.2%
  ----------------------------------------------------------------------------


--------------------------------------------------------------------------------
  Time of ADC calculation:  CPU 231.45 s  wall 62.37 s
================================================================================
 
 --------------------------------------------------------------
             Orbital Energies (a.u.) and Symmetries
 --------------------------------------------------------------
 
 Alpha MOs, Restricted
 -- Occupied --                  
-20.213 -11.049 -11.047  -0.930  -0.854  -0.598  -0.473  -0.384
  1 A1    2 A1    1 B1    3 A1    4 A1    2 B1    5 A1    6 A1                 
 -0.328  -0.271  -0.194  -0.130  -0.128
  3 B1    7 A1    1 B2    4 B1    2 B2                                         
 -- Virtual --                   
  0.208   0.219   0.249   0.250   0.251   0.284   0.303   0.340
  8 A1    5 B1    1 A2    9 A1    3 B2    6 B1   10 A1   11 A1                 
  0.356   0.367   0.444   0.465   0.469   0.504   0.520   0.543
  7 B1    2 A2    4 B2    8 B1   12 A1   13 A1    9 B1   10 B1                 
  0.559   0.577   0.589   0.622   0.631   0.671   0.718   0.723
 14 A1   15 A1    5 B2   16 A1   11 B1    3 A2   12 B1   17 A1                 
  0.804   1.002   1.043   1.114   1.144   1.200   1.216   1.259
 13 B1   18 A1   19 A1   14 B1   20 A1    6 B2   15 B1   21 A1                 
  1.291   1.316   1.322   1.340   1.350   1.364   1.366   1.398
  4 A2   22 A1   16 B1   23 A1   17 B1   24 A1    7 B2    8 B2                 
  1.452   1.484   1.492   1.560   1.670   1.686   1.719   1.832
  5 A2    6 A2    9 B2   18 B1   19 B1   25 A1   10 B2   20 B1                 
  1.882   2.009   2.045   2.073   2.133   2.142   2.195   2.213
 26 A1   21 B1   27 A1    7 A2   11 B2   28 A1   22 B1   12 B2                 
  2.282   2.361   2.372   2.395   2.437   2.531   2.585   2.604
 29 A1   30 A1    8 A2   13 B2   23 B1   24 B1   31 A1    9 A2                 
  2.749   2.773   2.857   3.055   3.101   3.147   3.500   3.583
 25 B1   32 A1   26 B1   33 A1   34 A1   35 A1   27 B1   28 B1                 
  3.923   3.946   3.973   4.089   4.547
 14 B2   10 A2   36 A1   29 B1   37 A1                                         
 
 Beta MOs, Restricted
 -- Occupied --                  
-20.213 -11.049 -11.047  -0.930  -0.854  -0.598  -0.473  -0.384
  1 A1    2 A1    1 B1    3 A1    4 A1    2 B1    5 A1    6 A1                 
 -0.328  -0.271  -0.194  -0.130  -0.128
  3 B1    7 A1    1 B2    4 B1    2 B2                                         
 -- Virtual --                   
  0.208   0.219   0.249   0.250   0.251   0.284   0.303   0.340
  8 A1    5 B1    1 A2    9 A1    3 B2    6 B1   10 A1   11 A1                 
  0.356   0.367   0.444   0.465   0.469   0.504   0.520   0.543
  7 B1    2 A2    4 B2    8 B1   12 A1   13 A1    9 B1   10 B1                 
  0.559   0.577   0.589   0.622   0.631   0.671   0.718   0.723
 14 A1   15 A1    5 B2   16 A1   11 B1    3 A2   12 B1   17 A1                 
  0.804   1.002   1.043   1.114   1.144   1.200   1.216   1.259
 13 B1   18 A1   19 A1   14 B1   20 A1    6 B2   15 B1   21 A1                 
  1.291   1.316   1.322   1.340   1.350   1.364   1.366   1.398
  4 A2   22 A1   16 B1   23 A1   17 B1   24 A1    7 B2    8 B2                 
  1.452   1.484   1.492   1.560   1.670   1.686   1.719   1.832
  5 A2    6 A2    9 B2   18 B1   19 B1   25 A1   10 B2   20 B1                 
  1.882   2.009   2.045   2.073   2.133   2.142   2.195   2.213
 26 A1   21 B1   27 A1    7 A2   11 B2   28 A1   22 B1   12 B2                 
  2.282   2.361   2.372   2.395   2.437   2.531   2.585   2.604
 29 A1   30 A1    8 A2   13 B2   23 B1   24 B1   31 A1    9 A2                 
  2.749   2.773   2.857   3.055   3.101   3.147   3.500   3.583
 25 B1   32 A1   26 B1   33 A1   34 A1   35 A1   27 B1   28 B1                 
  3.923   3.946   3.973   4.089   4.547
 14 B2   10 A2   36 A1   29 B1   37 A1                                         
 --------------------------------------------------------------
 
          Ground-State Mulliken Net Atomic Charges

     Atom                 Charge (a.u.)
  ----------------------------------------
      1 C                    -0.267068
      2 C                    -0.267068
      3 H                     0.220574
      4 H                     0.220574
      5 H                     0.050788
      6 H                     0.050788
      7 O                    -1.072653
      8 H                     0.064065
  ----------------------------------------
  Sum of atomic charges =    -1.000000

 -----------------------------------------------------------------
                    Cartesian Multipole Moments
 -----------------------------------------------------------------
    Charge (ESU x 10^10)
                -4.8032
    Dipole Moment (Debye)
         X       0.0000      Y       0.0000      Z       5.2816
       Tot       5.2816
    Quadrupole Moments (Debye-Ang)
        XX     -23.6045     XY       0.0000     YY     -26.5182
        XZ       0.0000     YZ      -0.0000     ZZ     -32.8584
    Octopole Moments (Debye-Ang^2)
       XXX      -0.0000    XXY       0.0000    XYY      -0.0000
       YYY       0.0000    XXZ       1.0453    XYZ      -0.0000
       YYZ      -0.1756    XZZ       0.0000    YZZ       0.0000
       ZZZ       6.3934
    Hexadecapole Moments (Debye-Ang^3)
      XXXX     -87.0563   XXXY       0.0000   XXYY     -21.6952
      XYYY       0.0000   YYYY     -39.7775   XXXZ       0.0000
      XXYZ      -0.0000   XYYZ      -0.0000   YYYZ       0.0000
      XXZZ     -70.0710   XYZZ       0.0000   YYZZ     -65.3522
      XZZZ       0.0000   YZZZ      -0.0000   ZZZZ    -292.0850
 -----------------------------------------------------------------
 Total job time:  170.72s(wall), 278.79s(cpu) 
 Wed Mar  2 15:58:48 2022

        *************************************************************
        *                                                           *
        *  Thank you very much for using Q-Chem.  Have a nice day.  *
        *                                                           *
        *************************************************************


