/src/tsommerfeld/qchem/exe/qcprog.exe .input2.333333.23631.qcin.1 /src/jdavis/qchem.scratch/qchem23631/

                  Welcome to Q-Chem
     A Quantum Leap Into The Future Of Chemistry


 Q-Chem 5.4 (devel), Q-Chem, Inc., Pleasanton, CA (2021)

 E. Epifanovsky,  A. T. B. Gilbert,  Xintian Feng,  Joonho Lee,  Yuezhi Mao,  
 N. Mardirossian,  P. Pokhilko,  A. White,  M. Wormit,  M. P. Coons,  
 A. L. Dempwolff,  Zhengting Gan,  D. Hait,  P. R. Horn,  L. D. Jacobson,  
 I. Kaliman,  J. Kussmann,  A. W. Lange,  Ka Un Lao,  D. S. Levine,  Jie Liu,  
 S. C. McKenzie,  A. F. Morrison,  K. Nanda,  F. Plasser,  D. R. Rehn,  
 M. L. Vidal,  Zhi-Qiang You,  Ying Zhu,  B. Alam,  B. Albrecht,  
 A. Aldossary,  E. Alguire,  J. H. Andersen,  D. Barton,  K. Begam,  A. Behn,  
 Y. A. Bernard,  E. J. Berquist,  H. Burton,  A. Carreras,  K. Carter-Fenk,  
 R. Chakraborty,  A. D. Chien,  K. D. Closser,  V. Cofer-Shabica,  
 S. Dasgupta,  Jia Deng,  M. de Wergifosse,  M. Diedenhofen,  Hainam Do,  
 S. Ehlert,  Po-Tung Fang,  S. Fatehi,  Qingguo Feng,  T. Friedhoff,  
 J. Gayvert,  Qinghui Ge,  G. Gidofalvi,  M. Goldey,  J. Gomes,  
 C. Gonzalez-Espinoza,  S. Gulania,  A. Gunina,  M. W. D. Hanson-Heine,  
 P. H. P. Harbach,  A. W. Hauser,  M. F. Herbst,  M. Hernandez Vera,  
 M. Hodecker,  Z. C. Holden,  S. Houck,  Xunkun Huang,  Kerwin Hui,  
 B. C. Huynh,  M. Ivanov,  Hyunjun Ji,  Hanjie Jiang,  B. Kaduk,  S. Kaehler,  
 K. Khistyaev,  Jaehoon Kim,  P. Klunzinger,  Z. Koczor-Benda,  
 Joong Hoon Koh,  D. Kosenkov,  L. Koulias,  T. Kowalczyk,  C. M. Krauter,  
 K. Kue,  A. Kunitsa,  T. Kus,  A. Landau,  K. V. Lawler,  D. Lefrancois,  
 S. Lehtola,  Rain Li,  Yi-Pei Li,  Jiashu Liang,  M. Liebenthal,  
 Hung-Hsuan Lin,  You-Sheng Lin,  Fenglai Liu,  Kuan-Yu Liu,  
 M. Loipersberger,  A. Luenser,  A. Manjanath,  P. Manohar,  E. Mansoor,  
 S. F. Manzer,  Shan-Ping Mao,  A. V. Marenich,  T. Markovich,  S. Mason,  
 S. A. Maurer,  P. F. McLaughlin,  M. F. S. J. Menger,  J.-M. Mewes,  
 S. A. Mewes,  P. Morgante,  J. W. Mullinax,  K. J. Oosterbaan,  G. Paran,  
 Alexander C. Paul,  Suranjan K. Paul,  F. Pavosevic,  Zheng Pei,  S. Prager,  
 E. I. Proynov,  E. Ramos,  B. Rana,  A. E. Rask,  A. Rettig,  R. M. Richard,  
 F. Rob,  E. Rossomme,  T. Scheele,  M. Scheurer,  M. Schneider,  
 N. Sergueev,  S. M. Sharada,  W. Skomorowski,  D. W. Small,  C. J. Stein,  
 Yu-Chuan Su,  E. J. Sundstrom,  Zhen Tao,  J. Thirman,  T. Tsuchimochi,  
 N. M. Tubman,  S. P. Veccham,  O. Vydrov,  J. Wenzel,  J. Witte,  A. Yamada,  
 Kun Yao,  S. Yeganeh,  S. R. Yost,  A. Zech,  Igor Ying Zhang,  Xing Zhang,  
 Yu Zhang,  D. Zuev,  A. Aspuru-Guzik,  A. T. Bell,  N. A. Besley,  
 K. B. Bravaya,  B. R. Brooks,  D. Casanova,  Jeng-Da Chai,  S. Coriani,  
 C. J. Cramer,  A. E. DePrince, III,  R. A. DiStasio Jr.,  A. Dreuw,  
 B. D. Dunietz,  T. R. Furlani,  W. A. Goddard III,  S. Grimme,  
 S. Hammes-Schiffer,  T. Head-Gordon,  W. J. Hehre,  Chao-Ping Hsu,  
 T.-C. Jagau,  Yousung Jung,  A. Klamt,  Jing Kong,  D. S. Lambrecht,  
 WanZhen Liang,  N. J. Mayhall,  C. W. McCurdy,  J. B. Neaton,  
 C. Ochsenfeld,  J. A. Parkhill,  R. Peverati,  V. A. Rassolov,  Yihan Shao,  
 L. V. Slipchenko,  T. Stauch,  R. P. Steele,  J. E. Subotnik,  
 A. J. W. Thom,  A. Tkatchenko,  D. G. Truhlar,  T. Van Voorhis,  
 T. A. Wesolowski,  K. B. Whaley,  H. L. Woodcock III,  P. M. Zimmerman,  
 S. Faraji,  P. M. W. Gill,  M. Head-Gordon,  J. M. Herbert,  A. I. Krylov

 Additional authors for Version 5.4.1: 
 S. Kotaru,  Shaozhi Li,  Xiangyuan Li,  F. Matz,  A. Molle,  Haisheng Ren,  
 Yingli Su,  Hung-Yi Tsai,  C. Utku,  Fang Wang

 Contributors to earlier versions of Q-Chem not listed above: 
 R. D. Adamson,  B. Austin,  R. Baer,  J. Baker,  G. J. O. Beran,  
 K. Brandhorst,  S. T. Brown,  E. F. C. Byrd,  A. K. Chakraborty,  
 G. K. L. Chan,  Chun-Min Chang,  Yunqing Chen,  C.-L. Cheng,  
 Siu Hung Chien,  D. M. Chipman,  D. L. Crittenden,  H. Dachsel,  
 R. J. Doerksen,  A. D. Dutoi,  R. G. Edgar,  J. Fosso-Tande,  
 L. Fusti-Molnar,  D. Ghosh,  A. Ghysels,  A. Golubeva-Zadorozhnaya,  
 J. Gonthier,  M. S. Gordon,  S. R. Gwaltney,  G. Hawkins,  J. E. Herr,  
 A. Heyden,  S. Hirata,  E. G. Hohenstein,  G. Kedziora,  F. J. Keil,  
 C. Kelley,  Jihan Kim,  R. A. King,  R. Z. Khaliullin,  P. P. Korambath,  
 W. Kurlancheek,  A. Laurent,  A. M. Lee,  M. S. Lee,  S. V. Levchenko,  
 Ching Yeh Lin,  D. Liotard,  E. Livshits,  R. C. Lochan,  I. Lotan,  
 L. A. Martinez-Martinez,  P. E. Maslen,  N. Nair,  D. P. O'Neill,  
 D. Neuhauser,  E. Neuscamman,  C. M. Oana,  R. Olivares-Amaya,  R. Olson,  
 T. M. Perrine,  B. Peters,  P. A. Pieniazek,  A. Prociuk,  Y. M. Rhee,  
 J. Ritchie,  M. A. Rohrdanz,  E. Rosta,  N. J. Russ,  H. F. Schaefer III,  
 M. W. Schmidt,  N. E. Schultz,  S. Sharma,  N. Shenvi,  C. D. Sherrill,  
 A. C. Simmonett,  A. Sodt,  T. Stein,  D. Stuck,  K. S. Thanthiriwatte,  
 V. Vanovschi,  L. Vogt,  Tao Wang,  A. Warshel,  M. A. Watson,  
 C. F. Williams,  Q. Wu,  X. Xu,  Jun Yang,  W. Zhang,  Yan Zhao

 Please cite Q-Chem as follows:
 Y. Shao et al., Mol. Phys. 113, 184-215 (2015)
 DOI: 10.1080/00268976.2014.952696

 Q-Chem 5.4.1 for Intel X86 EM64T Linux

 Parts of Q-Chem use Armadillo 9.900.5 (Nocturnal Misbehaviour).
 http://arma.sourceforge.net/

 Q-Chem begins on Wed Mar  2 15:58:48 2022  

 Host: node01
0

     Scratch files written to /src/jdavis/qchem.scratch/qchem23631//
 Processing $rem in /src/tsommerfeld/qchem/config/preferences:
 Processing $rem in /home/jdavis/.qchemrc:

 Checking the input file for inconsistencies... 	...done.

--------------------------------------------------------------
User input:
--------------------------------------------------------------
$molecule
-1 1
C        -0.6645000000    0.0000000000    1.1619088658
C         0.6645000000    0.0000000000    1.1619088658
H        -1.1590800000    0.0000000000    0.1995598658
H         1.1590800000    0.0000000000    0.1995598658
H        -1.1590800000    0.0000000000    2.1242568658
H         1.1590800000    0.0000000000    2.1242568658
O         0.0000000000    0.0000000000   -1.5841414040
H         0.0000000000    0.0000000000   -2.5471307683
$end
$rem
   METHOD adc(2)
   BASIS gen
   PURECART 11
   EE_STATES [0,0,0,10]
   scf_convergence 8
   ADC_DAVIDSON_MAXITER 120
   ADC_DAVIDSON_MAXSUBSPACE 200
   adc_nguess_singles 100
   THRESH 14
   S2THRESH 14
   adc_davidson_conv 5
   adc_davidson_thresh 14
   THREADS 10
   MEM_TOTAL 95000
   STATE_ANALYSIS TRUE
$end
$basis
C 1
S   9   1.00
      6.665000D+03           6.920000D-04
      1.000000D+03           5.329000D-03
      2.280000D+02           2.707700D-02
      6.471000D+01           1.017180D-01
      2.106000D+01           2.747400D-01
      7.495000D+00           4.485640D-01
      2.797000D+00           2.850740D-01
      5.215000D-01           1.520400D-02
      1.596000D-01          -3.191000D-03
S   9   1.00
      6.665000D+03          -1.460000D-04
      1.000000D+03          -1.154000D-03
      2.280000D+02          -5.725000D-03
      6.471000D+01          -2.331200D-02
      2.106000D+01          -6.395500D-02
      7.495000D+00          -1.499810D-01
      2.797000D+00          -1.272620D-01
      5.215000D-01           5.445290D-01
      1.596000D-01           5.804960D-01
S   1   1.00
      1.596000D-01           1.000000D+00
S   1   1.00
      0.0469000              1.0000000
P   4   1.00
      9.439000D+00           3.810900D-02
      2.002000D+00           2.094800D-01
      5.456000D-01           5.085570D-01
      1.517000D-01           4.688420D-01
P   1   1.00
      1.517000D-01           1.000000D+00
P   1   1.00
      0.1011333      1.0000000
P   1   1.00
      0.0505667      1.0000000
D   1   1.00
      5.500000D-01           1.0000000
****
C 2
S   9   1.00
      6.665000D+03           6.920000D-04
      1.000000D+03           5.329000D-03
      2.280000D+02           2.707700D-02
      6.471000D+01           1.017180D-01
      2.106000D+01           2.747400D-01
      7.495000D+00           4.485640D-01
      2.797000D+00           2.850740D-01
      5.215000D-01           1.520400D-02
      1.596000D-01          -3.191000D-03
S   9   1.00
      6.665000D+03          -1.460000D-04
      1.000000D+03          -1.154000D-03
      2.280000D+02          -5.725000D-03
      6.471000D+01          -2.331200D-02
      2.106000D+01          -6.395500D-02
      7.495000D+00          -1.499810D-01
      2.797000D+00          -1.272620D-01
      5.215000D-01           5.445290D-01
      1.596000D-01           5.804960D-01
S   1   1.00
      1.596000D-01           1.000000D+00
S   1   1.00
      0.0469000              1.0000000
P   4   1.00
      9.439000D+00           3.810900D-02
      2.002000D+00           2.094800D-01
      5.456000D-01           5.085570D-01
      1.517000D-01           4.688420D-01
P   1   1.00
      1.517000D-01           1.000000D+00
P   1   1.00
      0.1011333      1.0000000
P   1   1.00
      0.0505667      1.0000000
D   1   1.00
      5.500000D-01           1.0000000
****
H 3
cc-pVDZ
****
H 4
cc-pVDZ
****
H 5
cc-pVDZ
****
H 6
cc-pVDZ
****
O 7
aug-cc-pVDZ
****
H 8
cc-pVDZ
****
$end
--------------------------------------------------------------
 ----------------------------------------------------------------
             Standard Nuclear Orientation (Angstroms)
    I     Atom           X                Y                Z
 ----------------------------------------------------------------
    1      C      -0.6645000000    -0.0000000000     1.0270977517
    2      C       0.6645000000     0.0000000000     1.0270977517
    3      H      -1.1590800000    -0.0000000000     0.0647487517
    4      H       1.1590800000     0.0000000000     0.0647487517
    5      H      -1.1590800000    -0.0000000000     1.9894457517
    6      H       1.1590800000     0.0000000000     1.9894457517
    7      O       0.0000000000    -0.0000000000    -1.7189525181
    8      H       0.0000000000    -0.0000000000    -2.6819418824
 ----------------------------------------------------------------
 Molecular Point Group                 C2v   NOp =  4
 Largest Abelian Subgroup              C2v   NOp =  4
 Nuclear Repulsion Energy =          64.38561153 hartrees
 There are       13 alpha and       13 beta electrons
 Requested basis set is non-standard
 There are 42 shells and 90 basis functions
 Total memory of 95000 MB is distributed as follows: 
   MEM_STATIC is set to 192 MB
   QALLOC/CCMAN JOB total memory use is  94808 MB
 Warning: actual memory use might exceed 95000 MB

 Total QAlloc Memory Limit  95000 MB
 Mega-Array Size       188 MB
 MEM_STATIC part       192 MB

                       Distance Matrix (Angstroms)
             C (  1)   C (  2)   H (  3)   H (  4)   H (  5)   H (  6)
   C (  2)  1.329000
   H (  3)  1.082000  2.061931
   H (  4)  2.061931  1.082000  2.318160
   H (  5)  1.082000  2.061931  1.924697  3.013026
   H (  6)  2.061931  1.082000  3.013026  1.924697  2.318160
   O (  7)  2.825306  2.825306  2.127218  2.127218  3.885316  3.885316
   H (  8)  3.768094  3.768094  2.981237  2.981237  4.813037  4.813037
             O (  7)
   H (  8)  0.962989
 
 A cutoff of  1.0D-14 yielded    903 shell pairs
 There are      4183 function pairs (      4573 Cartesian)
 Smallest overlap matrix eigenvalue = 1.45E-04

 Scale SEOQF with 1.000000e-01/1.000000e-01/1.000000e-01

 Standard Electronic Orientation quadrupole field applied
 Nucleus-field energy     =    -0.0000000051 hartrees
 ================ Generating on-the-fly SAD Guess ================
Attempting to make child job directory: /src/jdavis/qchem.scratch/qchem23631//Frg1/
Attempting to make child job directory: /src/jdavis/qchem.scratch/qchem23631//Frg2/
Attempting to make child job directory: /src/jdavis/qchem.scratch/qchem23631//Frg3/
Creating input file /src/jdavis/qchem.scratch/qchem23631/Frg1.input
using default PutDataFrgm: nothing
calling putenv with: QCSCRATCH=/src/jdavis/qchem.scratch/qchem23631/ 
Spawning Job For Fragment 0
Done Job For Fragment 0
calling putenv with: QCSCRATCH=/src/jdavis/qchem.scratch 
calling putenv with: QCTHREADS=1 
Creating input file /src/jdavis/qchem.scratch/qchem23631/Frg2.input
using default PutDataFrgm: nothing
calling putenv with: QCSCRATCH=/src/jdavis/qchem.scratch/qchem23631/ 
Spawning Job For Fragment 1
Done Job For Fragment 1
calling putenv with: QCSCRATCH=/src/jdavis/qchem.scratch 
calling putenv with: QCTHREADS=1 
Creating input file /src/jdavis/qchem.scratch/qchem23631/Frg3.input
using default PutDataFrgm: nothing
calling putenv with: QCSCRATCH=/src/jdavis/qchem.scratch/qchem23631/ 
Spawning Job For Fragment 2
Done Job For Fragment 2
calling putenv with: QCSCRATCH=/src/jdavis/qchem.scratch 
calling putenv with: QCTHREADS=1 
 Time for running child jobs:  CPU 1.76 s  wall 80.45 s
 ============= Method Specific SAD Guess Constructed =============
 Guess from on-the-fly superposition of atomic densities
 Warning: Energy on first SCF cycle will be non-variational
 A restricted Hartree-Fock SCF calculation will be
 performed using Pulay DIIS extrapolation
 SCF converges when DIIS error is below 1.0E-08
 using 10 threads for integral computing
 -------------------------------------------------------
 OpenMP Integral computing Module                
 Release: version 1.0, May 2013, Q-Chem Inc. Pittsburgh 
 -------------------------------------------------------
 ---------------------------------------
  Cycle       Energy         DIIS Error
 ---------------------------------------
    1    -153.5764719307      5.99E-02
    2    -153.2902170835      1.22E-02
    3    -153.3575650269      1.02E-02
    4    -153.4406874975      7.47E-04
    5    -153.4415939998      2.12E-04
    6    -153.4416661835      4.58E-05
    7    -153.4416713695      1.19E-05
    8    -153.4416719086      3.57E-06
    9    -153.4416719550      7.46E-07
   10    -153.4416719566      1.29E-07
   11    -153.4416719567      3.43E-08
   12    -153.4416719567      9.42E-09 Convergence criterion met
 ---------------------------------------
 SCF time:  CPU 13.44 s  wall 1.35 s
 SCF   energy in the final basis set = -153.44167196
 Total energy in the final basis set = -153.44167196
================================================================================
|                                                                              |
|                                 A D C  M A N                                 |
|                                                                              |
 ------------------------------------------------------------------------------ 
|                                                                              |
| Components:                                                                  |
|                                                                              |
| - libvmm - 1.3-trunk                                                         |
|   Authors:                                                                   |
|   Evgeny Epifanovsky, Ilya Kaliman                                           |
|                                                                              |
| - libtensor - 2.5-trunk                                                      |
|   Authors:                                                                   |
|   Evgeny Epifanovsky, Michael Wormit, Dmitry Zuev, Sam Manzer,               |
|   Ilya Kaliman                                                               |
|                                                                              |
| - libwfa - 1.1-trunk                                                         |
|   Authors:                                                                   |
|   Felix Plasser, Stefanie Mewes (Baeppler), Benjamin Thomitzni,              |
|   Michael Wormit, Feng Chen, Anna I. Krylov, Pavel Pokhilko                  |
|                                                                              |
| - libadc - 1.1-trunk                                                         |
|   Authors:                                                                   |
|   Michael Wormit, Adrian L. Dempwolff, Philipp H. P. Harbach,                |
|   Caroline Krauter, Dirk Rehn, Matthias Schneider, Jan Wenzel                |
|                                                                              |
| - adcman - 2.6-trunk                                                         |
|   Authors:                                                                   |
|   Michael Wormit, Adrian L. Dempwolff, Philipp H. P. Harbach,                |
|   Caroline Krauter, Daniel Lefrancois, Jan-Michael Mewes, Dirk Rehn,         |
|   Matthias Schneider, Jan Wenzel, Andreas Dreuw                              |
|                                                                              |
| Authors of earlier versions of ADCMAN:                                       |
| Andreas Dreuw, Jan Hendrik Starcke, Dirk Rehn, Michael Wormit                |
|                                                                              |
================================================================================

 
 Alpha MOs, Restricted
 -- Occupied --                  
-20.213 -11.049 -11.047  -0.930  -0.854  -0.598  -0.473  -0.384
  1 A1    2 A1    1 B1    3 A1    4 A1    2 B1    5 A1    6 A1                 
 -0.328  -0.271  -0.194  -0.130  -0.128
  3 B1    7 A1    1 B2    4 B1    2 B2                                         
 -- Virtual --                   
  0.210   0.222   0.251   0.252   0.254   0.288   0.304   0.341
  8 A1    5 B1    1 A2    9 A1    3 B2    6 B1   10 A1   11 A1                 
  0.352   0.369   0.444   0.464   0.471   0.504   0.525   0.547
  7 B1    2 A2    4 B2    8 B1   12 A1   13 A1    9 B1   10 B1                 
  0.565   0.577   0.595   0.625   0.636   0.678   0.721   0.725
 14 A1   15 A1    5 B2   16 A1   11 B1    3 A2   12 B1   17 A1                 
  0.803   1.002   1.043   1.111   1.145   1.200   1.221   1.267
 13 B1   18 A1   19 A1   14 B1   20 A1    6 B2   15 B1   21 A1                 
  1.291   1.318   1.322   1.342   1.351   1.367   1.369   1.405
  4 A2   22 A1   16 B1   23 A1   17 B1    7 B2   24 A1    8 B2                 
  1.463   1.484   1.495   1.575   1.670   1.688   1.719   1.836
  5 A2    6 A2    9 B2   18 B1   19 B1   25 A1   10 B2   20 B1                 
  1.883   2.017   2.046   2.073   2.133   2.143   2.197   2.213
 26 A1   21 B1   27 A1    7 A2   11 B2   28 A1   22 B1   12 B2                 
  2.283   2.363   2.372   2.396   2.436   2.529   2.585   2.604
 29 A1   30 A1    8 A2   13 B2   23 B1   24 B1   31 A1    9 A2                 
  2.749   2.773   2.857   3.057   3.105   3.150   3.507   3.585
 25 B1   32 A1   26 B1   33 A1   34 A1   35 A1   27 B1   28 B1                 
  3.924   3.946   3.973   4.089   4.547
 14 B2   10 A2   36 A1   29 B1   37 A1                                         
 
 Beta MOs, Restricted
 -- Occupied --                  
-20.213 -11.049 -11.047  -0.930  -0.854  -0.598  -0.473  -0.384
  1 A1    2 A1    1 B1    3 A1    4 A1    2 B1    5 A1    6 A1                 
 -0.328  -0.271  -0.194  -0.130  -0.128
  3 B1    7 A1    1 B2    4 B1    2 B2                                         
 -- Virtual --                   
  0.210   0.222   0.251   0.252   0.254   0.288   0.304   0.341
  8 A1    5 B1    1 A2    9 A1    3 B2    6 B1   10 A1   11 A1                 
  0.352   0.369   0.444   0.464   0.471   0.504   0.525   0.547
  7 B1    2 A2    4 B2    8 B1   12 A1   13 A1    9 B1   10 B1                 
  0.565   0.577   0.595   0.625   0.636   0.678   0.721   0.725
 14 A1   15 A1    5 B2   16 A1   11 B1    3 A2   12 B1   17 A1                 
  0.803   1.002   1.043   1.111   1.145   1.200   1.221   1.267
 13 B1   18 A1   19 A1   14 B1   20 A1    6 B2   15 B1   21 A1                 
  1.291   1.318   1.322   1.342   1.351   1.367   1.369   1.405
  4 A2   22 A1   16 B1   23 A1   17 B1    7 B2   24 A1    8 B2                 
  1.463   1.484   1.495   1.575   1.670   1.688   1.719   1.836
  5 A2    6 A2    9 B2   18 B1   19 B1   25 A1   10 B2   20 B1                 
  1.883   2.017   2.046   2.073   2.133   2.143   2.197   2.213
 26 A1   21 B1   27 A1    7 A2   11 B2   28 A1   22 B1   12 B2                 
  2.283   2.363   2.372   2.396   2.436   2.529   2.585   2.604
 29 A1   30 A1    8 A2   13 B2   23 B1   24 B1   31 A1    9 A2                 
  2.749   2.773   2.857   3.057   3.105   3.150   3.507   3.585
 25 B1   32 A1   26 B1   33 A1   34 A1   35 A1   27 B1   28 B1                 
  3.924   3.946   3.973   4.089   4.547
 14 B2   10 A2   36 A1   29 B1   37 A1                                         

--------------------------------------------------------------------------------
                                   HF Summary                                   
--------------------------------------------------------------------------------
  Energy:                                                 -153.4416719567 a.u.
  Dip. moment [a.u.]:                  [  -0.000000,    0.000000,    2.078069]
  Total dipole [Debye]:                                               5.281927
  <r^2> [a.u.]:                        [  55.659367,   19.714609,  208.032773]
  Total <r^2> [a.u.]:                                               283.406749
--------------------------------------------------------------------------------

--------------------------------------------------------------------------------
                                 MP(2) Summary                                  
--------------------------------------------------------------------------------
  MP energy contribution:                                   -0.5304217524 a.u.
  Total energy:                                           -153.9720937091 a.u.
  Dip. moment [a.u.]:                  [  -0.000000,    0.000000,    2.144211]
  Total dipole [Debye]:                                               5.450043
  <r^2> [a.u.]:                        [  56.590420,   20.369959,  209.264751]
  Total <r^2> [a.u.]:                                               286.225130

  Density matrix analysis:
  ------------------------
  NOs
    Occupation of frontier NOs:
       0.0447   1.9355
    Number of electrons: 26.000000
    Number of unpaired electrons: n_u =  0.71674, n_u,nl =  0.08560
    NO participation ratio (PR_NO): 23.044296
  
  
  Mulliken Population Analysis
  Atom      Charge (e)              h+              e-           Del q
  --------------------------------------------------------------------
   1 C       -0.273484        0.091346       -0.095979       -0.004633
   2 C       -0.273484        0.091346       -0.095979       -0.004633
   3 H        0.228209        0.017491       -0.010639        0.006852
   4 H        0.228209        0.017491       -0.010639        0.006852
   5 H        0.059360        0.019826       -0.012253        0.007573
   6 H        0.059360        0.019826       -0.012253        0.007573
   7 O       -1.075896        0.276092       -0.279238       -0.003146
   8 H        0.047727        0.015477       -0.031915       -0.016438
  --------------------------------------------------------------------
  Sum:       -1.000000        0.548895       -0.548895        0.000000
  
  Multipole moment analysis of the density matrix
    Molecular charge:                      -1.000000
    Number of electrons:                   26.000000
      Center of electronic charge [Ang]: [  0.000000,  -0.000000,  -0.043641]
    Total nuclear charge:                  25.000000
      Center of nuclear charge [Ang]:    [  0.000000,   0.000000,  -0.000000]
    Dipole moment [D]:                     5.450041
      Cartesian components [D]:          [ -0.000000,   0.000000,   5.450041]
    RMS size of the density [Ang]:         1.755230
      Cartesian components [Ang]:        [  0.780703,   0.468392,   1.500648]
  
  Exciton analysis of the difference density matrix
    <r_h> [Ang]:                  [ -0.000000,  -0.000000,  -0.465685]
    <r_e> [Ang]:                  [  0.000000,  -0.000000,  -0.529451]
    |<r_e - r_h>| [Ang]:            0.063766
    Hole size [Ang]:                1.919795
      Cartesian components [Ang]: [  0.834915,   0.715410,   1.573759]
    Electron size [Ang]:            2.249445
      Cartesian components [Ang]: [  1.082625,   0.919864,   1.744069]
--------------------------------------------------------------------------------
  Starting Davidson for singlet states of irrep B2 ... 
--------------------------------------------------------------------------------
   It NVec Conv  Avg. Norm  Max. Norm  Conv. states           Remark
--------------------------------------------------------------------------------
       100    0  1.544e-01  5.860e-01  0.2724 n n n n n n n n Guess.
    1  110    0  1.406e-02  7.373e-02  0.1160 n n n n n n n n 
    2  120    0  2.991e-03  1.441e-02  0.1150 n n n n n n n n 
    3  130    0  1.379e-02  9.822e-02  0.1149 n n n n n n n n 
    4  140    0  4.107e-03  3.517e-02  0.1149 n n n n n n n n 
    5  150    3  7.563e-04  6.757e-03  0.1149 y n y n n n y n 
    6  160    7  1.166e-04  1.092e-03  0.1149 y y y y y n y y 
    7  170    8  1.654e-05  1.543e-04  0.1149 y y y y y y y y 
    8  180    9  1.970e-06  1.745e-05  0.1149 y y y y y y y y 
    9  190   10  2.178e-07  1.903e-06  0.1149 y y y y y y y y Converged.
--------------------------------------------------------------------------------
  Davidson Summary: 
 ------------------------------------------------------------
  State  0: excitation energy =   0.1149 a.u.   (converged)
  State  1: excitation energy =   0.1235 a.u.   (converged)
  State  2: excitation energy =   0.1320 a.u.   (converged)
  State  3: excitation energy =   0.1614 a.u.   (converged)
  State  4: excitation energy =   0.2068 a.u.   (converged)
  State  5: excitation energy =   0.2228 a.u.   (converged)
  State  6: excitation energy =   0.2282 a.u.   (converged)
  State  7: excitation energy =   0.2828 a.u.   (converged)
  State  8: excitation energy =   0.2993 a.u.   (converged)
  State  9: excitation energy =   0.3114 a.u.   (converged)
 ------------------------------------------------------------


--------------------------------------------------------------------------------
                   State-averaged natural transition orbitals
--------------------------------------------------------------------------------
--------------------------------------------------------------------------------

--------------------------------------------------------------------------------
                             Excited State Summary
--------------------------------------------------------------------------------
--------------------------------------------------------------------------------

  Excited state 1 (singlet, B2)                                    [converged]
  ----------------------------------------------------------------------------
  Term symbol:  1 (1) B2                                    R^2 =  7.11546e-10

  Total energy:                                           -153.8571457435 a.u.
  Excitation energy:                                               3.127893 eV

  Osc. strength:                                                      0.017153
  Trans. dip. moment [a.u.]:           [  -0.000000,    0.473119,   -0.000000]
  <i|r^2|0> [a.u.]:                    [   0.000000,    0.000000,   -0.000000]

  Dip. moment [a.u.]:                  [  -0.000000,    0.000000,   -1.302754]
  Total dipole [Debye]:                                               3.311271
  <r^2> [a.u.]:                        [  75.014240,   25.346566,  214.965500]
  Total <r^2> [a.u.]:                                               315.326306

  V1^2 = 0.8790, V2^2 = 0.1210

  Important amplitudes:
      occ i      occ j       vir a       vir b          v   
    ---------------------------------------------------------
     2 (B2) A               8 (A1) A                 -0.4900
     2 (B2) A               9 (A1) A                  0.3145
    ---------------------------------------------------------

  Density matrix analysis:
  ------------------------
  NOs
    Occupation of frontier NOs:
       0.9648   0.9921
    Number of electrons: 26.000000
    Number of unpaired electrons: n_u =  2.74230, n_u,nl =  2.11184
    NO participation ratio (PR_NO):  3.865996
  
  
  Mulliken Population Analysis
  Atom      Charge (e)              h+              e-           Del q
  --------------------------------------------------------------------
   1 C       -0.730592        0.029986       -0.487094       -0.457108
   2 C       -0.730592        0.029986       -0.487094       -0.457108
   3 H        0.201411        0.001734       -0.028531       -0.026797
   4 H        0.201411        0.001734       -0.028531       -0.026797
   5 H        0.085360        0.029468       -0.003468        0.026000
   6 H        0.085360        0.029468       -0.003468        0.026000
   7 O       -0.556810        1.342601       -0.823515        0.519086
   8 H        0.444453        0.152959        0.243767        0.396726
  --------------------------------------------------------------------
  Sum:       -1.000000        1.617935       -1.617935       -0.000000
  
  Multipole moment analysis of the density matrix
    Molecular charge:                      -1.000000
    Number of electrons:                   26.000000
      Center of electronic charge [Ang]: [  0.000000,  -0.000000,   0.026515]
    Total nuclear charge:                  25.000000
      Center of nuclear charge [Ang]:    [  0.000000,   0.000000,  -0.000000]
    Dipole moment [D]:                     3.311270
      Cartesian components [D]:          [ -0.000000,   0.000000,  -3.311270]
    RMS size of the density [Ang]:         1.842679
      Cartesian components [Ang]:        [  0.898848,   0.522485,   1.521363]
  
  Exciton analysis of the difference density matrix
    <r_h> [Ang]:                  [  0.000000,  -0.000000,  -1.509072]
    <r_e> [Ang]:                  [  0.000000,  -0.000000,  -0.381675]
    |<r_e - r_h>| [Ang]:            1.127397
    Hole size [Ang]:                1.699117
      Cartesian components [Ang]: [  0.813693,   0.855431,   1.221941]
    Electron size [Ang]:            3.171023
      Cartesian components [Ang]: [  1.962358,   1.262182,   2.147426]

  Transition density matrix analysis:
  -----------------------------------
  
  CT numbers (Mulliken)
    omega =     0.8620
    <Phe> =    -0.0044
  
  Exciton analysis of the transition density matrix
    Trans. dipole moment [D]:             0.601274
      Cartesian components [D]:         [ -0.000000,   0.601274,  -0.000000]
    <r_h> [Ang]:                        [  0.000000,  -0.000000,  -1.736103]
    <r_e> [Ang]:                        [  0.000000,  -0.000000,   0.125277]
    |<r_e - r_h>| [Ang]:                  1.861380
    Hole size [Ang]:                      1.099454
      Cartesian components [Ang]:       [  0.475399,   0.817868,   0.560256]
    Electron size [Ang]:                  3.725903
      Cartesian components [Ang]:       [  2.399925,   1.515492,   2.413710]
    RMS electron-hole separation [Ang]:   4.300225
      Cartesian components [Ang]:       [  2.445985,   1.718808,   3.091083]
    Covariance(r_h, r_e) [Ang^2]:         0.031976
    Correlation coefficient:              0.007806
    Center-of-mass size [Ang]:            1.946478
      Cartesian components [Ang]:       [  1.223565,   0.862692,   1.243956]

  Decomposition into state-averaged NTOs
    H- 0 -> L+ 0: -0.4517 ( 40.8%)
    H- 0 -> L+ 1: -0.3861 ( 29.8%)
    H- 0 -> L+ 2: -0.2760 ( 15.2%)
                   omega =  86.2%
  ----------------------------------------------------------------------------


  Excited state 2 (singlet, B2)                                    [converged]
  ----------------------------------------------------------------------------
  Term symbol:  2 (1) B2                                    R^2 =  7.24460e-10

  Total energy:                                           -153.8485752087 a.u.
  Excitation energy:                                               3.361109 eV

  Osc. strength:                                                      0.040612
  Trans. dip. moment [a.u.]:           [  -0.000000,    0.702279,    0.000000]
  <i|r^2|0> [a.u.]:                    [   0.000000,    0.000000,   -0.000000]

  Dip. moment [a.u.]:                  [  -0.000000,   -0.000000,   -1.562524]
  Total dipole [Debye]:                                               3.971540
  <r^2> [a.u.]:                        [  64.541873,   24.910257,  230.675893]
  Total <r^2> [a.u.]:                                               320.128022

  V1^2 = 0.8808, V2^2 = 0.1192

  Important amplitudes:
      occ i      occ j       vir a       vir b          v   
    ---------------------------------------------------------
     2 (B2) A               8 (A1) A                  0.4300
     2 (B2) A               9 (A1) A                  0.3394
    ---------------------------------------------------------

  Density matrix analysis:
  ------------------------
  NOs
    Occupation of frontier NOs:
       0.9651   0.9942
    Number of electrons: 26.000000
    Number of unpaired electrons: n_u =  2.73706, n_u,nl =  2.10945
    NO participation ratio (PR_NO):  3.843322
  
  
  Mulliken Population Analysis
  Atom      Charge (e)              h+              e-           Del q
  --------------------------------------------------------------------
   1 C       -0.779749        0.030072       -0.536337       -0.506265
   2 C       -0.779749        0.030072       -0.536337       -0.506265
   3 H        0.166532       -0.000407       -0.061270       -0.061677
   4 H        0.166532       -0.000407       -0.061270       -0.061677
   5 H        0.174097        0.040706        0.074031        0.114737
   6 H        0.174097        0.040706        0.074031        0.114737
   7 O       -0.586091        1.329379       -0.839574        0.489805
   8 H        0.464333        0.160166        0.256440        0.416606
  --------------------------------------------------------------------
  Sum:       -1.000000        1.630287       -1.630287       -0.000000
  
  Multipole moment analysis of the density matrix
    Molecular charge:                      -1.000000
    Number of electrons:                   26.000000
      Center of electronic charge [Ang]: [  0.000000,   0.000000,   0.031802]
    Total nuclear charge:                  25.000000
      Center of nuclear charge [Ang]:    [  0.000000,   0.000000,  -0.000000]
    Dipole moment [D]:                     3.971538
      Cartesian components [D]:          [ -0.000000,  -0.000000,  -3.971538]
    RMS size of the density [Ang]:         1.856575
      Cartesian components [Ang]:        [  0.833749,   0.517969,   1.575895]
  
  Exciton analysis of the difference density matrix
    <r_h> [Ang]:                  [ -0.000000,  -0.000000,  -1.458967]
    <r_e> [Ang]:                  [  0.000000,   0.000000,  -0.255793]
    |<r_e - r_h>| [Ang]:            1.203175
    Hole size [Ang]:                1.747661
      Cartesian components [Ang]: [  0.804189,   0.859225,   1.292026]
    Electron size [Ang]:            3.307696
      Cartesian components [Ang]: [  1.418630,   1.232127,   2.722169]

  Transition density matrix analysis:
  -----------------------------------
  
  CT numbers (Mulliken)
    omega =     0.8636
    <Phe> =    -0.0059
  
  Exciton analysis of the transition density matrix
    Trans. dipole moment [D]:             0.892507
      Cartesian components [D]:         [ -0.000000,   0.892507,   0.000000]
    <r_h> [Ang]:                        [  0.000000,  -0.000000,  -1.739022]
    <r_e> [Ang]:                        [  0.000000,   0.000000,   0.257653]
    |<r_e - r_h>| [Ang]:                  1.996675
    Hole size [Ang]:                      1.095167
      Cartesian components [Ang]:       [  0.475065,   0.817614,   0.552460]
    Electron size [Ang]:                  3.904755
      Cartesian components [Ang]:       [  1.676122,   1.475120,   3.203396]
    RMS electron-hole separation [Ang]:   4.511954
      Cartesian components [Ang]:       [  1.741738,   1.682934,   3.806811]
    Covariance(r_h, r_e) [Ang^2]:         0.037742
    Correlation coefficient:              0.008826
    Center-of-mass size [Ang]:            2.032362
      Cartesian components [Ang]:       [  0.871277,   0.845085,   1.630094]

  Decomposition into state-averaged NTOs
    H- 0 -> L+ 1:  0.4788 ( 45.8%)
    H- 0 -> L+ 2: -0.4021 ( 32.3%)
    H- 0 -> L+ 0: -0.1721 (  5.9%)
    H- 0 -> L+ 4: -0.0880 (  1.5%)
                   omega =  86.4%
  ----------------------------------------------------------------------------


  Excited state 3 (singlet, B2)                                    [converged]
  ----------------------------------------------------------------------------
  Term symbol:  3 (1) B2                                    R^2 =  7.54512e-10

  Total energy:                                           -153.8400540820 a.u.
  Excitation energy:                                               3.592981 eV

  Osc. strength:                                                      0.001279
  Trans. dip. moment [a.u.]:           [   0.000000,    0.120541,    0.000000]
  <i|r^2|0> [a.u.]:                    [   0.000000,    0.000000,    0.000000]

  Dip. moment [a.u.]:                  [   0.000000,    0.000000,   -2.800326]
  Total dipole [Debye]:                                               7.117721
  <r^2> [a.u.]:                        [  66.068109,   29.978667,  202.700229]
  Total <r^2> [a.u.]:                                               298.747005

  V1^2 = 0.8720, V2^2 = 0.1280

  Important amplitudes:
      occ i      occ j       vir a       vir b          v   
    ---------------------------------------------------------
     4 (B1) A               1 (A2) A                  0.6224
     4 (B1) A               2 (A2) A                 -0.2159
    ---------------------------------------------------------

  Density matrix analysis:
  ------------------------
  NOs
    Occupation of frontier NOs:
       0.9669   0.9935
    Number of electrons: 26.000000
    Number of unpaired electrons: n_u =  2.73198, n_u,nl =  2.10485
    NO participation ratio (PR_NO):  3.827214
  
  
  Mulliken Population Analysis
  Atom      Charge (e)              h+              e-           Del q
  --------------------------------------------------------------------
   1 C       -0.714568        0.074213       -0.515296       -0.441084
   2 C       -0.714568        0.074213       -0.515296       -0.441084
   3 H        0.161557       -0.000275       -0.066376       -0.066651
   4 H        0.161557       -0.000275       -0.066376       -0.066651
   5 H        0.066080        0.012036       -0.005316        0.006720
   6 H        0.066080        0.012036       -0.005316        0.006720
   7 O       -0.173908        1.365273       -0.463284        0.901988
   8 H        0.147769        0.120891       -0.020849        0.100041
  --------------------------------------------------------------------
  Sum:       -1.000000        1.658109       -1.658109        0.000000
  
  Multipole moment analysis of the density matrix
    Molecular charge:                      -1.000000
    Number of electrons:                   26.000000
      Center of electronic charge [Ang]: [ -0.000000,  -0.000000,   0.056995]
    Total nuclear charge:                  25.000000
      Center of nuclear charge [Ang]:    [  0.000000,   0.000000,  -0.000000]
    Dipole moment [D]:                     7.117719
      Cartesian components [D]:          [  0.000000,   0.000000,  -7.117719]
    RMS size of the density [Ang]:         1.792862
      Cartesian components [Ang]:        [  0.843549,   0.568225,   1.476448]
  
  Exciton analysis of the difference density matrix
    <r_h> [Ang]:                  [  0.000000,  -0.000000,  -1.441728]
    <r_e> [Ang]:                  [ -0.000000,  -0.000000,   0.136297]
    |<r_e - r_h>| [Ang]:            1.578024
    Hole size [Ang]:                1.683504
      Cartesian components [Ang]: [  0.888319,   0.735373,   1.226499]
    Electron size [Ang]:            2.647439
      Cartesian components [Ang]: [  1.545880,   1.470895,   1.567054]

  Transition density matrix analysis:
  -----------------------------------
  
  CT numbers (Mulliken)
    omega =     0.8483
    <Phe> =    -0.0004
  
  Exciton analysis of the transition density matrix
    Trans. dipole moment [D]:             0.153192
      Cartesian components [D]:         [  0.000000,   0.153192,   0.000000]
    <r_h> [Ang]:                        [  0.000000,  -0.000000,  -1.699072]
    <r_e> [Ang]:                        [ -0.000000,  -0.000000,   1.017234]
    |<r_e - r_h>| [Ang]:                  2.716306
    Hole size [Ang]:                      1.159774
      Cartesian components [Ang]:       [  0.815276,   0.465058,   0.681265]
    Electron size [Ang]:                  2.791504
      Cartesian components [Ang]:       [  1.866121,   1.787347,   1.056162]
    RMS electron-hole separation [Ang]:   4.061575
      Cartesian components [Ang]:       [  2.032475,   1.846465,   2.992659]
    Covariance(r_h, r_e) [Ang^2]:         0.009746
    Correlation coefficient:              0.003010
    Center-of-mass size [Ang]:            1.513032
      Cartesian components [Ang]:       [  1.020197,   0.923627,   0.628791]

  Decomposition into state-averaged NTOs
    H- 2 -> L+ 3:  0.6503 ( 84.6%)
                   omega =  84.8%
  ----------------------------------------------------------------------------


  Excited state 4 (singlet, B2)                                    [converged]
  ----------------------------------------------------------------------------
  Term symbol:  4 (1) B2                                    R^2 =  1.41327e-09

  Total energy:                                           -153.8107343631 a.u.
  Excitation energy:                                               4.390811 eV

  Osc. strength:                                                      0.001566
  Trans. dip. moment [a.u.]:           [  -0.000000,    0.120654,   -0.000000]
  <i|r^2|0> [a.u.]:                    [   0.000000,   -0.000000,    0.000000]

  Dip. moment [a.u.]:                  [  -0.000000,    0.000000,   -1.128328]
  Total dipole [Debye]:                                               2.867923
  <r^2> [a.u.]:                        [  73.204480,   24.195542,  220.246166]
  Total <r^2> [a.u.]:                                               317.646187

  V1^2 = 0.8808, V2^2 = 0.1192

  Important amplitudes:
      occ i      occ j       vir a       vir b          v   
    ---------------------------------------------------------
     2 (B2) A               9 (A1) A                 -0.4574
     2 (B2) A              10 (A1) A                  0.4098
    ---------------------------------------------------------

  Density matrix analysis:
  ------------------------
  NOs
    Occupation of frontier NOs:
       0.9646   0.9946
    Number of electrons: 26.000000
    Number of unpaired electrons: n_u =  2.73820, n_u,nl =  2.10987
    NO participation ratio (PR_NO):  3.846666
  
  
  Mulliken Population Analysis
  Atom      Charge (e)              h+              e-           Del q
  --------------------------------------------------------------------
   1 C       -0.576277        0.031898       -0.334690       -0.302793
   2 C       -0.576277        0.031898       -0.334690       -0.302793
   3 H        0.216532        0.004278       -0.015955       -0.011677
   4 H        0.216532        0.004278       -0.015955       -0.011677
   5 H        0.051480        0.033326       -0.041205       -0.007880
   6 H        0.051480        0.033326       -0.041205       -0.007880
   7 O       -0.811159        1.327697       -1.062959        0.264738
   8 H        0.427688        0.157406        0.222555        0.379961
  --------------------------------------------------------------------
  Sum:       -1.000000        1.624105       -1.624105       -0.000000
  
  Multipole moment analysis of the density matrix
    Molecular charge:                      -1.000000
    Number of electrons:                   26.000000
      Center of electronic charge [Ang]: [  0.000000,  -0.000000,   0.022965]
    Total nuclear charge:                  25.000000
      Center of nuclear charge [Ang]:    [  0.000000,   0.000000,  -0.000000]
    Dipole moment [D]:                     2.867923
      Cartesian components [D]:          [ -0.000000,   0.000000,  -2.867923]
    RMS size of the density [Ang]:         1.849493
      Cartesian components [Ang]:        [  0.887939,   0.510484,   1.539999]
  
  Exciton analysis of the difference density matrix
    <r_h> [Ang]:                  [  0.000000,  -0.000000,  -1.486224]
    <r_e> [Ang]:                  [  0.000000,  -0.000000,  -0.419942]
    |<r_e - r_h>| [Ang]:            1.066281
    Hole size [Ang]:                1.725808
      Cartesian components [Ang]: [  0.821863,   0.858764,   1.251190]
    Electron size [Ang]:            3.229326
      Cartesian components [Ang]: [  1.881504,   1.181983,   2.343374]

  Transition density matrix analysis:
  -----------------------------------
  
  CT numbers (Mulliken)
    omega =     0.8639
    <Phe> =    -0.0030
  
  Exciton analysis of the transition density matrix
    Trans. dipole moment [D]:             0.153336
      Cartesian components [D]:         [ -0.000000,   0.153336,  -0.000000]
    <r_h> [Ang]:                        [  0.000000,  -0.000000,  -1.738666]
    <r_e> [Ang]:                        [  0.000000,  -0.000000,   0.034369]
    |<r_e - r_h>| [Ang]:                  1.773035
    Hole size [Ang]:                      1.095550
      Cartesian components [Ang]:       [  0.474697,   0.818061,   0.552873]
    Electron size [Ang]:                  3.820855
      Cartesian components [Ang]:       [  2.290627,   1.406380,   2.715521]
    RMS electron-hole separation [Ang]:   4.345662
      Cartesian components [Ang]:       [  2.338783,   1.626814,   3.281516]
    Covariance(r_h, r_e) [Ang^2]:         0.029018
    Correlation coefficient:              0.006932
    Center-of-mass size [Ang]:            1.991055
      Cartesian components [Ang]:       [  1.169905,   0.813593,   1.390571]

  Decomposition into state-averaged NTOs
    H- 0 -> L+ 0:  0.4399 ( 38.7%)
    H- 0 -> L+ 2: -0.4378 ( 38.3%)
    H- 0 -> L+ 1: -0.2044 (  8.4%)
                   omega =  86.4%
  ----------------------------------------------------------------------------


  Excited state 5 (singlet, B2)                                    [converged]
  ----------------------------------------------------------------------------
  Term symbol:  5 (1) B2                                    R^2 =  4.29480e-09

  Total energy:                                           -153.7653173941 a.u.
  Excitation energy:                                               5.626670 eV

  Osc. strength:                                                      0.008055
  Trans. dip. moment [a.u.]:           [   0.000000,    0.241723,    0.000000]
  <i|r^2|0> [a.u.]:                    [   0.000000,   -0.000000,    0.000000]

  Dip. moment [a.u.]:                  [   0.000000,   -0.000000,   -2.029393]
  Total dipole [Debye]:                                               5.158203
  <r^2> [a.u.]:                        [  64.453057,   31.728049,  206.159660]
  Total <r^2> [a.u.]:                                               302.340766

  V1^2 = 0.8817, V2^2 = 0.1183

  Important amplitudes:
      occ i      occ j       vir a       vir b          v   
    ---------------------------------------------------------
     2 (B2) A              11 (A1) A                 -0.6020
     2 (B2) A              10 (A1) A                  0.2444
    ---------------------------------------------------------

  Density matrix analysis:
  ------------------------
  NOs
    Occupation of frontier NOs:
       0.9675   0.9914
    Number of electrons: 26.000000
    Number of unpaired electrons: n_u =  2.74333, n_u,nl =  2.11111
    NO participation ratio (PR_NO):  3.861957
  
  
  Mulliken Population Analysis
  Atom      Charge (e)              h+              e-           Del q
  --------------------------------------------------------------------
   1 C       -0.782834        0.051667       -0.561017       -0.509350
   2 C       -0.782834        0.051667       -0.561017       -0.509350
   3 H        0.261429       -0.000347        0.033568        0.033221
   4 H        0.261429       -0.000347        0.033568        0.033221
   5 H        0.115604        0.011540        0.044704        0.056244
   6 H        0.115604        0.011540        0.044704        0.056244
   7 O       -0.374372        1.348305       -0.646780        0.701524
   8 H        0.185972        0.128458        0.009787        0.138245
  --------------------------------------------------------------------
  Sum:       -1.000000        1.602482       -1.602482       -0.000000
  
  Multipole moment analysis of the density matrix
    Molecular charge:                      -1.000000
    Number of electrons:                   26.000000
      Center of electronic charge [Ang]: [ -0.000000,   0.000000,   0.041304]
    Total nuclear charge:                  25.000000
      Center of nuclear charge [Ang]:    [  0.000000,   0.000000,  -0.000000]
    Dipole moment [D]:                     5.158202
      Cartesian components [D]:          [  0.000000,  -0.000000,  -5.158202]
    RMS size of the density [Ang]:         1.804052
      Cartesian components [Ang]:        [  0.833175,   0.584569,   1.489530]
  
  Exciton analysis of the difference density matrix
    <r_h> [Ang]:                  [  0.000000,  -0.000000,  -1.512845]
    <r_e> [Ang]:                  [ -0.000000,   0.000000,  -0.134623]
    |<r_e - r_h>| [Ang]:            1.378222
    Hole size [Ang]:                1.662772
      Cartesian components [Ang]: [  0.789507,   0.857734,   1.185657]
    Electron size [Ang]:            2.802061
      Cartesian components [Ang]: [  1.413255,   1.649393,   1.770242]

  Transition density matrix analysis:
  -----------------------------------
  
  CT numbers (Mulliken)
    omega =     0.8646
    <Phe> =    -0.0008
  
  Exciton analysis of the transition density matrix
    Trans. dipole moment [D]:             0.307200
      Cartesian components [D]:         [  0.000000,   0.307200,   0.000000]
    <r_h> [Ang]:                        [  0.000000,  -0.000000,  -1.718088]
    <r_e> [Ang]:                        [ -0.000000,   0.000000,   0.555584]
    |<r_e - r_h>| [Ang]:                  2.273672
    Hole size [Ang]:                      1.122265
      Cartesian components [Ang]:       [  0.476647,   0.817113,   0.603832]
    Electron size [Ang]:                  3.117691
      Cartesian components [Ang]:       [  1.652363,   2.019112,   1.706716]
    RMS electron-hole separation [Ang]:   4.007943
      Cartesian components [Ang]:       [  1.719375,   2.170893,   2.897340]
    Covariance(r_h, r_e) [Ang^2]:         0.042727
    Correlation coefficient:              0.012212
    Center-of-mass size [Ang]:            1.663199
      Cartesian components [Ang]:       [  0.860050,   1.092725,   0.912413]

  Decomposition into state-averaged NTOs
    H- 0 -> L+ 4: -0.6466 ( 83.6%)
    H- 0 -> L+ 2:  0.0994 (  2.0%)
                   omega =  86.5%
  ----------------------------------------------------------------------------


  Excited state 6 (singlet, B2)                                    [converged]
  ----------------------------------------------------------------------------
  Term symbol:  6 (1) B2                                    R^2 =  1.34961e-08

  Total energy:                                           -153.7493398418 a.u.
  Excitation energy:                                               6.061441 eV

  Osc. strength:                                                      0.002826
  Trans. dip. moment [a.u.]:           [   0.000000,    0.137946,   -0.000000]
  <i|r^2|0> [a.u.]:                    [  -0.000000,   -0.000000,   -0.000000]

  Dip. moment [a.u.]:                  [   0.000000,   -0.000000,   -2.798164]
  Total dipole [Debye]:                                               7.112226
  <r^2> [a.u.]:                        [  68.659355,   32.637212,  203.720512]
  Total <r^2> [a.u.]:                                               305.017079

  V1^2 = 0.8671, V2^2 = 0.1329

  Important amplitudes:
      occ i      occ j       vir a       vir b          v   
    ---------------------------------------------------------
     4 (B1) A               2 (A2) A                  0.6135
     4 (B1) A               1 (A2) A                  0.2195
    ---------------------------------------------------------

  Density matrix analysis:
  ------------------------
  NOs
    Occupation of frontier NOs:
       0.9692   0.9865
    Number of electrons: 26.000000
    Number of unpaired electrons: n_u =  2.74916, n_u,nl =  2.10975
    NO participation ratio (PR_NO):  3.891521
  
  
  Mulliken Population Analysis
  Atom      Charge (e)              h+              e-           Del q
  --------------------------------------------------------------------
   1 C       -0.687874        0.089391       -0.503782       -0.414390
   2 C       -0.687874        0.089391       -0.503782       -0.414390
   3 H        0.150884       -0.002933       -0.074392       -0.077325
   4 H        0.150884       -0.002933       -0.074392       -0.077325
   5 H        0.052799        0.009289       -0.015850       -0.006561
   6 H        0.052799        0.009289       -0.015850       -0.006561
   7 O       -0.177436        1.355391       -0.456931        0.898460
   8 H        0.145818        0.118972       -0.020881        0.098091
  --------------------------------------------------------------------
  Sum:       -1.000000        1.665859       -1.665859        0.000000
  
  Multipole moment analysis of the density matrix
    Molecular charge:                      -1.000000
    Number of electrons:                   26.000000
      Center of electronic charge [Ang]: [ -0.000000,   0.000000,   0.056951]
    Total nuclear charge:                  25.000000
      Center of nuclear charge [Ang]:    [  0.000000,   0.000000,  -0.000000]
    Dipole moment [D]:                     7.112223
      Cartesian components [D]:          [  0.000000,  -0.000000,  -7.112223]
    RMS size of the density [Ang]:         1.811599
      Cartesian components [Ang]:        [  0.859932,   0.592886,   1.480167]
  
  Exciton analysis of the difference density matrix
    <r_h> [Ang]:                  [  0.000000,  -0.000000,  -1.416113]
    <r_e> [Ang]:                  [ -0.000000,   0.000000,   0.153884]
    |<r_e - r_h>| [Ang]:            1.569997
    Hole size [Ang]:                1.686005
      Cartesian components [Ang]: [  0.881179,   0.723621,   1.241978]
    Electron size [Ang]:            2.825457
      Cartesian components [Ang]: [  1.674888,   1.608022,   1.610039]

  Transition density matrix analysis:
  -----------------------------------
  
  CT numbers (Mulliken)
    omega =     0.8437
    <Phe> =    -0.0006
  
  Exciton analysis of the transition density matrix
    Trans. dipole moment [D]:             0.175311
      Cartesian components [D]:         [  0.000000,   0.175311,  -0.000000]
    <r_h> [Ang]:                        [  0.000000,  -0.000000,  -1.679047]
    <r_e> [Ang]:                        [ -0.000000,   0.000000,   1.030874]
    |<r_e - r_h>| [Ang]:                  2.709921
    Hole size [Ang]:                      1.185447
      Cartesian components [Ang]:       [  0.816933,   0.465328,   0.722064]
    Electron size [Ang]:                  3.082714
      Cartesian components [Ang]:       [  2.047719,   1.991997,   1.158412]
    RMS electron-hole separation [Ang]:   4.267457
      Cartesian components [Ang]:       [  2.201049,   2.045299,   3.030400]
    Covariance(r_h, r_e) [Ang^2]:         0.020444
    Correlation coefficient:              0.005594
    Center-of-mass size [Ang]:            1.654486
      Cartesian components [Ang]:       [  1.104134,   1.022975,   0.686829]

  Decomposition into state-averaged NTOs
    H- 2 -> L+ 6: -0.6473 ( 83.8%)
                   omega =  84.4%
  ----------------------------------------------------------------------------


  Excited state 7 (singlet, B2)                                    [converged]
  ----------------------------------------------------------------------------
  Term symbol:  7 (1) B2                                    R^2 =  1.18731e-09

  Total energy:                                           -153.7439351684 a.u.
  Excitation energy:                                               6.208510 eV

  Osc. strength:                                                      0.067922
  Trans. dip. moment [a.u.]:           [   0.000000,    0.668238,    0.000000]
  <i|r^2|0> [a.u.]:                    [  -0.000000,   -0.000000,   -0.000000]

  Dip. moment [a.u.]:                  [  -0.000000,    0.000000,   -0.936129]
  Total dipole [Debye]:                                               2.379403
  <r^2> [a.u.]:                        [  66.072230,   24.871248,  232.045562]
  Total <r^2> [a.u.]:                                               322.989040

  V1^2 = 0.9467, V2^2 = 0.0533

  Important amplitudes:
      occ i      occ j       vir a       vir b          v   
    ---------------------------------------------------------
     1 (B2) A               8 (A1) A                 -0.6571
     1 (B2) A               9 (A1) A                 -0.1145
    ---------------------------------------------------------

  Density matrix analysis:
  ------------------------
  NOs
    Occupation of frontier NOs:
       0.9879   0.9890
    Number of electrons: 26.000000
    Number of unpaired electrons: n_u =  2.61981, n_u,nl =  2.06828
    NO participation ratio (PR_NO):  3.480378
  
  
  Mulliken Population Analysis
  Atom      Charge (e)              h+              e-           Del q
  --------------------------------------------------------------------
   1 C       -0.477932        0.527324       -0.731772       -0.204448
   2 C       -0.477932        0.527324       -0.731772       -0.204448
   3 H        0.278930        0.046367        0.004355        0.050722
   4 H        0.278930        0.046367        0.004355        0.050722
   5 H        0.216017        0.121212        0.035445        0.156657
   6 H        0.216017        0.121212        0.035445        0.156657
   7 O       -1.100502        0.048326       -0.072931       -0.024605
   8 H        0.066472        0.019608       -0.000863        0.018744
  --------------------------------------------------------------------
  Sum:       -1.000000        1.457738       -1.457738       -0.000000
  
  Multipole moment analysis of the density matrix
    Molecular charge:                      -1.000000
    Number of electrons:                   26.000000
      Center of electronic charge [Ang]: [  0.000000,  -0.000000,   0.019053]
    Total nuclear charge:                  25.000000
      Center of nuclear charge [Ang]:    [  0.000000,   0.000000,  -0.000000]
    Dipole moment [D]:                     2.379402
      Cartesian components [D]:          [ -0.000000,   0.000000,  -2.379402]
    RMS size of the density [Ang]:         1.865029
      Cartesian components [Ang]:        [  0.843575,   0.517563,   1.580773]
  
  Exciton analysis of the difference density matrix
    <r_h> [Ang]:                  [ -0.000000,  -0.000000,   0.942111]
    <r_e> [Ang]:                  [  0.000000,   0.000000,   2.060313]
    |<r_e - r_h>| [Ang]:            1.118202
    Hole size [Ang]:                1.763065
      Cartesian components [Ang]: [  1.029033,   0.903151,   1.110769]
    Electron size [Ang]:            2.610240
      Cartesian components [Ang]: [  1.697158,   1.296291,   1.500879]

  Transition density matrix analysis:
  -----------------------------------
  
  CT numbers (Mulliken)
    omega =     0.9152
    <Phe> =    -0.0077
  
  Exciton analysis of the transition density matrix
    Trans. dipole moment [D]:             0.849246
      Cartesian components [D]:         [  0.000000,   0.849246,   0.000000]
    <r_h> [Ang]:                        [  0.000000,   0.000000,   1.000584]
    <r_e> [Ang]:                        [  0.000000,   0.000000,   2.690277]
    |<r_e - r_h>| [Ang]:                  1.689693
    Hole size [Ang]:                      1.324308
      Cartesian components [Ang]:       [  0.766080,   0.891625,   0.609852]
    Electron size [Ang]:                  2.732201
      Cartesian components [Ang]:       [  1.945025,   1.507014,   1.187735]
    RMS electron-hole separation [Ang]:   3.460784
      Cartesian components [Ang]:       [  2.084386,   1.744712,   2.142042]
    Covariance(r_h, r_e) [Ang^2]:         0.048375
    Correlation coefficient:              0.013370
    Center-of-mass size [Ang]:            1.526063
      Cartesian components [Ang]:       [  1.048253,   0.878656,   0.676754]

  Decomposition into state-averaged NTOs
    H- 1 -> L+ 1: -0.6651 ( 88.5%)
    H- 1 -> L+ 0: -0.1069 (  2.3%)
                   omega =  91.5%
  ----------------------------------------------------------------------------


  Excited state 8 (singlet, B2)                                    [converged]
  ----------------------------------------------------------------------------
  Term symbol:  8 (1) B2                                    R^2 =  1.33137e-08

  Total energy:                                           -153.6893352148 a.u.
  Excitation energy:                                               7.694250 eV

  Osc. strength:                                                      0.022623
  Trans. dip. moment [a.u.]:           [   0.000000,   -0.346426,    0.000000]
  <i|r^2|0> [a.u.]:                    [  -0.000000,   -0.000000,   -0.000000]

  Dip. moment [a.u.]:                  [  -0.000000,    0.000000,    2.743275]
  Total dipole [Debye]:                                               6.972710
  <r^2> [a.u.]:                        [  77.935962,   24.350696,  214.500527]
  Total <r^2> [a.u.]:                                               316.787185

  V1^2 = 0.9462, V2^2 = 0.0538

  Important amplitudes:
      occ i      occ j       vir a       vir b          v   
    ---------------------------------------------------------
     1 (B2) A               9 (A1) A                 -0.6598
     1 (B2) A               8 (A1) A                  0.1168
    ---------------------------------------------------------

  Density matrix analysis:
  ------------------------
  NOs
    Occupation of frontier NOs:
       0.9842   0.9921
    Number of electrons: 26.000000
    Number of unpaired electrons: n_u =  2.60894, n_u,nl =  2.06564
    NO participation ratio (PR_NO):  3.454721
  
  
  Mulliken Population Analysis
  Atom      Charge (e)              h+              e-           Del q
  --------------------------------------------------------------------
   1 C       -0.528665        0.525865       -0.781046       -0.255181
   2 C       -0.528665        0.525865       -0.781046       -0.255181
   3 H        0.339878        0.087614        0.024055        0.111669
   4 H        0.339878        0.087614        0.024055        0.111669
   5 H        0.143113        0.097729       -0.013976        0.083753
   6 H        0.143113        0.097729       -0.013976        0.083753
   7 O       -0.978195        0.049284        0.048418        0.097702
   8 H        0.069543        0.018602        0.003214        0.021816
  --------------------------------------------------------------------
  Sum:       -1.000000        1.490301       -1.490301       -0.000000
  
  Multipole moment analysis of the density matrix
    Molecular charge:                      -1.000000
    Number of electrons:                   26.000000
      Center of electronic charge [Ang]: [  0.000000,  -0.000000,  -0.055834]
    Total nuclear charge:                  25.000000
      Center of nuclear charge [Ang]:    [  0.000000,   0.000000,  -0.000000]
    Dipole moment [D]:                     6.972708
      Cartesian components [D]:          [ -0.000000,   0.000000,   6.972708]
    RMS size of the density [Ang]:         1.846289
      Cartesian components [Ang]:        [  0.916185,   0.512118,   1.518922]
  
  Exciton analysis of the difference density matrix
    <r_h> [Ang]:                  [ -0.000000,   0.000000,   0.893282]
    <r_e> [Ang]:                  [  0.000000,  -0.000000,   0.680566]
    |<r_e - r_h>| [Ang]:            0.212716
    Hole size [Ang]:                1.755739
      Cartesian components [Ang]: [  1.047559,   0.889643,   1.092599]
    Electron size [Ang]:            3.026554
      Cartesian components [Ang]: [  2.260138,   1.240745,   1.585043]

  Transition density matrix analysis:
  -----------------------------------
  
  CT numbers (Mulliken)
    omega =     0.9152
    <Phe> =    -0.0021
  
  Exciton analysis of the transition density matrix
    Trans. dipole moment [D]:             0.440263
      Cartesian components [D]:         [  0.000000,  -0.440263,   0.000000]
    <r_h> [Ang]:                        [  0.000000,   0.000000,   1.026372]
    <r_e> [Ang]:                        [  0.000000,  -0.000000,   0.664399]
    |<r_e - r_h>| [Ang]:                  0.361973
    Hole size [Ang]:                      1.299875
      Cartesian components [Ang]:       [  0.767787,   0.891824,   0.552114]
    Electron size [Ang]:                  3.520953
      Cartesian components [Ang]:       [  2.674356,   1.459141,   1.765174]
    RMS electron-hole separation [Ang]:   3.763738
      Cartesian components [Ang]:       [  2.775873,   1.707506,   1.882731]
    Covariance(r_h, r_e) [Ang^2]:         0.026045
    Correlation coefficient:              0.005691
    Center-of-mass size [Ang]:            1.880085
      Cartesian components [Ang]:       [  1.394443,   0.856345,   0.925701]

  Decomposition into state-averaged NTOs
    H- 1 -> L+ 0:  0.6664 ( 88.8%)
    H- 1 -> L+ 1: -0.1080 (  2.3%)
                   omega =  91.5%
  ----------------------------------------------------------------------------


  Excited state 9 (singlet, B2)                                    [converged]
  ----------------------------------------------------------------------------
  Term symbol:  9 (1) B2                                    R^2 =  1.90343e-06

  Total energy:                                           -153.6727568712 a.u.
  Excitation energy:                                               8.145370 eV

  Osc. strength:                                                      0.000024
  Trans. dip. moment [a.u.]:           [  -0.000000,    0.010928,    0.000000]
  <i|r^2|0> [a.u.]:                    [   0.000000,    0.000000,    0.000000]

  Dip. moment [a.u.]:                  [  -0.000000,   -0.000000,   -3.014626]
  Total dipole [Debye]:                                               7.662416
  <r^2> [a.u.]:                        [  63.385398,   43.429999,  205.575515]
  Total <r^2> [a.u.]:                                               312.390912

  V1^2 = 0.8784, V2^2 = 0.1216

  Important amplitudes:
      occ i      occ j       vir a       vir b          v   
    ---------------------------------------------------------
     7 (A1) A               3 (B2) A                 -0.6566
     7 (A1) A               4 (B2) A                 -0.0507
    ---------------------------------------------------------

  Density matrix analysis:
  ------------------------
  NOs
    Occupation of frontier NOs:
       0.9826   0.9960
    Number of electrons: 26.000000
    Number of unpaired electrons: n_u =  2.79156, n_u,nl =  2.12574
    NO participation ratio (PR_NO):  3.913953
  
  
  Mulliken Population Analysis
  Atom      Charge (e)              h+              e-           Del q
  --------------------------------------------------------------------
   1 C       -0.738670        0.073538       -0.538724       -0.465186
   2 C       -0.738670        0.073538       -0.538724       -0.465186
   3 H        0.173414       -0.002521       -0.052274       -0.054795
   4 H        0.173414       -0.002521       -0.052274       -0.054795
   5 H        0.080655        0.024007       -0.002712        0.021295
   6 H        0.080655        0.024007       -0.002712        0.021295
   7 O       -0.349738        1.178666       -0.452508        0.726158
   8 H        0.318942        0.286932       -0.015717        0.271215
  --------------------------------------------------------------------
  Sum:       -1.000000        1.655644       -1.655644       -0.000000
  
  Multipole moment analysis of the density matrix
    Molecular charge:                      -1.000000
    Number of electrons:                   26.000000
      Center of electronic charge [Ang]: [  0.000000,   0.000000,   0.061357]
    Total nuclear charge:                  25.000000
      Center of nuclear charge [Ang]:    [  0.000000,   0.000000,  -0.000000]
    Dipole moment [D]:                     7.662414
      Cartesian components [D]:          [ -0.000000,  -0.000000,  -7.662414]
    RMS size of the density [Ang]:         1.833245
      Cartesian components [Ang]:        [  0.826245,   0.683926,   1.486725]
  
  Exciton analysis of the difference density matrix
    <r_h> [Ang]:                  [  0.000000,  -0.000000,  -1.391296]
    <r_e> [Ang]:                  [  0.000000,   0.000000,   0.257572]
    |<r_e - r_h>| [Ang]:            1.648868
    Hole size [Ang]:                1.773109
      Cartesian components [Ang]: [  0.806287,   0.733274,   1.398617]
    Electron size [Ang]:            3.072270
      Cartesian components [Ang]: [  1.341407,   2.106648,   1.789276]

  Transition density matrix analysis:
  -----------------------------------
  
  CT numbers (Mulliken)
    omega =     0.8595
    <Phe> =    -0.0002
  
  Exciton analysis of the transition density matrix
    Trans. dipole moment [D]:             0.013888
      Cartesian components [D]:         [ -0.000000,   0.013888,   0.000000]
    <r_h> [Ang]:                        [ -0.000000,  -0.000000,  -1.673010]
    <r_e> [Ang]:                        [  0.000000,   0.000000,   1.202345]
    |<r_e - r_h>| [Ang]:                  2.875355
    Hole size [Ang]:                      1.185575
      Cartesian components [Ang]:       [  0.467469,   0.405643,   1.011194]
    Electron size [Ang]:                  3.400354
      Cartesian components [Ang]:       [  1.584560,   2.649280,   1.425796]
    RMS electron-hole separation [Ang]:   4.605910
      Cartesian components [Ang]:       [  1.648009,   2.680972,   3.363163]
    Covariance(r_h, r_e) [Ang^2]:         0.010626
    Correlation coefficient:              0.002636
    Center-of-mass size [Ang]:            1.802030
      Cartesian components [Ang]:       [  0.828067,   1.339669,   0.875731]

  Decomposition into state-averaged NTOs
    H- 3 -> L+ 5:  0.6550 ( 85.8%)
                   omega =  86.0%
  ----------------------------------------------------------------------------


  Excited state 10 (singlet, B2)                                    [converged]
  ----------------------------------------------------------------------------
  Term symbol:  10 (1) B2                                   R^2 =  1.05778e-06

  Total energy:                                           -153.6606490172 a.u.
  Excitation energy:                                               8.474841 eV

  Osc. strength:                                                      0.004996
  Trans. dip. moment [a.u.]:           [   0.000000,   -0.155125,    0.000000]
  <i|r^2|0> [a.u.]:                    [   0.000000,    0.000000,   -0.000000]

  Dip. moment [a.u.]:                  [   0.000000,    0.000000,   -1.498180]
  Total dipole [Debye]:                                               3.807994
  <r^2> [a.u.]:                        [  61.194990,   21.589196,  208.911809]
  Total <r^2> [a.u.]:                                               291.695995

  V1^2 = 0.8943, V2^2 = 0.1057

  Important amplitudes:
      occ i      occ j       vir a       vir b          v   
    ---------------------------------------------------------
     2 (B2) A              12 (A1) A                  0.5419
     2 (B2) A              13 (A1) A                  0.3116
    ---------------------------------------------------------

  Density matrix analysis:
  ------------------------
  NOs
    Occupation of frontier NOs:
       0.9456   1.0109
    Number of electrons: 26.000000
    Number of unpaired electrons: n_u =  2.78885, n_u,nl =  2.13220
    NO participation ratio (PR_NO):  4.073675
  
  
  Mulliken Population Analysis
  Atom      Charge (e)              h+              e-           Del q
  --------------------------------------------------------------------
   1 C       -0.225602        0.062582       -0.014700        0.047882
   2 C       -0.225602        0.062582       -0.014700        0.047882
   3 H       -0.069952       -0.004500       -0.293660       -0.298161
   4 H       -0.069952       -0.004500       -0.293660       -0.298161
   5 H        0.024335        0.017905       -0.052930       -0.035025
   6 H        0.024335        0.017905       -0.052930       -0.035025
   7 O       -0.599930        1.239267       -0.763301        0.475966
   8 H        0.142368        0.108560       -0.013919        0.094641
  --------------------------------------------------------------------
  Sum:       -1.000000        1.499801       -1.499801       -0.000000
  
  Multipole moment analysis of the density matrix
    Molecular charge:                      -1.000000
    Number of electrons:                   26.000000
      Center of electronic charge [Ang]: [ -0.000000,  -0.000000,   0.030492]
    Total nuclear charge:                  25.000000
      Center of nuclear charge [Ang]:    [  0.000000,   0.000000,  -0.000000]
    Dipole moment [D]:                     3.807993
      Cartesian components [D]:          [  0.000000,   0.000000,  -3.807993]
    RMS size of the density [Ang]:         1.772211
      Cartesian components [Ang]:        [  0.811844,   0.482206,   1.499706]
  
  Exciton analysis of the difference density matrix
    <r_h> [Ang]:                  [ -0.000000,  -0.000000,  -1.448495]
    <r_e> [Ang]:                  [ -0.000000,  -0.000000,  -0.163344]
    |<r_e - r_h>| [Ang]:            1.285151
    Hole size [Ang]:                1.659314
      Cartesian components [Ang]: [  0.764194,   0.836428,   1.212320]
    Electron size [Ang]:            2.417902
      Cartesian components [Ang]: [  1.201546,   0.962941,   1.864210]

  Transition density matrix analysis:
  -----------------------------------
  
  CT numbers (Mulliken)
    omega =     0.8728
    <Phe> =    -0.0046
  
  Exciton analysis of the transition density matrix
    Trans. dipole moment [D]:             0.197144
      Cartesian components [D]:         [  0.000000,  -0.197144,   0.000000]
    <r_h> [Ang]:                        [  0.000000,  -0.000000,  -1.609403]
    <r_e> [Ang]:                        [ -0.000000,  -0.000000,   0.343993]
    |<r_e - r_h>| [Ang]:                  1.953396
    Hole size [Ang]:                      1.248761
      Cartesian components [Ang]:       [  0.514517,   0.801835,   0.807302]
    Electron size [Ang]:                  2.538275
      Cartesian components [Ang]:       [  1.332694,   1.060297,   1.882162]
    RMS electron-hole separation [Ang]:   3.412517
      Cartesian components [Ang]:       [  1.425819,   1.328808,   2.801175]
    Covariance(r_h, r_e) [Ang^2]:         0.086362
    Correlation coefficient:              0.027246
    Center-of-mass size [Ang]:            1.429595
      Cartesian components [Ang]:       [  0.715654,   0.664945,   1.043757]

  Decomposition into state-averaged NTOs
    H- 0 -> L+ 7:  0.6414 ( 82.3%)
    H- 4 -> L+ 3:  0.1181 (  2.8%)
                   omega =  87.3%
  ----------------------------------------------------------------------------


--------------------------------------------------------------------------------
  Time of ADC calculation:  CPU 229.88 s  wall 62.10 s
================================================================================
 
 --------------------------------------------------------------
             Orbital Energies (a.u.) and Symmetries
 --------------------------------------------------------------
 
 Alpha MOs, Restricted
 -- Occupied --                  
-20.213 -11.049 -11.047  -0.930  -0.854  -0.598  -0.473  -0.384
  1 A1    2 A1    1 B1    3 A1    4 A1    2 B1    5 A1    6 A1                 
 -0.328  -0.271  -0.194  -0.130  -0.128
  3 B1    7 A1    1 B2    4 B1    2 B2                                         
 -- Virtual --                   
  0.210   0.222   0.251   0.252   0.254   0.288   0.304   0.341
  8 A1    5 B1    1 A2    9 A1    3 B2    6 B1   10 A1   11 A1                 
  0.352   0.369   0.444   0.464   0.471   0.504   0.525   0.547
  7 B1    2 A2    4 B2    8 B1   12 A1   13 A1    9 B1   10 B1                 
  0.565   0.577   0.595   0.625   0.636   0.678   0.721   0.725
 14 A1   15 A1    5 B2   16 A1   11 B1    3 A2   12 B1   17 A1                 
  0.803   1.002   1.043   1.111   1.145   1.200   1.221   1.267
 13 B1   18 A1   19 A1   14 B1   20 A1    6 B2   15 B1   21 A1                 
  1.291   1.318   1.322   1.342   1.351   1.367   1.369   1.405
  4 A2   22 A1   16 B1   23 A1   17 B1    7 B2   24 A1    8 B2                 
  1.463   1.484   1.495   1.575   1.670   1.688   1.719   1.836
  5 A2    6 A2    9 B2   18 B1   19 B1   25 A1   10 B2   20 B1                 
  1.883   2.017   2.046   2.073   2.133   2.143   2.197   2.213
 26 A1   21 B1   27 A1    7 A2   11 B2   28 A1   22 B1   12 B2                 
  2.283   2.363   2.372   2.396   2.436   2.529   2.585   2.604
 29 A1   30 A1    8 A2   13 B2   23 B1   24 B1   31 A1    9 A2                 
  2.749   2.773   2.857   3.057   3.105   3.150   3.507   3.585
 25 B1   32 A1   26 B1   33 A1   34 A1   35 A1   27 B1   28 B1                 
  3.924   3.946   3.973   4.089   4.547
 14 B2   10 A2   36 A1   29 B1   37 A1                                         
 
 Beta MOs, Restricted
 -- Occupied --                  
-20.213 -11.049 -11.047  -0.930  -0.854  -0.598  -0.473  -0.384
  1 A1    2 A1    1 B1    3 A1    4 A1    2 B1    5 A1    6 A1                 
 -0.328  -0.271  -0.194  -0.130  -0.128
  3 B1    7 A1    1 B2    4 B1    2 B2                                         
 -- Virtual --                   
  0.210   0.222   0.251   0.252   0.254   0.288   0.304   0.341
  8 A1    5 B1    1 A2    9 A1    3 B2    6 B1   10 A1   11 A1                 
  0.352   0.369   0.444   0.464   0.471   0.504   0.525   0.547
  7 B1    2 A2    4 B2    8 B1   12 A1   13 A1    9 B1   10 B1                 
  0.565   0.577   0.595   0.625   0.636   0.678   0.721   0.725
 14 A1   15 A1    5 B2   16 A1   11 B1    3 A2   12 B1   17 A1                 
  0.803   1.002   1.043   1.111   1.145   1.200   1.221   1.267
 13 B1   18 A1   19 A1   14 B1   20 A1    6 B2   15 B1   21 A1                 
  1.291   1.318   1.322   1.342   1.351   1.367   1.369   1.405
  4 A2   22 A1   16 B1   23 A1   17 B1    7 B2   24 A1    8 B2                 
  1.463   1.484   1.495   1.575   1.670   1.688   1.719   1.836
  5 A2    6 A2    9 B2   18 B1   19 B1   25 A1   10 B2   20 B1                 
  1.883   2.017   2.046   2.073   2.133   2.143   2.197   2.213
 26 A1   21 B1   27 A1    7 A2   11 B2   28 A1   22 B1   12 B2                 
  2.283   2.363   2.372   2.396   2.436   2.529   2.585   2.604
 29 A1   30 A1    8 A2   13 B2   23 B1   24 B1   31 A1    9 A2                 
  2.749   2.773   2.857   3.057   3.105   3.150   3.507   3.585
 25 B1   32 A1   26 B1   33 A1   34 A1   35 A1   27 B1   28 B1                 
  3.924   3.946   3.973   4.089   4.547
 14 B2   10 A2   36 A1   29 B1   37 A1                                         
 --------------------------------------------------------------
 
          Ground-State Mulliken Net Atomic Charges

     Atom                 Charge (a.u.)
  ----------------------------------------
      1 C                    -0.268851
      2 C                    -0.268851
      3 H                     0.221357
      4 H                     0.221357
      5 H                     0.051786
      6 H                     0.051786
      7 O                    -1.072750
      8 H                     0.064166
  ----------------------------------------
  Sum of atomic charges =    -1.000000

 -----------------------------------------------------------------
                    Cartesian Multipole Moments
 -----------------------------------------------------------------
    Charge (ESU x 10^10)
                -4.8032
    Dipole Moment (Debye)
         X      -0.0000      Y       0.0000      Z       5.2819
       Tot       5.2819
    Quadrupole Moments (Debye-Ang)
        XX     -23.6011     XY       0.0000     YY     -26.5168
        XZ      -0.0000     YZ      -0.0000     ZZ     -32.8567
    Octopole Moments (Debye-Ang^2)
       XXX      -0.0000    XXY       0.0000    XYY       0.0000
       YYY       0.0000    XXZ       1.0486    XYZ       0.0000
       YYZ      -0.1723    XZZ      -0.0000    YZZ       0.0000
       ZZZ       6.4037
    Hexadecapole Moments (Debye-Ang^3)
      XXXX     -87.0128   XXXY       0.0000   XXYY     -21.6835
      XYYY       0.0000   YYYY     -39.7308   XXXZ      -0.0000
      XXYZ      -0.0000   XYYZ       0.0000   YYYZ      -0.0000
      XXZZ     -70.0469   XYZZ       0.0000   YYZZ     -65.3439
      XZZZ      -0.0000   YZZZ      -0.0000   ZZZZ    -292.0557
 -----------------------------------------------------------------
 Total job time:  170.78s(wall), 277.10s(cpu) 
 Wed Mar  2 16:01:39 2022

        *************************************************************
        *                                                           *
        *  Thank you very much for using Q-Chem.  Have a nice day.  *
        *                                                           *
        *************************************************************


