/src/tsommerfeld/qchem/exe/qcprog.exe .input1.357576.21822.qcin.1 /src/jdavis/qchem.scratch/qchem21822/

                  Welcome to Q-Chem
     A Quantum Leap Into The Future Of Chemistry


 Q-Chem 5.4 (devel), Q-Chem, Inc., Pleasanton, CA (2021)

 E. Epifanovsky,  A. T. B. Gilbert,  Xintian Feng,  Joonho Lee,  Yuezhi Mao,  
 N. Mardirossian,  P. Pokhilko,  A. White,  M. Wormit,  M. P. Coons,  
 A. L. Dempwolff,  Zhengting Gan,  D. Hait,  P. R. Horn,  L. D. Jacobson,  
 I. Kaliman,  J. Kussmann,  A. W. Lange,  Ka Un Lao,  D. S. Levine,  Jie Liu,  
 S. C. McKenzie,  A. F. Morrison,  K. Nanda,  F. Plasser,  D. R. Rehn,  
 M. L. Vidal,  Zhi-Qiang You,  Ying Zhu,  B. Alam,  B. Albrecht,  
 A. Aldossary,  E. Alguire,  J. H. Andersen,  D. Barton,  K. Begam,  A. Behn,  
 Y. A. Bernard,  E. J. Berquist,  H. Burton,  A. Carreras,  K. Carter-Fenk,  
 R. Chakraborty,  A. D. Chien,  K. D. Closser,  V. Cofer-Shabica,  
 S. Dasgupta,  Jia Deng,  M. de Wergifosse,  M. Diedenhofen,  Hainam Do,  
 S. Ehlert,  Po-Tung Fang,  S. Fatehi,  Qingguo Feng,  T. Friedhoff,  
 J. Gayvert,  Qinghui Ge,  G. Gidofalvi,  M. Goldey,  J. Gomes,  
 C. Gonzalez-Espinoza,  S. Gulania,  A. Gunina,  M. W. D. Hanson-Heine,  
 P. H. P. Harbach,  A. W. Hauser,  M. F. Herbst,  M. Hernandez Vera,  
 M. Hodecker,  Z. C. Holden,  S. Houck,  Xunkun Huang,  Kerwin Hui,  
 B. C. Huynh,  M. Ivanov,  Hyunjun Ji,  Hanjie Jiang,  B. Kaduk,  S. Kaehler,  
 K. Khistyaev,  Jaehoon Kim,  P. Klunzinger,  Z. Koczor-Benda,  
 Joong Hoon Koh,  D. Kosenkov,  L. Koulias,  T. Kowalczyk,  C. M. Krauter,  
 K. Kue,  A. Kunitsa,  T. Kus,  A. Landau,  K. V. Lawler,  D. Lefrancois,  
 S. Lehtola,  Rain Li,  Yi-Pei Li,  Jiashu Liang,  M. Liebenthal,  
 Hung-Hsuan Lin,  You-Sheng Lin,  Fenglai Liu,  Kuan-Yu Liu,  
 M. Loipersberger,  A. Luenser,  A. Manjanath,  P. Manohar,  E. Mansoor,  
 S. F. Manzer,  Shan-Ping Mao,  A. V. Marenich,  T. Markovich,  S. Mason,  
 S. A. Maurer,  P. F. McLaughlin,  M. F. S. J. Menger,  J.-M. Mewes,  
 S. A. Mewes,  P. Morgante,  J. W. Mullinax,  K. J. Oosterbaan,  G. Paran,  
 Alexander C. Paul,  Suranjan K. Paul,  F. Pavosevic,  Zheng Pei,  S. Prager,  
 E. I. Proynov,  E. Ramos,  B. Rana,  A. E. Rask,  A. Rettig,  R. M. Richard,  
 F. Rob,  E. Rossomme,  T. Scheele,  M. Scheurer,  M. Schneider,  
 N. Sergueev,  S. M. Sharada,  W. Skomorowski,  D. W. Small,  C. J. Stein,  
 Yu-Chuan Su,  E. J. Sundstrom,  Zhen Tao,  J. Thirman,  T. Tsuchimochi,  
 N. M. Tubman,  S. P. Veccham,  O. Vydrov,  J. Wenzel,  J. Witte,  A. Yamada,  
 Kun Yao,  S. Yeganeh,  S. R. Yost,  A. Zech,  Igor Ying Zhang,  Xing Zhang,  
 Yu Zhang,  D. Zuev,  A. Aspuru-Guzik,  A. T. Bell,  N. A. Besley,  
 K. B. Bravaya,  B. R. Brooks,  D. Casanova,  Jeng-Da Chai,  S. Coriani,  
 C. J. Cramer,  A. E. DePrince, III,  R. A. DiStasio Jr.,  A. Dreuw,  
 B. D. Dunietz,  T. R. Furlani,  W. A. Goddard III,  S. Grimme,  
 S. Hammes-Schiffer,  T. Head-Gordon,  W. J. Hehre,  Chao-Ping Hsu,  
 T.-C. Jagau,  Yousung Jung,  A. Klamt,  Jing Kong,  D. S. Lambrecht,  
 WanZhen Liang,  N. J. Mayhall,  C. W. McCurdy,  J. B. Neaton,  
 C. Ochsenfeld,  J. A. Parkhill,  R. Peverati,  V. A. Rassolov,  Yihan Shao,  
 L. V. Slipchenko,  T. Stauch,  R. P. Steele,  J. E. Subotnik,  
 A. J. W. Thom,  A. Tkatchenko,  D. G. Truhlar,  T. Van Voorhis,  
 T. A. Wesolowski,  K. B. Whaley,  H. L. Woodcock III,  P. M. Zimmerman,  
 S. Faraji,  P. M. W. Gill,  M. Head-Gordon,  J. M. Herbert,  A. I. Krylov

 Additional authors for Version 5.4.1: 
 S. Kotaru,  Shaozhi Li,  Xiangyuan Li,  F. Matz,  A. Molle,  Haisheng Ren,  
 Yingli Su,  Hung-Yi Tsai,  C. Utku,  Fang Wang

 Contributors to earlier versions of Q-Chem not listed above: 
 R. D. Adamson,  B. Austin,  R. Baer,  J. Baker,  G. J. O. Beran,  
 K. Brandhorst,  S. T. Brown,  E. F. C. Byrd,  A. K. Chakraborty,  
 G. K. L. Chan,  Chun-Min Chang,  Yunqing Chen,  C.-L. Cheng,  
 Siu Hung Chien,  D. M. Chipman,  D. L. Crittenden,  H. Dachsel,  
 R. J. Doerksen,  A. D. Dutoi,  R. G. Edgar,  J. Fosso-Tande,  
 L. Fusti-Molnar,  D. Ghosh,  A. Ghysels,  A. Golubeva-Zadorozhnaya,  
 J. Gonthier,  M. S. Gordon,  S. R. Gwaltney,  G. Hawkins,  J. E. Herr,  
 A. Heyden,  S. Hirata,  E. G. Hohenstein,  G. Kedziora,  F. J. Keil,  
 C. Kelley,  Jihan Kim,  R. A. King,  R. Z. Khaliullin,  P. P. Korambath,  
 W. Kurlancheek,  A. Laurent,  A. M. Lee,  M. S. Lee,  S. V. Levchenko,  
 Ching Yeh Lin,  D. Liotard,  E. Livshits,  R. C. Lochan,  I. Lotan,  
 L. A. Martinez-Martinez,  P. E. Maslen,  N. Nair,  D. P. O'Neill,  
 D. Neuhauser,  E. Neuscamman,  C. M. Oana,  R. Olivares-Amaya,  R. Olson,  
 T. M. Perrine,  B. Peters,  P. A. Pieniazek,  A. Prociuk,  Y. M. Rhee,  
 J. Ritchie,  M. A. Rohrdanz,  E. Rosta,  N. J. Russ,  H. F. Schaefer III,  
 M. W. Schmidt,  N. E. Schultz,  S. Sharma,  N. Shenvi,  C. D. Sherrill,  
 A. C. Simmonett,  A. Sodt,  T. Stein,  D. Stuck,  K. S. Thanthiriwatte,  
 V. Vanovschi,  L. Vogt,  Tao Wang,  A. Warshel,  M. A. Watson,  
 C. F. Williams,  Q. Wu,  X. Xu,  Jun Yang,  W. Zhang,  Yan Zhao

 Please cite Q-Chem as follows:
 Y. Shao et al., Mol. Phys. 113, 184-215 (2015)
 DOI: 10.1080/00268976.2014.952696

 Q-Chem 5.4.1 for Intel X86 EM64T Linux

 Parts of Q-Chem use Armadillo 9.900.5 (Nocturnal Misbehaviour).
 http://arma.sourceforge.net/

 Q-Chem begins on Wed Mar  2 14:53:25 2022  

 Host: node01
0

     Scratch files written to /src/jdavis/qchem.scratch/qchem21822//
 Processing $rem in /src/tsommerfeld/qchem/config/preferences:
 Processing $rem in /home/jdavis/.qchemrc:

 Checking the input file for inconsistencies... 	...done.

--------------------------------------------------------------
User input:
--------------------------------------------------------------
$molecule
-1 1
C        -0.6645000000    0.0000000000    1.1619088658
C         0.6645000000    0.0000000000    1.1619088658
H        -1.1590800000    0.0000000000    0.1995598658
H         1.1590800000    0.0000000000    0.1995598658
H        -1.1590800000    0.0000000000    2.1242568658
H         1.1590800000    0.0000000000    2.1242568658
O         0.0000000000    0.0000000000   -1.5841414040
H         0.0000000000    0.0000000000   -2.5471307683
$end
$rem
   METHOD adc(2)
   BASIS gen
   PURECART 11
   EE_STATES [0,0,0,10]
   scf_convergence 8
   ADC_DAVIDSON_MAXITER 120
   ADC_DAVIDSON_MAXSUBSPACE 200
   adc_nguess_singles 100
   THRESH 14
   S2THRESH 14
   adc_davidson_conv 5
   adc_davidson_thresh 14
   THREADS 10
   MEM_TOTAL 95000
   STATE_ANALYSIS TRUE
$end
$basis
C 1
S   9   1.00
      6.665000D+03           6.920000D-04
      1.000000D+03           5.329000D-03
      2.280000D+02           2.707700D-02
      6.471000D+01           1.017180D-01
      2.106000D+01           2.747400D-01
      7.495000D+00           4.485640D-01
      2.797000D+00           2.850740D-01
      5.215000D-01           1.520400D-02
      1.596000D-01          -3.191000D-03
S   9   1.00
      6.665000D+03          -1.460000D-04
      1.000000D+03          -1.154000D-03
      2.280000D+02          -5.725000D-03
      6.471000D+01          -2.331200D-02
      2.106000D+01          -6.395500D-02
      7.495000D+00          -1.499810D-01
      2.797000D+00          -1.272620D-01
      5.215000D-01           5.445290D-01
      1.596000D-01           5.804960D-01
S   1   1.00
      1.596000D-01           1.000000D+00
S   1   1.00
      0.0469000              1.0000000
P   4   1.00
      9.439000D+00           3.810900D-02
      2.002000D+00           2.094800D-01
      5.456000D-01           5.085570D-01
      1.517000D-01           4.688420D-01
P   1   1.00
      1.517000D-01           1.000000D+00
P   1   1.00
      0.0588412      1.0000000
P   1   1.00
      0.0294206      1.0000000
D   1   1.00
      5.500000D-01           1.0000000
****
C 2
S   9   1.00
      6.665000D+03           6.920000D-04
      1.000000D+03           5.329000D-03
      2.280000D+02           2.707700D-02
      6.471000D+01           1.017180D-01
      2.106000D+01           2.747400D-01
      7.495000D+00           4.485640D-01
      2.797000D+00           2.850740D-01
      5.215000D-01           1.520400D-02
      1.596000D-01          -3.191000D-03
S   9   1.00
      6.665000D+03          -1.460000D-04
      1.000000D+03          -1.154000D-03
      2.280000D+02          -5.725000D-03
      6.471000D+01          -2.331200D-02
      2.106000D+01          -6.395500D-02
      7.495000D+00          -1.499810D-01
      2.797000D+00          -1.272620D-01
      5.215000D-01           5.445290D-01
      1.596000D-01           5.804960D-01
S   1   1.00
      1.596000D-01           1.000000D+00
S   1   1.00
      0.0469000              1.0000000
P   4   1.00
      9.439000D+00           3.810900D-02
      2.002000D+00           2.094800D-01
      5.456000D-01           5.085570D-01
      1.517000D-01           4.688420D-01
P   1   1.00
      1.517000D-01           1.000000D+00
P   1   1.00
      0.0588412      1.0000000
P   1   1.00
      0.0294206      1.0000000
D   1   1.00
      5.500000D-01           1.0000000
****
H 3
cc-pVDZ
****
H 4
cc-pVDZ
****
H 5
cc-pVDZ
****
H 6
cc-pVDZ
****
O 7
aug-cc-pVDZ
****
H 8
cc-pVDZ
****
$end
--------------------------------------------------------------
 ----------------------------------------------------------------
             Standard Nuclear Orientation (Angstroms)
    I     Atom           X                Y                Z
 ----------------------------------------------------------------
    1      C      -0.6645000000    -0.0000000000     1.0270977517
    2      C       0.6645000000     0.0000000000     1.0270977517
    3      H      -1.1590800000    -0.0000000000     0.0647487517
    4      H       1.1590800000     0.0000000000     0.0647487517
    5      H      -1.1590800000    -0.0000000000     1.9894457517
    6      H       1.1590800000     0.0000000000     1.9894457517
    7      O       0.0000000000    -0.0000000000    -1.7189525181
    8      H       0.0000000000    -0.0000000000    -2.6819418824
 ----------------------------------------------------------------
 Molecular Point Group                 C2v   NOp =  4
 Largest Abelian Subgroup              C2v   NOp =  4
 Nuclear Repulsion Energy =          64.38561153 hartrees
 There are       13 alpha and       13 beta electrons
 Requested basis set is non-standard
 There are 42 shells and 90 basis functions
 Total memory of 95000 MB is distributed as follows: 
   MEM_STATIC is set to 192 MB
   QALLOC/CCMAN JOB total memory use is  94808 MB
 Warning: actual memory use might exceed 95000 MB

 Total QAlloc Memory Limit  95000 MB
 Mega-Array Size       188 MB
 MEM_STATIC part       192 MB

                       Distance Matrix (Angstroms)
             C (  1)   C (  2)   H (  3)   H (  4)   H (  5)   H (  6)
   C (  2)  1.329000
   H (  3)  1.082000  2.061931
   H (  4)  2.061931  1.082000  2.318160
   H (  5)  1.082000  2.061931  1.924697  3.013026
   H (  6)  2.061931  1.082000  3.013026  1.924697  2.318160
   O (  7)  2.825306  2.825306  2.127218  2.127218  3.885316  3.885316
   H (  8)  3.768094  3.768094  2.981237  2.981237  4.813037  4.813037
             O (  7)
   H (  8)  0.962989
 
 A cutoff of  1.0D-14 yielded    903 shell pairs
 There are      4183 function pairs (      4573 Cartesian)
 Smallest overlap matrix eigenvalue = 1.77E-04

 Scale SEOQF with 1.000000e-01/1.000000e-01/1.000000e-01

 Standard Electronic Orientation quadrupole field applied
 Nucleus-field energy     =    -0.0000000051 hartrees
 ================ Generating on-the-fly SAD Guess ================
Attempting to make child job directory: /src/jdavis/qchem.scratch/qchem21822//Frg1/
Attempting to make child job directory: /src/jdavis/qchem.scratch/qchem21822//Frg2/
Attempting to make child job directory: /src/jdavis/qchem.scratch/qchem21822//Frg3/
Creating input file /src/jdavis/qchem.scratch/qchem21822/Frg1.input
using default PutDataFrgm: nothing
calling putenv with: QCSCRATCH=/src/jdavis/qchem.scratch/qchem21822/ 
Spawning Job For Fragment 0
Done Job For Fragment 0
calling putenv with: QCSCRATCH=/src/jdavis/qchem.scratch 
calling putenv with: QCTHREADS=1 
Creating input file /src/jdavis/qchem.scratch/qchem21822/Frg2.input
using default PutDataFrgm: nothing
calling putenv with: QCSCRATCH=/src/jdavis/qchem.scratch/qchem21822/ 
Spawning Job For Fragment 1
Done Job For Fragment 1
calling putenv with: QCSCRATCH=/src/jdavis/qchem.scratch 
calling putenv with: QCTHREADS=1 
Creating input file /src/jdavis/qchem.scratch/qchem21822/Frg3.input
using default PutDataFrgm: nothing
calling putenv with: QCSCRATCH=/src/jdavis/qchem.scratch/qchem21822/ 
Spawning Job For Fragment 2
Done Job For Fragment 2
calling putenv with: QCSCRATCH=/src/jdavis/qchem.scratch 
calling putenv with: QCTHREADS=1 
 Time for running child jobs:  CPU 1.80 s  wall 80.44 s
 ============= Method Specific SAD Guess Constructed =============
 Guess from on-the-fly superposition of atomic densities
 Warning: Energy on first SCF cycle will be non-variational
 A restricted Hartree-Fock SCF calculation will be
 performed using Pulay DIIS extrapolation
 SCF converges when DIIS error is below 1.0E-08
 using 10 threads for integral computing
 -------------------------------------------------------
 OpenMP Integral computing Module                
 Release: version 1.0, May 2013, Q-Chem Inc. Pittsburgh 
 -------------------------------------------------------
 ---------------------------------------
  Cycle       Energy         DIIS Error
 ---------------------------------------
    1    -153.5739451978      5.98E-02
    2    -153.2897387972      1.22E-02
    3    -153.3555296873      1.03E-02
    4    -153.4401871717      7.60E-04
    5    -153.4411159373      2.12E-04
    6    -153.4411894330      4.62E-05
    7    -153.4411947834      1.22E-05
    8    -153.4411953502      3.65E-06
    9    -153.4411953989      7.41E-07
   10    -153.4411954006      1.29E-07
   11    -153.4411954006      3.80E-08
   12    -153.4411954006      1.19E-08
   13    -153.4411954006      2.59E-09 Convergence criterion met
 ---------------------------------------
 SCF time:  CPU 15.17 s  wall 1.53 s
 SCF   energy in the final basis set = -153.44119540
 Total energy in the final basis set = -153.44119540
================================================================================
|                                                                              |
|                                 A D C  M A N                                 |
|                                                                              |
 ------------------------------------------------------------------------------ 
|                                                                              |
| Components:                                                                  |
|                                                                              |
| - libvmm - 1.3-trunk                                                         |
|   Authors:                                                                   |
|   Evgeny Epifanovsky, Ilya Kaliman                                           |
|                                                                              |
| - libtensor - 2.5-trunk                                                      |
|   Authors:                                                                   |
|   Evgeny Epifanovsky, Michael Wormit, Dmitry Zuev, Sam Manzer,               |
|   Ilya Kaliman                                                               |
|                                                                              |
| - libwfa - 1.1-trunk                                                         |
|   Authors:                                                                   |
|   Felix Plasser, Stefanie Mewes (Baeppler), Benjamin Thomitzni,              |
|   Michael Wormit, Feng Chen, Anna I. Krylov, Pavel Pokhilko                  |
|                                                                              |
| - libadc - 1.1-trunk                                                         |
|   Authors:                                                                   |
|   Michael Wormit, Adrian L. Dempwolff, Philipp H. P. Harbach,                |
|   Caroline Krauter, Dirk Rehn, Matthias Schneider, Jan Wenzel                |
|                                                                              |
| - adcman - 2.6-trunk                                                         |
|   Authors:                                                                   |
|   Michael Wormit, Adrian L. Dempwolff, Philipp H. P. Harbach,                |
|   Caroline Krauter, Daniel Lefrancois, Jan-Michael Mewes, Dirk Rehn,         |
|   Matthias Schneider, Jan Wenzel, Andreas Dreuw                              |
|                                                                              |
| Authors of earlier versions of ADCMAN:                                       |
| Andreas Dreuw, Jan Hendrik Starcke, Dirk Rehn, Michael Wormit                |
|                                                                              |
================================================================================

 
 Alpha MOs, Restricted
 -- Occupied --                  
-20.213 -11.049 -11.047  -0.930  -0.854  -0.598  -0.473  -0.384
  1 A1    2 A1    1 B1    3 A1    4 A1    2 B1    5 A1    6 A1                 
 -0.328  -0.271  -0.194  -0.130  -0.129
  3 B1    7 A1    1 B2    4 B1    2 B2                                         
 -- Virtual --                   
  0.159   0.168   0.185   0.188   0.193   0.203   0.276   0.315
  5 B1    8 A1    3 B2    9 A1    1 A2    6 B1   10 A1    2 A2                 
  0.325   0.325   0.380   0.402   0.413   0.418   0.418   0.456
  7 B1   11 A1   12 A1    8 B1    4 B2   13 A1    9 B1    5 B2                 
  0.485   0.504   0.515   0.542   0.554   0.577   0.689   0.711
 10 B1    3 A2   14 A1   15 A1   11 B1   16 A1   17 A1   12 B1                 
  0.766   0.944   1.037   1.056   1.089   1.123   1.153   1.206
 13 B1   18 A1   19 A1   20 A1   21 A1   14 B1    6 B2    4 A2                 
  1.207   1.227   1.227   1.241   1.291   1.328   1.332   1.340
  7 B2   15 B1   22 A1   16 B1    5 A2   23 A1   17 B1   24 A1                 
  1.370   1.465   1.469   1.483   1.581   1.650   1.705   1.719
  8 B2   18 B1    9 B2    6 A2   19 B1   25 A1   20 B1   10 B2                 
  1.865   1.927   2.009   2.052   2.125   2.128   2.151   2.212
 26 A1   21 B1   27 A1    7 A2   28 A1   11 B2   22 B1   12 B2                 
  2.228   2.316   2.362   2.393   2.435   2.521   2.567   2.604
 29 A1   30 A1    8 A2   13 B2   23 B1   24 B1   31 A1    9 A2                 
  2.763   2.777   2.851   3.018   3.036   3.104   3.441   3.561
 32 A1   25 B1   26 B1   33 A1   34 A1   35 A1   27 B1   28 B1                 
  3.922   3.946   3.971   4.090   4.543
 14 B2   10 A2   36 A1   29 B1   37 A1                                         
 
 Beta MOs, Restricted
 -- Occupied --                  
-20.213 -11.049 -11.047  -0.930  -0.854  -0.598  -0.473  -0.384
  1 A1    2 A1    1 B1    3 A1    4 A1    2 B1    5 A1    6 A1                 
 -0.328  -0.271  -0.194  -0.130  -0.129
  3 B1    7 A1    1 B2    4 B1    2 B2                                         
 -- Virtual --                   
  0.159   0.168   0.185   0.188   0.193   0.203   0.276   0.315
  5 B1    8 A1    3 B2    9 A1    1 A2    6 B1   10 A1    2 A2                 
  0.325   0.325   0.380   0.402   0.413   0.418   0.418   0.456
  7 B1   11 A1   12 A1    8 B1    4 B2   13 A1    9 B1    5 B2                 
  0.485   0.504   0.515   0.542   0.554   0.577   0.689   0.711
 10 B1    3 A2   14 A1   15 A1   11 B1   16 A1   17 A1   12 B1                 
  0.766   0.944   1.037   1.056   1.089   1.123   1.153   1.206
 13 B1   18 A1   19 A1   20 A1   21 A1   14 B1    6 B2    4 A2                 
  1.207   1.227   1.227   1.241   1.291   1.328   1.332   1.340
  7 B2   15 B1   22 A1   16 B1    5 A2   23 A1   17 B1   24 A1                 
  1.370   1.465   1.469   1.483   1.581   1.650   1.705   1.719
  8 B2   18 B1    9 B2    6 A2   19 B1   25 A1   20 B1   10 B2                 
  1.865   1.927   2.009   2.052   2.125   2.128   2.151   2.212
 26 A1   21 B1   27 A1    7 A2   28 A1   11 B2   22 B1   12 B2                 
  2.228   2.316   2.362   2.393   2.435   2.521   2.567   2.604
 29 A1   30 A1    8 A2   13 B2   23 B1   24 B1   31 A1    9 A2                 
  2.763   2.777   2.851   3.018   3.036   3.104   3.441   3.561
 32 A1   25 B1   26 B1   33 A1   34 A1   35 A1   27 B1   28 B1                 
  3.922   3.946   3.971   4.090   4.543
 14 B2   10 A2   36 A1   29 B1   37 A1                                         

--------------------------------------------------------------------------------
                                   HF Summary                                   
--------------------------------------------------------------------------------
  Energy:                                                 -153.4411954006 a.u.
  Dip. moment [a.u.]:                  [  -0.000000,   -0.000000,    2.080764]
  Total dipole [Debye]:                                               5.288776
  <r^2> [a.u.]:                        [  55.708955,   19.698958,  208.061377]
  Total <r^2> [a.u.]:                                               283.469289
--------------------------------------------------------------------------------

--------------------------------------------------------------------------------
                                 MP(2) Summary                                  
--------------------------------------------------------------------------------
  MP energy contribution:                                   -0.5285530963 a.u.
  Total energy:                                           -153.9697484970 a.u.
  Dip. moment [a.u.]:                  [  -0.000000,   -0.000000,    2.149956]
  Total dipole [Debye]:                                               5.464643
  <r^2> [a.u.]:                        [  56.690758,   20.378073,  209.329210]
  Total <r^2> [a.u.]:                                               286.398041

  Density matrix analysis:
  ------------------------
  NOs
    Occupation of frontier NOs:
       0.0447   1.9356
    Number of electrons: 26.000000
    Number of unpaired electrons: n_u =  0.71545, n_u,nl =  0.08542
    NO participation ratio (PR_NO): 23.009849
  
  
  Mulliken Population Analysis
  Atom      Charge (e)              h+              e-           Del q
  --------------------------------------------------------------------
   1 C       -0.196281        0.093988       -0.095996       -0.002008
   2 C       -0.196281        0.093988       -0.095996       -0.002008
   3 H        0.185567        0.017422       -0.013449        0.003973
   4 H        0.185567        0.017422       -0.013449        0.003973
   5 H        0.021152        0.018460       -0.011932        0.006528
   6 H        0.021152        0.018460       -0.011932        0.006528
   7 O       -1.073192        0.278069       -0.278364       -0.000295
   8 H        0.052316        0.015367       -0.032058       -0.016691
  --------------------------------------------------------------------
  Sum:       -1.000000        0.553175       -0.553175       -0.000000
  
  Multipole moment analysis of the density matrix
    Molecular charge:                      -1.000000
    Number of electrons:                   26.000000
      Center of electronic charge [Ang]: [  0.000000,   0.000000,  -0.043758]
    Total nuclear charge:                  25.000000
      Center of nuclear charge [Ang]:    [  0.000000,   0.000000,  -0.000000]
    Dipole moment [D]:                     5.464642
      Cartesian components [D]:          [ -0.000000,  -0.000000,   5.464642]
    RMS size of the density [Ang]:         1.755758
      Cartesian components [Ang]:        [  0.781395,   0.468485,   1.500876]
  
  Exciton analysis of the difference density matrix
    <r_h> [Ang]:                  [  0.000000,  -0.000000,  -0.479103]
    <r_e> [Ang]:                  [  0.000000,   0.000000,  -0.545293]
    |<r_e - r_h>| [Ang]:            0.066190
    Hole size [Ang]:                1.947440
      Cartesian components [Ang]: [  0.872523,   0.735478,   1.578068]
    Electron size [Ang]:            2.281953
      Cartesian components [Ang]: [  1.121742,   0.940590,   1.750513]
--------------------------------------------------------------------------------
  Starting Davidson for singlet states of irrep B2 ... 
--------------------------------------------------------------------------------
   It NVec Conv  Avg. Norm  Max. Norm  Conv. states           Remark
--------------------------------------------------------------------------------
       100    0  1.531e-01  5.816e-01  0.2607 n n n n n n n n Guess.
    1  110    0  1.660e-02  1.060e-01  0.0899 n n n n n n n n 
    2  120    0  3.478e-03  2.515e-02  0.0886 n n n n n n n n 
    3  130    0  5.206e-03  5.183e-02  0.0885 n n n n n n n n 
    4  140    0  1.981e-03  1.977e-02  0.0885 n n n n n n n n 
    5  150    2  5.001e-04  4.994e-03  0.0885 y y n n n n n n 
    6  160    8  6.217e-05  6.209e-04  0.0885 y y y y y y y y 
    7  170    9  4.835e-06  4.827e-05  0.0885 y y y y y y y y 
    8  180   10  6.659e-07  6.651e-06  0.0885 y y y y y y y y Converged.
--------------------------------------------------------------------------------
  Davidson Summary: 
 ------------------------------------------------------------
  State  0: excitation energy =   0.0885 a.u.   (converged)
  State  1: excitation energy =   0.0988 a.u.   (converged)
  State  2: excitation energy =   0.1066 a.u.   (converged)
  State  3: excitation energy =   0.1354 a.u.   (converged)
  State  4: excitation energy =   0.1689 a.u.   (converged)
  State  5: excitation energy =   0.1765 a.u.   (converged)
  State  6: excitation energy =   0.2137 a.u.   (converged)
  State  7: excitation energy =   0.2480 a.u.   (converged)
  State  8: excitation energy =   0.2509 a.u.   (converged)
  State  9: excitation energy =   0.2608 a.u.   (converged)
 ------------------------------------------------------------


--------------------------------------------------------------------------------
                   State-averaged natural transition orbitals
--------------------------------------------------------------------------------
--------------------------------------------------------------------------------

--------------------------------------------------------------------------------
                             Excited State Summary
--------------------------------------------------------------------------------
--------------------------------------------------------------------------------

  Excited state 1 (singlet, B2)                                    [converged]
  ----------------------------------------------------------------------------
  Term symbol:  1 (1) B2                                    R^2 =  6.64256e-09

  Total energy:                                           -153.8812020002 a.u.
  Excitation energy:                                               2.409473 eV

  Osc. strength:                                                      0.013984
  Trans. dip. moment [a.u.]:           [  -0.000000,    0.486719,   -0.000000]
  <i|r^2|0> [a.u.]:                    [   0.000000,    0.000000,    0.000000]

  Dip. moment [a.u.]:                  [   0.000000,   -0.000000,   -5.684747]
  Total dipole [Debye]:                                              14.449188
  <r^2> [a.u.]:                        [  73.898373,   30.585215,  240.574902]
  Total <r^2> [a.u.]:                                               345.058490

  V1^2 = 0.8672, V2^2 = 0.1328

  Important amplitudes:
      occ i      occ j       vir a       vir b          v   
    ---------------------------------------------------------
     2 (B2) A               8 (A1) A                  0.6240
     2 (B2) A               9 (A1) A                 -0.1537
    ---------------------------------------------------------

  Density matrix analysis:
  ------------------------
  NOs
    Occupation of frontier NOs:
       0.9614   0.9972
    Number of electrons: 26.000000
    Number of unpaired electrons: n_u =  2.74912, n_u,nl =  2.11517
    NO participation ratio (PR_NO):  3.876015
  
  
  Mulliken Population Analysis
  Atom      Charge (e)              h+              e-           Del q
  --------------------------------------------------------------------
   1 C       -0.717936        0.035035       -0.556690       -0.521655
   2 C       -0.717936        0.035035       -0.556690       -0.521655
   3 H        0.134403        0.002568       -0.053732       -0.051164
   4 H        0.134403        0.002568       -0.053732       -0.051164
   5 H        0.051313        0.050890       -0.020729        0.030162
   6 H        0.051313        0.050890       -0.020729        0.030162
   7 O       -0.055071        1.405382       -0.387260        1.018122
   8 H        0.119510        0.130236       -0.063042        0.067193
  --------------------------------------------------------------------
  Sum:       -1.000000        1.712604       -1.712604        0.000000
  
  Multipole moment analysis of the density matrix
    Molecular charge:                      -1.000000
    Number of electrons:                   26.000000
      Center of electronic charge [Ang]: [ -0.000000,   0.000000,   0.115701]
    Total nuclear charge:                  25.000000
      Center of nuclear charge [Ang]:    [  0.000000,   0.000000,  -0.000000]
    Dipole moment [D]:                     14.449184
      Cartesian components [D]:          [  0.000000,  -0.000000, -14.449184]
    RMS size of the density [Ang]:         1.924320
      Cartesian components [Ang]:        [  0.892138,   0.573945,   1.605517]
  
  Exciton analysis of the difference density matrix
    <r_h> [Ang]:                  [  0.000000,   0.000000,  -1.408452]
    <r_e> [Ang]:                  [ -0.000000,  -0.000000,   1.012391]
    |<r_e - r_h>| [Ang]:            2.420843
    Hole size [Ang]:                1.823962
      Cartesian components [Ang]: [  0.844823,   0.870374,   1.362190]
    Electron size [Ang]:            3.725215
      Cartesian components [Ang]: [  1.878124,   1.557730,   2.814846]

  Transition density matrix analysis:
  -----------------------------------
  
  CT numbers (Mulliken)
    omega =     0.8517
    <Phe> =    -0.0010
  
  Exciton analysis of the transition density matrix
    Trans. dipole moment [D]:             0.618559
      Cartesian components [D]:         [ -0.000000,   0.618559,  -0.000000]
    <r_h> [Ang]:                        [  0.000000,  -0.000000,  -1.737933]
    <r_e> [Ang]:                        [ -0.000000,  -0.000000,   2.532736]
    |<r_e - r_h>| [Ang]:                  4.270669
    Hole size [Ang]:                      1.102861
      Cartesian components [Ang]:       [  0.477393,   0.822663,   0.558233]
    Electron size [Ang]:                  3.999161
      Cartesian components [Ang]:       [  2.337997,   1.949880,   2.593266]
    RMS electron-hole separation [Ang]:   5.952344
      Cartesian components [Ang]:       [  2.385977,   2.114914,   5.026395]
    Covariance(r_h, r_e) [Ang^2]:         0.008907
    Correlation coefficient:              0.002019
    Center-of-mass size [Ang]:            2.075295
      Cartesian components [Ang]:       [  1.193250,   1.058861,   1.327335]

  Decomposition into state-averaged NTOs
    H- 0 -> L+ 1: -0.5623 ( 63.2%)
    H- 0 -> L+ 0: -0.2350 ( 11.0%)
    H- 0 -> L+ 6: -0.1407 (  4.0%)
    H- 0 -> L+ 3: -0.1349 (  3.6%)
    H- 0 -> L+ 2:  0.1271 (  3.2%)
                   omega =  85.2%
  ----------------------------------------------------------------------------


  Excited state 2 (singlet, B2)                                    [converged]
  ----------------------------------------------------------------------------
  Term symbol:  2 (1) B2                                    R^2 =  6.59522e-09

  Total energy:                                           -153.8709155918 a.u.
  Excitation energy:                                               2.689380 eV

  Osc. strength:                                                      0.007744
  Trans. dip. moment [a.u.]:           [  -0.000000,    0.342837,   -0.000000]
  <i|r^2|0> [a.u.]:                    [  -0.000000,   -0.000000,   -0.000000]

  Dip. moment [a.u.]:                  [  -0.000000,   -0.000000,   -1.694031]
  Total dipole [Debye]:                                               4.305798
  <r^2> [a.u.]:                        [ 101.449712,   26.384796,  209.694475]
  Total <r^2> [a.u.]:                                               337.528984

  V1^2 = 0.8735, V2^2 = 0.1265

  Important amplitudes:
      occ i      occ j       vir a       vir b          v   
    ---------------------------------------------------------
     2 (B2) A               9 (A1) A                 -0.5886
     2 (B2) A              10 (A1) A                 -0.1953
    ---------------------------------------------------------

  Density matrix analysis:
  ------------------------
  NOs
    Occupation of frontier NOs:
       0.9651   0.9933
    Number of electrons: 26.000000
    Number of unpaired electrons: n_u =  2.75099, n_u,nl =  2.11595
    NO participation ratio (PR_NO):  3.882149
  
  
  Mulliken Population Analysis
  Atom      Charge (e)              h+              e-           Del q
  --------------------------------------------------------------------
   1 C       -0.693563        0.026197       -0.523480       -0.497283
   2 C       -0.693563        0.026197       -0.523480       -0.497283
   3 H        0.163239        0.007789       -0.030118       -0.022329
   4 H        0.163239        0.007789       -0.030118       -0.022329
   5 H        0.058180        0.030150        0.006878        0.037028
   6 H        0.058180        0.030150        0.006878        0.037028
   7 O       -0.316753        1.383603       -0.627163        0.756440
   8 H        0.261043        0.141990        0.066737        0.208727
  --------------------------------------------------------------------
  Sum:       -1.000000        1.653867       -1.653867       -0.000000
  
  Multipole moment analysis of the density matrix
    Molecular charge:                      -1.000000
    Number of electrons:                   26.000000
      Center of electronic charge [Ang]: [  0.000000,   0.000000,   0.034479]
    Total nuclear charge:                  25.000000
      Center of nuclear charge [Ang]:    [  0.000000,   0.000000,  -0.000000]
    Dipole moment [D]:                     4.305797
      Cartesian components [D]:          [ -0.000000,  -0.000000,  -4.305797]
    RMS size of the density [Ang]:         1.906334
      Cartesian components [Ang]:        [  1.045297,   0.533079,   1.502428]
  
  Exciton analysis of the difference density matrix
    <r_h> [Ang]:                  [  0.000000,   0.000000,  -1.511531]
    <r_e> [Ang]:                  [  0.000000,   0.000000,  -0.281595]
    |<r_e - r_h>| [Ang]:            1.229936
    Hole size [Ang]:                1.740406
      Cartesian components [Ang]: [  0.850689,   0.875604,   1.240426]
    Electron size [Ang]:            3.727171
      Cartesian components [Ang]: [  2.881344,   1.335562,   1.950880]

  Transition density matrix analysis:
  -----------------------------------
  
  CT numbers (Mulliken)
    omega =     0.8579
    <Phe> =    -0.0015
  
  Exciton analysis of the transition density matrix
    Trans. dipole moment [D]:             0.435702
      Cartesian components [D]:         [ -0.000000,   0.435702,  -0.000000]
    <r_h> [Ang]:                        [  0.000000,  -0.000000,  -1.742837]
    <r_e> [Ang]:                        [  0.000000,   0.000000,   0.345199]
    |<r_e - r_h>| [Ang]:                  2.088036
    Hole size [Ang]:                      1.094426
      Cartesian components [Ang]:       [  0.477851,   0.821356,   0.542955]
    Electron size [Ang]:                  4.476342
      Cartesian components [Ang]:       [  3.628823,   1.617801,   2.062039]
    RMS electron-hole separation [Ang]:   5.057646
      Cartesian components [Ang]:       [  3.659628,   1.813333,   2.983073]
    Covariance(r_h, r_e) [Ang^2]:         0.007760
    Correlation coefficient:              0.001584
    Center-of-mass size [Ang]:            2.304936
      Cartesian components [Ang]:       [  1.830336,   0.907694,   1.067096]

  Decomposition into state-averaged NTOs
    H- 0 -> L+ 0: -0.5629 ( 63.4%)
    H- 0 -> L+ 1:  0.2875 ( 16.5%)
    H- 0 -> L+ 2:  0.1551 (  4.8%)
                   omega =  85.8%
  ----------------------------------------------------------------------------


  Excited state 3 (singlet, B2)                                    [converged]
  ----------------------------------------------------------------------------
  Term symbol:  3 (1) B2                                    R^2 =  1.21023e-08

  Total energy:                                           -153.8631389195 a.u.
  Excitation energy:                                               2.900994 eV

  Osc. strength:                                                      0.003126
  Trans. dip. moment [a.u.]:           [  -0.000000,   -0.209711,    0.000000]
  <i|r^2|0> [a.u.]:                    [   0.000000,   -0.000000,    0.000000]

  Dip. moment [a.u.]:                  [   0.000000,   -0.000000,   -2.852266]
  Total dipole [Debye]:                                               7.249738
  <r^2> [a.u.]:                        [  81.697256,   45.779068,  207.174235]
  Total <r^2> [a.u.]:                                               334.650559

  V1^2 = 0.8704, V2^2 = 0.1296

  Important amplitudes:
      occ i      occ j       vir a       vir b          v   
    ---------------------------------------------------------
     4 (B1) A               1 (A2) A                 -0.6366
     4 (B1) A               2 (A2) A                 -0.1666
    ---------------------------------------------------------

  Density matrix analysis:
  ------------------------
  NOs
    Occupation of frontier NOs:
       0.9654   0.9939
    Number of electrons: 26.000000
    Number of unpaired electrons: n_u =  2.74922, n_u,nl =  2.11378
    NO participation ratio (PR_NO):  3.874912
  
  
  Mulliken Population Analysis
  Atom      Charge (e)              h+              e-           Del q
  --------------------------------------------------------------------
   1 C       -0.675552        0.038913       -0.518184       -0.479271
   2 C       -0.675552        0.038913       -0.518184       -0.479271
   3 H        0.136938        0.001594       -0.050223       -0.048629
   4 H        0.136938        0.001594       -0.050223       -0.048629
   5 H        0.046216        0.025867       -0.000802        0.025064
   6 H        0.046216        0.025867       -0.000802        0.025064
   7 O       -0.174592        1.395706       -0.497106        0.898601
   8 H        0.159387        0.130020       -0.022950        0.107070
  --------------------------------------------------------------------
  Sum:       -1.000000        1.658475       -1.658475       -0.000000
  
  Multipole moment analysis of the density matrix
    Molecular charge:                      -1.000000
    Number of electrons:                   26.000000
      Center of electronic charge [Ang]: [ -0.000000,   0.000000,   0.058052]
    Total nuclear charge:                  25.000000
      Center of nuclear charge [Ang]:    [  0.000000,   0.000000,  -0.000000]
    Dipole moment [D]:                     7.249736
      Cartesian components [D]:          [  0.000000,  -0.000000,  -7.249736]
    RMS size of the density [Ang]:         1.897611
      Cartesian components [Ang]:        [  0.938033,   0.702179,   1.492637]
  
  Exciton analysis of the difference density matrix
    <r_h> [Ang]:                  [  0.000000,   0.000000,  -1.501536]
    <r_e> [Ang]:                  [  0.000000,   0.000000,   0.094546]
    |<r_e - r_h>| [Ang]:            1.596082
    Hole size [Ang]:                1.720493
      Cartesian components [Ang]: [  0.916041,   0.763583,   1.240124]
    Electron size [Ang]:            3.654184
      Cartesian components [Ang]: [  2.249756,   2.207247,   1.849247]

  Transition density matrix analysis:
  -----------------------------------
  
  CT numbers (Mulliken)
    omega =     0.8532
    <Phe> =     0.0000
  
  Exciton analysis of the transition density matrix
    Trans. dipole moment [D]:             0.266516
      Cartesian components [D]:         [ -0.000000,  -0.266516,   0.000000]
    <r_h> [Ang]:                        [  0.000000,   0.000000,  -1.718556]
    <r_e> [Ang]:                        [ -0.000000,   0.000000,   1.024778]
    |<r_e - r_h>| [Ang]:                  2.743334
    Hole size [Ang]:                      1.146070
      Cartesian components [Ang]:       [  0.822979,   0.470618,   0.643972]
    Electron size [Ang]:                  4.275381
      Cartesian components [Ang]:       [  2.823615,   2.777349,   1.610099]
    RMS electron-hole separation [Ang]:   5.205997
      Cartesian components [Ang]:       [  2.938664,   2.816740,   3.245402]
    Covariance(r_h, r_e) [Ang^2]:         0.007921
    Correlation coefficient:              0.001617
    Center-of-mass size [Ang]:            2.214057
      Cartesian components [Ang]:       [  1.471771,   1.408570,   0.867105]

  Decomposition into state-averaged NTOs
    H- 2 -> L+ 5: -0.6295 ( 79.2%)
    H- 2 -> L+ 7:  0.1691 (  5.7%)
                   omega =  85.3%
  ----------------------------------------------------------------------------


  Excited state 4 (singlet, B2)                                    [converged]
  ----------------------------------------------------------------------------
  Term symbol:  4 (1) B2                                    R^2 =  2.00213e-08

  Total energy:                                           -153.8343968271 a.u.
  Excitation energy:                                               3.683106 eV

  Osc. strength:                                                      0.039095
  Trans. dip. moment [a.u.]:           [  -0.000000,    0.658222,    0.000000]
  <i|r^2|0> [a.u.]:                    [   0.000000,   -0.000000,   -0.000000]

  Dip. moment [a.u.]:                  [   0.000000,    0.000000,    0.757511]
  Total dipole [Debye]:                                               1.925401
  <r^2> [a.u.]:                        [  67.695528,   27.531663,  225.134465]
  Total <r^2> [a.u.]:                                               320.361657

  V1^2 = 0.8878, V2^2 = 0.1122

  Important amplitudes:
      occ i      occ j       vir a       vir b          v   
    ---------------------------------------------------------
     2 (B2) A              10 (A1) A                 -0.4870
     2 (B2) A              11 (A1) A                  0.3690
    ---------------------------------------------------------

  Density matrix analysis:
  ------------------------
  NOs
    Occupation of frontier NOs:
       0.9653   0.9943
    Number of electrons: 26.000000
    Number of unpaired electrons: n_u =  2.72938, n_u,nl =  2.10706
    NO participation ratio (PR_NO):  3.821746
  
  
  Mulliken Population Analysis
  Atom      Charge (e)              h+              e-           Del q
  --------------------------------------------------------------------
   1 C       -0.535223        0.026951       -0.365893       -0.338942
   2 C       -0.535223        0.026951       -0.365893       -0.338942
   3 H        0.141063        0.003280       -0.047784       -0.044504
   4 H        0.141063        0.003280       -0.047784       -0.044504
   5 H        0.021174        0.021920       -0.021898        0.000022
   6 H        0.021174        0.021920       -0.021898        0.000022
   7 O       -0.975634        1.292320       -1.194761        0.097559
   8 H        0.721604        0.176372        0.492916        0.669288
  --------------------------------------------------------------------
  Sum:       -1.000000        1.572995       -1.572995       -0.000000
  
  Multipole moment analysis of the density matrix
    Molecular charge:                      -1.000000
    Number of electrons:                   26.000000
      Center of electronic charge [Ang]: [ -0.000000,  -0.000000,  -0.015418]
    Total nuclear charge:                  25.000000
      Center of nuclear charge [Ang]:    [  0.000000,   0.000000,  -0.000000]
    Dipole moment [D]:                     1.925400
      Cartesian components [D]:          [  0.000000,   0.000000,   1.925400]
    RMS size of the density [Ang]:         1.857461
      Cartesian components [Ang]:        [  0.853875,   0.544541,   1.557092]
  
  Exciton analysis of the difference density matrix
    <r_h> [Ang]:                  [  0.000000,   0.000000,  -1.548203]
    <r_e> [Ang]:                  [ -0.000000,  -0.000000,  -1.079765]
    |<r_e - r_h>| [Ang]:            0.468438
    Hole size [Ang]:                1.683395
      Cartesian components [Ang]: [  0.809631,   0.872683,   1.190269]
    Electron size [Ang]:            3.179803
      Cartesian components [Ang]: [  1.616972,   1.426561,   2.336979]

  Transition density matrix analysis:
  -----------------------------------
  
  CT numbers (Mulliken)
    omega =     0.8703
    <Phe> =    -0.0093
  
  Exciton analysis of the transition density matrix
    Trans. dipole moment [D]:             0.836517
      Cartesian components [D]:         [ -0.000000,   0.836517,   0.000000]
    <r_h> [Ang]:                        [  0.000000,  -0.000000,  -1.739703]
    <r_e> [Ang]:                        [ -0.000000,  -0.000000,  -1.013826]
    |<r_e - r_h>| [Ang]:                  0.725877
    Hole size [Ang]:                      1.094415
      Cartesian components [Ang]:       [  0.474919,   0.818601,   0.549626]
    Electron size [Ang]:                  3.765788
      Cartesian components [Ang]:       [  1.902941,   1.699841,   2.769569]
    RMS electron-hole separation [Ang]:   3.976571
      Cartesian components [Ang]:       [  1.960991,   1.882913,   2.902115]
    Covariance(r_h, r_e) [Ang^2]:         0.046341
    Correlation coefficient:              0.011244
    Center-of-mass size [Ang]:            1.966697
      Cartesian components [Ang]:       [  0.980814,   0.945221,   1.418611]

  Decomposition into state-averaged NTOs
    H- 0 -> L+ 2:  0.5087 ( 51.8%)
    H- 0 -> L+ 3: -0.3318 ( 22.0%)
    H- 0 -> L+ 0:  0.2188 (  9.6%)
    H- 0 -> L+ 1:  0.1138 (  2.6%)
                   omega =  87.0%
  ----------------------------------------------------------------------------


  Excited state 5 (singlet, B2)                                    [converged]
  ----------------------------------------------------------------------------
  Term symbol:  5 (1) B2                                    R^2 =  7.35409e-08

  Total energy:                                           -153.8008097694 a.u.
  Excitation energy:                                               4.597057 eV

  Osc. strength:                                                      0.000526
  Trans. dip. moment [a.u.]:           [   0.000000,    0.068364,    0.000000]
  <i|r^2|0> [a.u.]:                    [   0.000000,    0.000000,    0.000000]

  Dip. moment [a.u.]:                  [   0.000000,   -0.000000,   -2.792455]
  Total dipole [Debye]:                                               7.097714
  <r^2> [a.u.]:                        [  67.541950,   31.192029,  203.557179]
  Total <r^2> [a.u.]:                                               302.291158

  V1^2 = 0.8672, V2^2 = 0.1328

  Important amplitudes:
      occ i      occ j       vir a       vir b          v   
    ---------------------------------------------------------
     4 (B1) A               2 (A2) A                 -0.6225
     4 (B1) A               1 (A2) A                  0.1659
    ---------------------------------------------------------

  Density matrix analysis:
  ------------------------
  NOs
    Occupation of frontier NOs:
       0.9662   0.9943
    Number of electrons: 26.000000
    Number of unpaired electrons: n_u =  2.72448, n_u,nl =  2.10156
    NO participation ratio (PR_NO):  3.807493
  
  
  Mulliken Population Analysis
  Atom      Charge (e)              h+              e-           Del q
  --------------------------------------------------------------------
   1 C       -0.601857        0.107465       -0.513041       -0.405576
   2 C       -0.601857        0.107465       -0.513041       -0.405576
   3 H        0.108238        0.004807       -0.082137       -0.077329
   4 H        0.108238        0.004807       -0.082137       -0.077329
   5 H        0.005045        0.009811       -0.025917       -0.016107
   6 H        0.005045        0.009811       -0.025917       -0.016107
   7 O       -0.170766        1.348938       -0.446512        0.902426
   8 H        0.147915        0.116122       -0.020524        0.095598
  --------------------------------------------------------------------
  Sum:       -1.000000        1.709225       -1.709225       -0.000000
  
  Multipole moment analysis of the density matrix
    Molecular charge:                      -1.000000
    Number of electrons:                   26.000000
      Center of electronic charge [Ang]: [ -0.000000,   0.000000,   0.056835]
    Total nuclear charge:                  25.000000
      Center of nuclear charge [Ang]:    [  0.000000,   0.000000,  -0.000000]
    Dipole moment [D]:                     7.097712
      Cartesian components [D]:          [  0.000000,  -0.000000,  -7.097712]
    RMS size of the density [Ang]:         1.803481
      Cartesian components [Ang]:        [  0.852906,   0.579611,   1.479577]
  
  Exciton analysis of the difference density matrix
    <r_h> [Ang]:                  [  0.000000,   0.000000,  -1.340765]
    <r_e> [Ang]:                  [  0.000000,   0.000000,   0.189408]
    |<r_e - r_h>| [Ang]:            1.530174
    Hole size [Ang]:                1.732401
      Cartesian components [Ang]: [  0.892670,   0.723558,   1.296464]
    Electron size [Ang]:            2.714188
      Cartesian components [Ang]: [  1.604571,   1.515000,   1.580171]

  Transition density matrix analysis:
  -----------------------------------
  
  CT numbers (Mulliken)
    omega =     0.8402
    <Phe> =    -0.0008
  
  Exciton analysis of the transition density matrix
    Trans. dipole moment [D]:             0.086882
      Cartesian components [D]:         [  0.000000,   0.086882,   0.000000]
    <r_h> [Ang]:                        [  0.000000,   0.000000,  -1.686503]
    <r_e> [Ang]:                        [  0.000000,   0.000000,   1.024671]
    |<r_e - r_h>| [Ang]:                  2.711173
    Hole size [Ang]:                      1.184692
      Cartesian components [Ang]:       [  0.823141,   0.466577,   0.712910]
    Electron size [Ang]:                  2.912195
      Cartesian components [Ang]:       [  1.945142,   1.871251,   1.093492]
    RMS electron-hole separation [Ang]:   4.149271
      Cartesian components [Ang]:       [  2.108527,   1.928201,   3.008755]
    Covariance(r_h, r_e) [Ang^2]:         0.009194
    Correlation coefficient:              0.002665
    Center-of-mass size [Ang]:            1.573433
      Cartesian components [Ang]:       [  1.057874,   0.964442,   0.653028]

  Decomposition into state-averaged NTOs
    H- 2 -> L+ 7:  0.6243 ( 78.0%)
    H- 2 -> L+ 5:  0.1713 (  5.9%)
                   omega =  84.0%
  ----------------------------------------------------------------------------


  Excited state 6 (singlet, B2)                                    [converged]
  ----------------------------------------------------------------------------
  Term symbol:  6 (1) B2                                    R^2 =  3.58747e-08

  Total energy:                                           -153.7932126820 a.u.
  Excitation energy:                                               4.803784 eV

  Osc. strength:                                                      0.000161
  Trans. dip. moment [a.u.]:           [   0.000000,    0.036981,    0.000000]
  <i|r^2|0> [a.u.]:                    [   0.000000,    0.000000,    0.000000]

  Dip. moment [a.u.]:                  [  -0.000000,   -0.000000,   -0.494009]
  Total dipole [Debye]:                                               1.255647
  <r^2> [a.u.]:                        [  66.777669,   30.673331,  218.274977]
  Total <r^2> [a.u.]:                                               315.725977

  V1^2 = 0.8849, V2^2 = 0.1151

  Important amplitudes:
      occ i      occ j       vir a       vir b          v   
    ---------------------------------------------------------
     2 (B2) A              11 (A1) A                 -0.5120
     2 (B2) A              10 (A1) A                 -0.3867
    ---------------------------------------------------------

  Density matrix analysis:
  ------------------------
  NOs
    Occupation of frontier NOs:
       0.9669   0.9930
    Number of electrons: 26.000000
    Number of unpaired electrons: n_u =  2.73597, n_u,nl =  2.10869
    NO participation ratio (PR_NO):  3.838289
  
  
  Mulliken Population Analysis
  Atom      Charge (e)              h+              e-           Del q
  --------------------------------------------------------------------
   1 C       -0.542392        0.043107       -0.389219       -0.346112
   2 C       -0.542392        0.043107       -0.389219       -0.346112
   3 H        0.241786        0.006598        0.049621        0.056219
   4 H        0.241786        0.006598        0.049621        0.056219
   5 H        0.166240        0.017088        0.128000        0.145088
   6 H        0.166240        0.017088        0.128000        0.145088
   7 O       -1.196851        1.288845       -1.412503       -0.123659
   8 H        0.465584        0.161741        0.251527        0.413268
  --------------------------------------------------------------------
  Sum:       -1.000000        1.584171       -1.584171       -0.000000
  
  Multipole moment analysis of the density matrix
    Molecular charge:                      -1.000000
    Number of electrons:                   26.000000
      Center of electronic charge [Ang]: [  0.000000,   0.000000,   0.010055]
    Total nuclear charge:                  25.000000
      Center of nuclear charge [Ang]:    [  0.000000,   0.000000,  -0.000000]
    Dipole moment [D]:                     1.255646
      Cartesian components [D]:          [ -0.000000,  -0.000000,  -1.255646]
    RMS size of the density [Ang]:         1.844010
      Cartesian components [Ang]:        [  0.848067,   0.574771,   1.533229]
  
  Exciton analysis of the difference density matrix
    <r_h> [Ang]:                  [ -0.000000,   0.000000,  -1.527596]
    <r_e> [Ang]:                  [  0.000000,   0.000000,  -0.644404]
    |<r_e - r_h>| [Ang]:            0.883191
    Hole size [Ang]:                1.679411
      Cartesian components [Ang]: [  0.813948,   0.869004,   1.184374]
    Electron size [Ang]:            3.150065
      Cartesian components [Ang]: [  1.563822,   1.604688,   2.214124]

  Transition density matrix analysis:
  -----------------------------------
  
  CT numbers (Mulliken)
    omega =     0.8673
    <Phe> =    -0.0024
  
  Exciton analysis of the transition density matrix
    Trans. dipole moment [D]:             0.046999
      Cartesian components [D]:         [  0.000000,   0.046999,   0.000000]
    <r_h> [Ang]:                        [  0.000000,  -0.000000,  -1.733863]
    <r_e> [Ang]:                        [  0.000000,   0.000000,  -0.320502]
    |<r_e - r_h>| [Ang]:                  1.413361
    Hole size [Ang]:                      1.102220
      Cartesian components [Ang]:       [  0.475812,   0.818419,   0.564521]
    Electron size [Ang]:                  3.708118
      Cartesian components [Ang]:       [  1.838465,   1.939469,   2.570728]
    RMS electron-hole separation [Ang]:   4.107368
      Cartesian components [Ang]:       [  1.898628,   2.099876,   2.975938]
    Covariance(r_h, r_e) [Ang^2]:         0.046070
    Correlation coefficient:              0.011272
    Center-of-mass size [Ang]:            1.940178
      Cartesian components [Ang]:       [  0.949726,   1.055133,   1.322500]

  Decomposition into state-averaged NTOs
    H- 0 -> L+ 3: -0.4899 ( 48.0%)
    H- 0 -> L+ 2: -0.3748 ( 28.1%)
    H- 0 -> L+ 6: -0.2092 (  8.8%)
    H- 0 -> L+ 1:  0.0892 (  1.6%)
                   omega =  86.7%
  ----------------------------------------------------------------------------


  Excited state 7 (singlet, B2)                                    [converged]
  ----------------------------------------------------------------------------
  Term symbol:  7 (1) B2                                    R^2 =  1.67221e-08

  Total energy:                                           -153.7560429051 a.u.
  Excitation energy:                                               5.815225 eV

  Osc. strength:                                                      0.036475
  Trans. dip. moment [a.u.]:           [   0.000000,   -0.505980,    0.000000]
  <i|r^2|0> [a.u.]:                    [  -0.000000,   -0.000000,   -0.000000]

  Dip. moment [a.u.]:                  [   0.000000,    0.000000,   -1.436346]
  Total dipole [Debye]:                                               3.650827
  <r^2> [a.u.]:                        [  69.408902,   27.662380,  242.325963]
  Total <r^2> [a.u.]:                                               339.397245

  V1^2 = 0.9455, V2^2 = 0.0545

  Important amplitudes:
      occ i      occ j       vir a       vir b          v   
    ---------------------------------------------------------
     1 (B2) A               8 (A1) A                  0.6356
     1 (B2) A              10 (A1) A                  0.1774
    ---------------------------------------------------------

  Density matrix analysis:
  ------------------------
  NOs
    Occupation of frontier NOs:
       0.9864   0.9928
    Number of electrons: 26.000000
    Number of unpaired electrons: n_u =  2.61269, n_u,nl =  2.06665
    NO participation ratio (PR_NO):  3.454646
  
  
  Mulliken Population Analysis
  Atom      Charge (e)              h+              e-           Del q
  --------------------------------------------------------------------
   1 C       -0.380742        0.530492       -0.714953       -0.184461
   2 C       -0.380742        0.530492       -0.714953       -0.184461
   3 H        0.241180        0.057685       -0.002073        0.055613
   4 H        0.241180        0.057685       -0.002073        0.055613
   5 H        0.128206        0.126064       -0.019010        0.107054
   6 H        0.128206        0.126064       -0.019010        0.107054
   7 O       -1.039773        0.049157       -0.015738        0.033419
   8 H        0.062485        0.021857       -0.011688        0.010169
  --------------------------------------------------------------------
  Sum:       -1.000000        1.499497       -1.499497       -0.000000
  
  Multipole moment analysis of the density matrix
    Molecular charge:                      -1.000000
    Number of electrons:                   26.000000
      Center of electronic charge [Ang]: [ -0.000000,  -0.000000,   0.029234]
    Total nuclear charge:                  25.000000
      Center of nuclear charge [Ang]:    [  0.000000,   0.000000,  -0.000000]
    Dipole moment [D]:                     3.650826
      Cartesian components [D]:          [  0.000000,   0.000000,  -3.650826]
    RMS size of the density [Ang]:         1.911692
      Cartesian components [Ang]:        [  0.864614,   0.545832,   1.615263]
  
  Exciton analysis of the difference density matrix
    <r_h> [Ang]:                  [ -0.000000,  -0.000000,   0.929178]
    <r_e> [Ang]:                  [ -0.000000,  -0.000000,   2.194795]
    |<r_e - r_h>| [Ang]:            1.265617
    Hole size [Ang]:                1.802081
      Cartesian components [Ang]: [  1.052722,   0.909220,   1.145683]
    Electron size [Ang]:            3.031708
      Cartesian components [Ang]: [  1.866365,   1.478855,   1.876413]

  Transition density matrix analysis:
  -----------------------------------
  
  CT numbers (Mulliken)
    omega =     0.9144
    <Phe> =    -0.0050
  
  Exciton analysis of the transition density matrix
    Trans. dipole moment [D]:             0.643036
      Cartesian components [D]:         [  0.000000,  -0.643036,   0.000000]
    <r_h> [Ang]:                        [ -0.000000,   0.000000,   1.015183]
    <r_e> [Ang]:                        [ -0.000000,  -0.000000,   2.950464]
    |<r_e - r_h>| [Ang]:                  1.935280
    Hole size [Ang]:                      1.311794
      Cartesian components [Ang]:       [  0.766674,   0.893285,   0.578840]
    Electron size [Ang]:                  3.259589
      Cartesian components [Ang]:       [  2.174917,   1.750481,   1.682400]
    RMS electron-hole separation [Ang]:   4.003046
      Cartesian components [Ang]:       [  2.301530,   1.961279,   2.623114]
    Covariance(r_h, r_e) [Ang^2]:         0.033326
    Correlation coefficient:              0.007794
    Center-of-mass size [Ang]:            1.761560
      Cartesian components [Ang]:       [  1.155321,   0.984590,   0.893817]

  Decomposition into state-averaged NTOs
    H- 1 -> L+ 1:  0.6447 ( 83.1%)
    H- 1 -> L+ 0:  0.1996 (  8.0%)
                   omega =  91.4%
  ----------------------------------------------------------------------------


  Excited state 8 (singlet, B2)                                    [converged]
  ----------------------------------------------------------------------------
  Term symbol:  8 (1) B2                                    R^2 =  1.25304e-07

  Total energy:                                           -153.7217957815 a.u.
  Excitation energy:                                               6.747137 eV

  Osc. strength:                                                      0.000172
  Trans. dip. moment [a.u.]:           [   0.000000,   -0.032237,    0.000000]
  <i|r^2|0> [a.u.]:                    [   0.000000,    0.000000,    0.000000]

  Dip. moment [a.u.]:                  [  -0.000000,   -0.000000,   -3.041984]
  Total dipole [Debye]:                                               7.731954
  <r^2> [a.u.]:                        [  68.081188,   57.438693,  209.752131]
  Total <r^2> [a.u.]:                                               335.272012

  V1^2 = 0.8751, V2^2 = 0.1249

  Important amplitudes:
      occ i      occ j       vir a       vir b          v   
    ---------------------------------------------------------
     7 (A1) A               3 (B2) A                 -0.6560
     7 (A1) A               5 (B2) A                 -0.0569
    ---------------------------------------------------------

  Density matrix analysis:
  ------------------------
  NOs
    Occupation of frontier NOs:
       0.9822   0.9979
    Number of electrons: 26.000000
    Number of unpaired electrons: n_u =  2.79627, n_u,nl =  2.12838
    NO participation ratio (PR_NO):  3.920118
  
  
  Mulliken Population Analysis
  Atom      Charge (e)              h+              e-           Del q
  --------------------------------------------------------------------
   1 C       -0.684058        0.060894       -0.548671       -0.487777
   2 C       -0.684058        0.060894       -0.548671       -0.487777
   3 H        0.144180        0.004108       -0.045495       -0.041387
   4 H        0.144180        0.004108       -0.045495       -0.041387
   5 H        0.050989        0.032280       -0.002442        0.029837
   6 H        0.050989        0.032280       -0.002442        0.029837
   7 O       -0.349816        1.197434       -0.474058        0.723376
   8 H        0.327593        0.291458       -0.016181        0.275277
  --------------------------------------------------------------------
  Sum:       -1.000000        1.683455       -1.683455        0.000000
  
  Multipole moment analysis of the density matrix
    Molecular charge:                      -1.000000
    Number of electrons:                   26.000000
      Center of electronic charge [Ang]: [  0.000000,   0.000000,   0.061913]
    Total nuclear charge:                  25.000000
      Center of nuclear charge [Ang]:    [  0.000000,   0.000000,  -0.000000]
    Dipole moment [D]:                     7.731951
      Cartesian components [D]:          [ -0.000000,  -0.000000,  -7.731951]
    RMS size of the density [Ang]:         1.899251
      Cartesian components [Ang]:        [  0.856304,   0.786533,   1.501754]
  
  Exciton analysis of the difference density matrix
    <r_h> [Ang]:                  [  0.000000,  -0.000000,  -1.387298]
    <r_e> [Ang]:                  [  0.000000,  -0.000000,   0.244736]
    |<r_e - r_h>| [Ang]:            1.632034
    Hole size [Ang]:                1.813551
      Cartesian components [Ang]: [  0.837089,   0.755062,   1.420609]
    Electron size [Ang]:            3.644645
      Cartesian components [Ang]: [  1.611031,   2.595157,   1.988260]

  Transition density matrix analysis:
  -----------------------------------
  
  CT numbers (Mulliken)
    omega =     0.8573
    <Phe> =    -0.0000
  
  Exciton analysis of the transition density matrix
    Trans. dipole moment [D]:             0.040970
      Cartesian components [D]:         [  0.000000,  -0.040970,   0.000000]
    <r_h> [Ang]:                        [ -0.000000,   0.000000,  -1.692121]
    <r_e> [Ang]:                        [  0.000000,  -0.000000,   1.196994]
    |<r_e - r_h>| [Ang]:                  2.889115
    Hole size [Ang]:                      1.167284
      Cartesian components [Ang]:       [  0.460318,   0.406891,   0.992522]
    Electron size [Ang]:                  4.250728
      Cartesian components [Ang]:       [  1.959819,   3.308723,   1.811120]
    RMS electron-hole separation [Ang]:   5.268344
      Cartesian components [Ang]:       [  2.011504,   3.333213,   3.549505]
    Covariance(r_h, r_e) [Ang^2]:         0.011390
    Correlation coefficient:              0.002296
    Center-of-mass size [Ang]:            2.205336
      Cartesian components [Ang]:       [  1.007399,   1.667041,   1.034228]

  Decomposition into state-averaged NTOs
    H- 3 -> L+ 4: -0.6540 ( 85.5%)
                   omega =  85.7%
  ----------------------------------------------------------------------------


  Excited state 9 (singlet, B2)                                    [converged]
  ----------------------------------------------------------------------------
  Term symbol:  9 (1) B2                                    R^2 =  2.99429e-07

  Total energy:                                           -153.7188651532 a.u.
  Excitation energy:                                               6.826883 eV

  Osc. strength:                                                      0.001738
  Trans. dip. moment [a.u.]:           [  -0.000000,   -0.101932,    0.000000]
  <i|r^2|0> [a.u.]:                    [   0.000000,    0.000000,    0.000000]

  Dip. moment [a.u.]:                  [   0.000000,   -0.000000,    2.230284]
  Total dipole [Debye]:                                               5.668817
  <r^2> [a.u.]:                        [  99.598603,   26.532284,  217.590335]
  Total <r^2> [a.u.]:                                               343.721222

  V1^2 = 0.9424, V2^2 = 0.0576

  Important amplitudes:
      occ i      occ j       vir a       vir b          v   
    ---------------------------------------------------------
     1 (B2) A               9 (A1) A                  0.6566
     1 (B2) A               8 (A1) A                  0.1102
    ---------------------------------------------------------

  Density matrix analysis:
  ------------------------
  NOs
    Occupation of frontier NOs:
       0.9867   0.9927
    Number of electrons: 26.000000
    Number of unpaired electrons: n_u =  2.62957, n_u,nl =  2.07038
    NO participation ratio (PR_NO):  3.496841
  
  
  Mulliken Population Analysis
  Atom      Charge (e)              h+              e-           Del q
  --------------------------------------------------------------------
   1 C       -0.402980        0.528661       -0.735360       -0.206699
   2 C       -0.402980        0.528661       -0.735360       -0.206699
   3 H        0.282481        0.089587        0.007327        0.096914
   4 H        0.282481        0.089587        0.007327        0.096914
   5 H        0.125120        0.111752       -0.007783        0.103968
   6 H        0.125120        0.111752       -0.007783        0.103968
   7 O       -1.081946        0.058796       -0.067550       -0.008754
   8 H        0.072705        0.025526       -0.005137        0.020389
  --------------------------------------------------------------------
  Sum:       -1.000000        1.544320       -1.544320        0.000000
  
  Multipole moment analysis of the density matrix
    Molecular charge:                      -1.000000
    Number of electrons:                   26.000000
      Center of electronic charge [Ang]: [ -0.000000,   0.000000,  -0.045393]
    Total nuclear charge:                  25.000000
      Center of nuclear charge [Ang]:    [  0.000000,   0.000000,  -0.000000]
    Dipole moment [D]:                     5.668816
      Cartesian components [D]:          [  0.000000,  -0.000000,   5.668816]
    RMS size of the density [Ang]:         1.923520
      Cartesian components [Ang]:        [  1.035717,   0.534567,   1.530183]
  
  Exciton analysis of the difference density matrix
    <r_h> [Ang]:                  [ -0.000000,  -0.000000,   0.855740]
    <r_e> [Ang]:                  [ -0.000000,   0.000000,   0.828215]
    |<r_e - r_h>| [Ang]:            0.027525
    Hole size [Ang]:                1.833518
      Cartesian components [Ang]: [  1.080198,   0.899628,   1.177128]
    Electron size [Ang]:            3.715163
      Cartesian components [Ang]: [  2.991191,   1.387538,   1.711711]

  Transition density matrix analysis:
  -----------------------------------
  
  CT numbers (Mulliken)
    omega =     0.9122
    <Phe> =    -0.0005
  
  Exciton analysis of the transition density matrix
    Trans. dipole moment [D]:             0.129543
      Cartesian components [D]:         [ -0.000000,  -0.129543,   0.000000]
    <r_h> [Ang]:                        [  0.000000,   0.000000,   1.007302]
    <r_e> [Ang]:                        [ -0.000000,   0.000000,   0.912659]
    |<r_e - r_h>| [Ang]:                  0.094643
    Hole size [Ang]:                      1.320631
      Cartesian components [Ang]:       [  0.765952,   0.892483,   0.600714]
    Electron size [Ang]:                  4.441372
      Cartesian components [Ang]:       [  3.640693,   1.662123,   1.925742]
    RMS electron-hole separation [Ang]:   4.635868
      Cartesian components [Ang]:       [  3.715613,   1.886465,   2.031437]
    Covariance(r_h, r_e) [Ang^2]:        -0.006232
    Correlation coefficient:             -0.001063
    Center-of-mass size [Ang]:            2.316106
      Cartesian components [Ang]:       [  1.862584,   0.943346,   1.002609]

  Decomposition into state-averaged NTOs
    H- 1 -> L+ 0: -0.6410 ( 82.2%)
    H- 1 -> L+ 1:  0.2001 (  8.0%)
                   omega =  91.2%
  ----------------------------------------------------------------------------


  Excited state 10 (singlet, B2)                                    [converged]
  ----------------------------------------------------------------------------
  Term symbol:  10 (1) B2                                   R^2 =  6.65078e-06

  Total energy:                                           -153.7088989551 a.u.
  Excitation energy:                                               7.098077 eV

  Osc. strength:                                                      0.001008
  Trans. dip. moment [a.u.]:           [   0.000000,    0.076136,    0.000000]
  <i|r^2|0> [a.u.]:                    [   0.000000,    0.000000,    0.000000]

  Dip. moment [a.u.]:                  [   0.000000,   -0.000000,   -4.797597]
  Total dipole [Debye]:                                              12.194278
  <r^2> [a.u.]:                        [  62.878764,   25.650034,  224.189819]
  Total <r^2> [a.u.]:                                               312.718617

  V1^2 = 0.8681, V2^2 = 0.1319

  Important amplitudes:
      occ i      occ j       vir a       vir b          v   
    ---------------------------------------------------------
     2 (B2) A              12 (A1) A                  0.6276
     2 (B2) A              13 (A1) A                 -0.1259
    ---------------------------------------------------------

  Density matrix analysis:
  ------------------------
  NOs
    Occupation of frontier NOs:
       0.9750   0.9800
    Number of electrons: 26.000000
    Number of unpaired electrons: n_u =  2.77413, n_u,nl =  2.12249
    NO participation ratio (PR_NO):  3.959007
  
  
  Mulliken Population Analysis
  Atom      Charge (e)              h+              e-           Del q
  --------------------------------------------------------------------
   1 C       -0.688360        0.071445       -0.563524       -0.492079
   2 C       -0.688360        0.071445       -0.563524       -0.492079
   3 H        0.163568        0.003345       -0.025344       -0.021999
   4 H        0.163568        0.003345       -0.025344       -0.021999
   5 H       -0.004261        0.036733       -0.062145       -0.025413
   6 H       -0.004261        0.036733       -0.062145       -0.025413
   7 O       -0.095989        1.350577       -0.373374        0.977203
   8 H        0.154096        0.123819       -0.022040        0.101779
  --------------------------------------------------------------------
  Sum:       -1.000000        1.697441       -1.697441       -0.000000
  
  Multipole moment analysis of the density matrix
    Molecular charge:                      -1.000000
    Number of electrons:                   26.000000
      Center of electronic charge [Ang]: [ -0.000000,   0.000000,   0.097645]
    Total nuclear charge:                  25.000000
      Center of nuclear charge [Ang]:    [  0.000000,   0.000000,  -0.000000]
    Dipole moment [D]:                     12.194274
      Cartesian components [D]:          [  0.000000,  -0.000000, -12.194274]
    RMS size of the density [Ang]:         1.832634
      Cartesian components [Ang]:        [  0.822937,   0.525604,   1.550827]
  
  Exciton analysis of the difference density matrix
    <r_h> [Ang]:                  [  0.000000,   0.000000,  -1.353625]
    <r_e> [Ang]:                  [ -0.000000,   0.000000,   0.812275]
    |<r_e - r_h>| [Ang]:            2.165900
    Hole size [Ang]:                1.788167
      Cartesian components [Ang]: [  0.808277,   0.839271,   1.356411]
    Electron size [Ang]:            2.951640
      Cartesian components [Ang]: [  1.293891,   1.254630,   2.337505]

  Transition density matrix analysis:
  -----------------------------------
  
  CT numbers (Mulliken)
    omega =     0.8501
    <Phe> =     0.0000
  
  Exciton analysis of the transition density matrix
    Trans. dipole moment [D]:             0.096759
      Cartesian components [D]:         [  0.000000,   0.096759,   0.000000]
    <r_h> [Ang]:                        [  0.000000,  -0.000000,  -1.692636]
    <r_e> [Ang]:                        [ -0.000000,   0.000000,   2.159115]
    |<r_e - r_h>| [Ang]:                  3.851752
    Hole size [Ang]:                      1.158518
      Cartesian components [Ang]:       [  0.481714,   0.820655,   0.660788]
    Electron size [Ang]:                  2.888397
      Cartesian components [Ang]:       [  1.498755,   1.533800,   1.934949]
    RMS electron-hole separation [Ang]:   4.957026
      Cartesian components [Ang]:       [  1.573844,   1.740479,   4.366447]
    Covariance(r_h, r_e) [Ang^2]:        -0.025559
    Correlation coefficient:             -0.007638
    Center-of-mass size [Ang]:            1.551925
      Cartesian components [Ang]:       [  0.787344,   0.869305,   1.016301]

  Decomposition into state-averaged NTOs
    H- 0 -> L+ 6:  0.5914 ( 70.0%)
    H- 0 -> L+ 3: -0.2430 ( 11.8%)
    H- 0 -> L+ 0: -0.0711 (  1.0%)
                   omega =  85.0%
  ----------------------------------------------------------------------------


--------------------------------------------------------------------------------
  Time of ADC calculation:  CPU 203.44 s  wall 55.27 s
================================================================================
 
 --------------------------------------------------------------
             Orbital Energies (a.u.) and Symmetries
 --------------------------------------------------------------
 
 Alpha MOs, Restricted
 -- Occupied --                  
-20.213 -11.049 -11.047  -0.930  -0.854  -0.598  -0.473  -0.384
  1 A1    2 A1    1 B1    3 A1    4 A1    2 B1    5 A1    6 A1                 
 -0.328  -0.271  -0.194  -0.130  -0.129
  3 B1    7 A1    1 B2    4 B1    2 B2                                         
 -- Virtual --                   
  0.159   0.168   0.185   0.188   0.193   0.203   0.276   0.315
  5 B1    8 A1    3 B2    9 A1    1 A2    6 B1   10 A1    2 A2                 
  0.325   0.325   0.380   0.402   0.413   0.418   0.418   0.456
  7 B1   11 A1   12 A1    8 B1    4 B2   13 A1    9 B1    5 B2                 
  0.485   0.504   0.515   0.542   0.554   0.577   0.689   0.711
 10 B1    3 A2   14 A1   15 A1   11 B1   16 A1   17 A1   12 B1                 
  0.766   0.944   1.037   1.056   1.089   1.123   1.153   1.206
 13 B1   18 A1   19 A1   20 A1   21 A1   14 B1    6 B2    4 A2                 
  1.207   1.227   1.227   1.241   1.291   1.328   1.332   1.340
  7 B2   15 B1   22 A1   16 B1    5 A2   23 A1   17 B1   24 A1                 
  1.370   1.465   1.469   1.483   1.581   1.650   1.705   1.719
  8 B2   18 B1    9 B2    6 A2   19 B1   25 A1   20 B1   10 B2                 
  1.865   1.927   2.009   2.052   2.125   2.128   2.151   2.212
 26 A1   21 B1   27 A1    7 A2   28 A1   11 B2   22 B1   12 B2                 
  2.228   2.316   2.362   2.393   2.435   2.521   2.567   2.604
 29 A1   30 A1    8 A2   13 B2   23 B1   24 B1   31 A1    9 A2                 
  2.763   2.777   2.851   3.018   3.036   3.104   3.441   3.561
 32 A1   25 B1   26 B1   33 A1   34 A1   35 A1   27 B1   28 B1                 
  3.922   3.946   3.971   4.090   4.543
 14 B2   10 A2   36 A1   29 B1   37 A1                                         
 
 Beta MOs, Restricted
 -- Occupied --                  
-20.213 -11.049 -11.047  -0.930  -0.854  -0.598  -0.473  -0.384
  1 A1    2 A1    1 B1    3 A1    4 A1    2 B1    5 A1    6 A1                 
 -0.328  -0.271  -0.194  -0.130  -0.129
  3 B1    7 A1    1 B2    4 B1    2 B2                                         
 -- Virtual --                   
  0.159   0.168   0.185   0.188   0.193   0.203   0.276   0.315
  5 B1    8 A1    3 B2    9 A1    1 A2    6 B1   10 A1    2 A2                 
  0.325   0.325   0.380   0.402   0.413   0.418   0.418   0.456
  7 B1   11 A1   12 A1    8 B1    4 B2   13 A1    9 B1    5 B2                 
  0.485   0.504   0.515   0.542   0.554   0.577   0.689   0.711
 10 B1    3 A2   14 A1   15 A1   11 B1   16 A1   17 A1   12 B1                 
  0.766   0.944   1.037   1.056   1.089   1.123   1.153   1.206
 13 B1   18 A1   19 A1   20 A1   21 A1   14 B1    6 B2    4 A2                 
  1.207   1.227   1.227   1.241   1.291   1.328   1.332   1.340
  7 B2   15 B1   22 A1   16 B1    5 A2   23 A1   17 B1   24 A1                 
  1.370   1.465   1.469   1.483   1.581   1.650   1.705   1.719
  8 B2   18 B1    9 B2    6 A2   19 B1   25 A1   20 B1   10 B2                 
  1.865   1.927   2.009   2.052   2.125   2.128   2.151   2.212
 26 A1   21 B1   27 A1    7 A2   28 A1   11 B2   22 B1   12 B2                 
  2.228   2.316   2.362   2.393   2.435   2.521   2.567   2.604
 29 A1   30 A1    8 A2   13 B2   23 B1   24 B1   31 A1    9 A2                 
  2.763   2.777   2.851   3.018   3.036   3.104   3.441   3.561
 32 A1   25 B1   26 B1   33 A1   34 A1   35 A1   27 B1   28 B1                 
  3.922   3.946   3.971   4.090   4.543
 14 B2   10 A2   36 A1   29 B1   37 A1                                         
 --------------------------------------------------------------
 
          Ground-State Mulliken Net Atomic Charges

     Atom                 Charge (a.u.)
  ----------------------------------------
      1 C                    -0.194273
      2 C                    -0.194273
      3 H                     0.181595
      4 H                     0.181595
      5 H                     0.014624
      6 H                     0.014624
      7 O                    -1.072897
      8 H                     0.069007
  ----------------------------------------
  Sum of atomic charges =    -1.000000

 -----------------------------------------------------------------
                    Cartesian Multipole Moments
 -----------------------------------------------------------------
    Charge (ESU x 10^10)
                -4.8032
    Dipole Moment (Debye)
         X      -0.0000      Y      -0.0000      Z       5.2888
       Tot       5.2888
    Quadrupole Moments (Debye-Ang)
        XX     -23.6678     XY      -0.0000     YY     -26.4958
        XZ      -0.0000     YZ       0.0000     ZZ     -32.8952
    Octopole Moments (Debye-Ang^2)
       XXX      -0.0000    XXY       0.0000    XYY       0.0000
       YYY      -0.0000    XXZ       1.0631    XYZ      -0.0000
       YYZ      -0.0899    XZZ      -0.0000    YZZ      -0.0000
       ZZZ       6.4165
    Hexadecapole Moments (Debye-Ang^3)
      XXXX     -87.9388   XXXY      -0.0000   XXYY     -21.7685
      XYYY       0.0000   YYYY     -39.9411   XXXZ      -0.0000
      XXYZ      -0.0000   XYYZ      -0.0000   YYYZ       0.0000
      XXZZ     -70.5547   XYZZ       0.0000   YYZZ     -65.3473
      XZZZ      -0.0000   YZZZ       0.0000   ZZZZ    -292.8220
 -----------------------------------------------------------------
 Total job time:  164.02s(wall), 252.39s(cpu) 
 Wed Mar  2 14:56:09 2022

        *************************************************************
        *                                                           *
        *  Thank you very much for using Q-Chem.  Have a nice day.  *
        *                                                           *
        *************************************************************


