/src/tsommerfeld/qchem/exe/qcprog.exe .input1.272727.21666.qcin.1 /src/jdavis/qchem.scratch/qchem21666/

                  Welcome to Q-Chem
     A Quantum Leap Into The Future Of Chemistry


 Q-Chem 5.4 (devel), Q-Chem, Inc., Pleasanton, CA (2021)

 E. Epifanovsky,  A. T. B. Gilbert,  Xintian Feng,  Joonho Lee,  Yuezhi Mao,  
 N. Mardirossian,  P. Pokhilko,  A. White,  M. Wormit,  M. P. Coons,  
 A. L. Dempwolff,  Zhengting Gan,  D. Hait,  P. R. Horn,  L. D. Jacobson,  
 I. Kaliman,  J. Kussmann,  A. W. Lange,  Ka Un Lao,  D. S. Levine,  Jie Liu,  
 S. C. McKenzie,  A. F. Morrison,  K. Nanda,  F. Plasser,  D. R. Rehn,  
 M. L. Vidal,  Zhi-Qiang You,  Ying Zhu,  B. Alam,  B. Albrecht,  
 A. Aldossary,  E. Alguire,  J. H. Andersen,  D. Barton,  K. Begam,  A. Behn,  
 Y. A. Bernard,  E. J. Berquist,  H. Burton,  A. Carreras,  K. Carter-Fenk,  
 R. Chakraborty,  A. D. Chien,  K. D. Closser,  V. Cofer-Shabica,  
 S. Dasgupta,  Jia Deng,  M. de Wergifosse,  M. Diedenhofen,  Hainam Do,  
 S. Ehlert,  Po-Tung Fang,  S. Fatehi,  Qingguo Feng,  T. Friedhoff,  
 J. Gayvert,  Qinghui Ge,  G. Gidofalvi,  M. Goldey,  J. Gomes,  
 C. Gonzalez-Espinoza,  S. Gulania,  A. Gunina,  M. W. D. Hanson-Heine,  
 P. H. P. Harbach,  A. W. Hauser,  M. F. Herbst,  M. Hernandez Vera,  
 M. Hodecker,  Z. C. Holden,  S. Houck,  Xunkun Huang,  Kerwin Hui,  
 B. C. Huynh,  M. Ivanov,  Hyunjun Ji,  Hanjie Jiang,  B. Kaduk,  S. Kaehler,  
 K. Khistyaev,  Jaehoon Kim,  P. Klunzinger,  Z. Koczor-Benda,  
 Joong Hoon Koh,  D. Kosenkov,  L. Koulias,  T. Kowalczyk,  C. M. Krauter,  
 K. Kue,  A. Kunitsa,  T. Kus,  A. Landau,  K. V. Lawler,  D. Lefrancois,  
 S. Lehtola,  Rain Li,  Yi-Pei Li,  Jiashu Liang,  M. Liebenthal,  
 Hung-Hsuan Lin,  You-Sheng Lin,  Fenglai Liu,  Kuan-Yu Liu,  
 M. Loipersberger,  A. Luenser,  A. Manjanath,  P. Manohar,  E. Mansoor,  
 S. F. Manzer,  Shan-Ping Mao,  A. V. Marenich,  T. Markovich,  S. Mason,  
 S. A. Maurer,  P. F. McLaughlin,  M. F. S. J. Menger,  J.-M. Mewes,  
 S. A. Mewes,  P. Morgante,  J. W. Mullinax,  K. J. Oosterbaan,  G. Paran,  
 Alexander C. Paul,  Suranjan K. Paul,  F. Pavosevic,  Zheng Pei,  S. Prager,  
 E. I. Proynov,  E. Ramos,  B. Rana,  A. E. Rask,  A. Rettig,  R. M. Richard,  
 F. Rob,  E. Rossomme,  T. Scheele,  M. Scheurer,  M. Schneider,  
 N. Sergueev,  S. M. Sharada,  W. Skomorowski,  D. W. Small,  C. J. Stein,  
 Yu-Chuan Su,  E. J. Sundstrom,  Zhen Tao,  J. Thirman,  T. Tsuchimochi,  
 N. M. Tubman,  S. P. Veccham,  O. Vydrov,  J. Wenzel,  J. Witte,  A. Yamada,  
 Kun Yao,  S. Yeganeh,  S. R. Yost,  A. Zech,  Igor Ying Zhang,  Xing Zhang,  
 Yu Zhang,  D. Zuev,  A. Aspuru-Guzik,  A. T. Bell,  N. A. Besley,  
 K. B. Bravaya,  B. R. Brooks,  D. Casanova,  Jeng-Da Chai,  S. Coriani,  
 C. J. Cramer,  A. E. DePrince, III,  R. A. DiStasio Jr.,  A. Dreuw,  
 B. D. Dunietz,  T. R. Furlani,  W. A. Goddard III,  S. Grimme,  
 S. Hammes-Schiffer,  T. Head-Gordon,  W. J. Hehre,  Chao-Ping Hsu,  
 T.-C. Jagau,  Yousung Jung,  A. Klamt,  Jing Kong,  D. S. Lambrecht,  
 WanZhen Liang,  N. J. Mayhall,  C. W. McCurdy,  J. B. Neaton,  
 C. Ochsenfeld,  J. A. Parkhill,  R. Peverati,  V. A. Rassolov,  Yihan Shao,  
 L. V. Slipchenko,  T. Stauch,  R. P. Steele,  J. E. Subotnik,  
 A. J. W. Thom,  A. Tkatchenko,  D. G. Truhlar,  T. Van Voorhis,  
 T. A. Wesolowski,  K. B. Whaley,  H. L. Woodcock III,  P. M. Zimmerman,  
 S. Faraji,  P. M. W. Gill,  M. Head-Gordon,  J. M. Herbert,  A. I. Krylov

 Additional authors for Version 5.4.1: 
 S. Kotaru,  Shaozhi Li,  Xiangyuan Li,  F. Matz,  A. Molle,  Haisheng Ren,  
 Yingli Su,  Hung-Yi Tsai,  C. Utku,  Fang Wang

 Contributors to earlier versions of Q-Chem not listed above: 
 R. D. Adamson,  B. Austin,  R. Baer,  J. Baker,  G. J. O. Beran,  
 K. Brandhorst,  S. T. Brown,  E. F. C. Byrd,  A. K. Chakraborty,  
 G. K. L. Chan,  Chun-Min Chang,  Yunqing Chen,  C.-L. Cheng,  
 Siu Hung Chien,  D. M. Chipman,  D. L. Crittenden,  H. Dachsel,  
 R. J. Doerksen,  A. D. Dutoi,  R. G. Edgar,  J. Fosso-Tande,  
 L. Fusti-Molnar,  D. Ghosh,  A. Ghysels,  A. Golubeva-Zadorozhnaya,  
 J. Gonthier,  M. S. Gordon,  S. R. Gwaltney,  G. Hawkins,  J. E. Herr,  
 A. Heyden,  S. Hirata,  E. G. Hohenstein,  G. Kedziora,  F. J. Keil,  
 C. Kelley,  Jihan Kim,  R. A. King,  R. Z. Khaliullin,  P. P. Korambath,  
 W. Kurlancheek,  A. Laurent,  A. M. Lee,  M. S. Lee,  S. V. Levchenko,  
 Ching Yeh Lin,  D. Liotard,  E. Livshits,  R. C. Lochan,  I. Lotan,  
 L. A. Martinez-Martinez,  P. E. Maslen,  N. Nair,  D. P. O'Neill,  
 D. Neuhauser,  E. Neuscamman,  C. M. Oana,  R. Olivares-Amaya,  R. Olson,  
 T. M. Perrine,  B. Peters,  P. A. Pieniazek,  A. Prociuk,  Y. M. Rhee,  
 J. Ritchie,  M. A. Rohrdanz,  E. Rosta,  N. J. Russ,  H. F. Schaefer III,  
 M. W. Schmidt,  N. E. Schultz,  S. Sharma,  N. Shenvi,  C. D. Sherrill,  
 A. C. Simmonett,  A. Sodt,  T. Stein,  D. Stuck,  K. S. Thanthiriwatte,  
 V. Vanovschi,  L. Vogt,  Tao Wang,  A. Warshel,  M. A. Watson,  
 C. F. Williams,  Q. Wu,  X. Xu,  Jun Yang,  W. Zhang,  Yan Zhao

 Please cite Q-Chem as follows:
 Y. Shao et al., Mol. Phys. 113, 184-215 (2015)
 DOI: 10.1080/00268976.2014.952696

 Q-Chem 5.4.1 for Intel X86 EM64T Linux

 Parts of Q-Chem use Armadillo 9.900.5 (Nocturnal Misbehaviour).
 http://arma.sourceforge.net/

 Q-Chem begins on Wed Mar  2 14:47:57 2022  

 Host: node01
0

     Scratch files written to /src/jdavis/qchem.scratch/qchem21666//
 Processing $rem in /src/tsommerfeld/qchem/config/preferences:
 Processing $rem in /home/jdavis/.qchemrc:

 Checking the input file for inconsistencies... 	...done.

--------------------------------------------------------------
User input:
--------------------------------------------------------------
$molecule
-1 1
C        -0.6645000000    0.0000000000    1.1619088658
C         0.6645000000    0.0000000000    1.1619088658
H        -1.1590800000    0.0000000000    0.1995598658
H         1.1590800000    0.0000000000    0.1995598658
H        -1.1590800000    0.0000000000    2.1242568658
H         1.1590800000    0.0000000000    2.1242568658
O         0.0000000000    0.0000000000   -1.5841414040
H         0.0000000000    0.0000000000   -2.5471307683
$end
$rem
   METHOD adc(2)
   BASIS gen
   PURECART 11
   EE_STATES [0,0,0,10]
   scf_convergence 8
   ADC_DAVIDSON_MAXITER 120
   ADC_DAVIDSON_MAXSUBSPACE 200
   adc_nguess_singles 100
   THRESH 14
   S2THRESH 14
   adc_davidson_conv 5
   adc_davidson_thresh 14
   THREADS 10
   MEM_TOTAL 95000
   STATE_ANALYSIS TRUE
$end
$basis
C 1
S   9   1.00
      6.665000D+03           6.920000D-04
      1.000000D+03           5.329000D-03
      2.280000D+02           2.707700D-02
      6.471000D+01           1.017180D-01
      2.106000D+01           2.747400D-01
      7.495000D+00           4.485640D-01
      2.797000D+00           2.850740D-01
      5.215000D-01           1.520400D-02
      1.596000D-01          -3.191000D-03
S   9   1.00
      6.665000D+03          -1.460000D-04
      1.000000D+03          -1.154000D-03
      2.280000D+02          -5.725000D-03
      6.471000D+01          -2.331200D-02
      2.106000D+01          -6.395500D-02
      7.495000D+00          -1.499810D-01
      2.797000D+00          -1.272620D-01
      5.215000D-01           5.445290D-01
      1.596000D-01           5.804960D-01
S   1   1.00
      1.596000D-01           1.000000D+00
S   1   1.00
      0.0469000              1.0000000
P   4   1.00
      9.439000D+00           3.810900D-02
      2.002000D+00           2.094800D-01
      5.456000D-01           5.085570D-01
      1.517000D-01           4.688420D-01
P   1   1.00
      1.517000D-01           1.000000D+00
P   1   1.00
      0.0551636      1.0000000
P   1   1.00
      0.0275818      1.0000000
D   1   1.00
      5.500000D-01           1.0000000
****
C 2
S   9   1.00
      6.665000D+03           6.920000D-04
      1.000000D+03           5.329000D-03
      2.280000D+02           2.707700D-02
      6.471000D+01           1.017180D-01
      2.106000D+01           2.747400D-01
      7.495000D+00           4.485640D-01
      2.797000D+00           2.850740D-01
      5.215000D-01           1.520400D-02
      1.596000D-01          -3.191000D-03
S   9   1.00
      6.665000D+03          -1.460000D-04
      1.000000D+03          -1.154000D-03
      2.280000D+02          -5.725000D-03
      6.471000D+01          -2.331200D-02
      2.106000D+01          -6.395500D-02
      7.495000D+00          -1.499810D-01
      2.797000D+00          -1.272620D-01
      5.215000D-01           5.445290D-01
      1.596000D-01           5.804960D-01
S   1   1.00
      1.596000D-01           1.000000D+00
S   1   1.00
      0.0469000              1.0000000
P   4   1.00
      9.439000D+00           3.810900D-02
      2.002000D+00           2.094800D-01
      5.456000D-01           5.085570D-01
      1.517000D-01           4.688420D-01
P   1   1.00
      1.517000D-01           1.000000D+00
P   1   1.00
      0.0551636      1.0000000
P   1   1.00
      0.0275818      1.0000000
D   1   1.00
      5.500000D-01           1.0000000
****
H 3
cc-pVDZ
****
H 4
cc-pVDZ
****
H 5
cc-pVDZ
****
H 6
cc-pVDZ
****
O 7
aug-cc-pVDZ
****
H 8
cc-pVDZ
****
$end
--------------------------------------------------------------
 ----------------------------------------------------------------
             Standard Nuclear Orientation (Angstroms)
    I     Atom           X                Y                Z
 ----------------------------------------------------------------
    1      C      -0.6645000000    -0.0000000000     1.0270977517
    2      C       0.6645000000     0.0000000000     1.0270977517
    3      H      -1.1590800000    -0.0000000000     0.0647487517
    4      H       1.1590800000     0.0000000000     0.0647487517
    5      H      -1.1590800000    -0.0000000000     1.9894457517
    6      H       1.1590800000     0.0000000000     1.9894457517
    7      O       0.0000000000    -0.0000000000    -1.7189525181
    8      H       0.0000000000    -0.0000000000    -2.6819418824
 ----------------------------------------------------------------
 Molecular Point Group                 C2v   NOp =  4
 Largest Abelian Subgroup              C2v   NOp =  4
 Nuclear Repulsion Energy =          64.38561153 hartrees
 There are       13 alpha and       13 beta electrons
 Requested basis set is non-standard
 There are 42 shells and 90 basis functions
 Total memory of 95000 MB is distributed as follows: 
   MEM_STATIC is set to 192 MB
   QALLOC/CCMAN JOB total memory use is  94808 MB
 Warning: actual memory use might exceed 95000 MB

 Total QAlloc Memory Limit  95000 MB
 Mega-Array Size       188 MB
 MEM_STATIC part       192 MB

                       Distance Matrix (Angstroms)
             C (  1)   C (  2)   H (  3)   H (  4)   H (  5)   H (  6)
   C (  2)  1.329000
   H (  3)  1.082000  2.061931
   H (  4)  2.061931  1.082000  2.318160
   H (  5)  1.082000  2.061931  1.924697  3.013026
   H (  6)  2.061931  1.082000  3.013026  1.924697  2.318160
   O (  7)  2.825306  2.825306  2.127218  2.127218  3.885316  3.885316
   H (  8)  3.768094  3.768094  2.981237  2.981237  4.813037  4.813037
             O (  7)
   H (  8)  0.962989
 
 A cutoff of  1.0D-14 yielded    903 shell pairs
 There are      4183 function pairs (      4573 Cartesian)
 Smallest overlap matrix eigenvalue = 1.59E-04

 Scale SEOQF with 1.000000e-01/1.000000e-01/1.000000e-01

 Standard Electronic Orientation quadrupole field applied
 Nucleus-field energy     =    -0.0000000051 hartrees
 ================ Generating on-the-fly SAD Guess ================
Attempting to make child job directory: /src/jdavis/qchem.scratch/qchem21666//Frg1/
Attempting to make child job directory: /src/jdavis/qchem.scratch/qchem21666//Frg2/
Attempting to make child job directory: /src/jdavis/qchem.scratch/qchem21666//Frg3/
Creating input file /src/jdavis/qchem.scratch/qchem21666/Frg1.input
using default PutDataFrgm: nothing
calling putenv with: QCSCRATCH=/src/jdavis/qchem.scratch/qchem21666/ 
Spawning Job For Fragment 0
Done Job For Fragment 0
calling putenv with: QCSCRATCH=/src/jdavis/qchem.scratch 
calling putenv with: QCTHREADS=1 
Creating input file /src/jdavis/qchem.scratch/qchem21666/Frg2.input
using default PutDataFrgm: nothing
calling putenv with: QCSCRATCH=/src/jdavis/qchem.scratch/qchem21666/ 
Spawning Job For Fragment 1
Done Job For Fragment 1
calling putenv with: QCSCRATCH=/src/jdavis/qchem.scratch 
calling putenv with: QCTHREADS=1 
Creating input file /src/jdavis/qchem.scratch/qchem21666/Frg3.input
using default PutDataFrgm: nothing
calling putenv with: QCSCRATCH=/src/jdavis/qchem.scratch/qchem21666/ 
Spawning Job For Fragment 2
Done Job For Fragment 2
calling putenv with: QCSCRATCH=/src/jdavis/qchem.scratch 
calling putenv with: QCTHREADS=1 
 Time for running child jobs:  CPU 1.77 s  wall 80.39 s
 ============= Method Specific SAD Guess Constructed =============
 Guess from on-the-fly superposition of atomic densities
 Warning: Energy on first SCF cycle will be non-variational
 A restricted Hartree-Fock SCF calculation will be
 performed using Pulay DIIS extrapolation
 SCF converges when DIIS error is below 1.0E-08
 using 10 threads for integral computing
 -------------------------------------------------------
 OpenMP Integral computing Module                
 Release: version 1.0, May 2013, Q-Chem Inc. Pittsburgh 
 -------------------------------------------------------
 ---------------------------------------
  Cycle       Energy         DIIS Error
 ---------------------------------------
    1    -153.5738764603      5.98E-02
    2    -153.2897360257      1.22E-02
    3    -153.3553500549      1.03E-02
    4    -153.4401775666      7.62E-04
    5    -153.4411088590      2.12E-04
    6    -153.4411825235      4.62E-05
    7    -153.4411878848      1.22E-05
    8    -153.4411884532      3.65E-06
    9    -153.4411885020      7.39E-07
   10    -153.4411885036      1.29E-07
   11    -153.4411885037      3.86E-08
   12    -153.4411885037      1.22E-08
   13    -153.4411885037      2.64E-09 Convergence criterion met
 ---------------------------------------
 SCF time:  CPU 15.71 s  wall 1.58 s
 SCF   energy in the final basis set = -153.44118850
 Total energy in the final basis set = -153.44118850
================================================================================
|                                                                              |
|                                 A D C  M A N                                 |
|                                                                              |
 ------------------------------------------------------------------------------ 
|                                                                              |
| Components:                                                                  |
|                                                                              |
| - libvmm - 1.3-trunk                                                         |
|   Authors:                                                                   |
|   Evgeny Epifanovsky, Ilya Kaliman                                           |
|                                                                              |
| - libtensor - 2.5-trunk                                                      |
|   Authors:                                                                   |
|   Evgeny Epifanovsky, Michael Wormit, Dmitry Zuev, Sam Manzer,               |
|   Ilya Kaliman                                                               |
|                                                                              |
| - libwfa - 1.1-trunk                                                         |
|   Authors:                                                                   |
|   Felix Plasser, Stefanie Mewes (Baeppler), Benjamin Thomitzni,              |
|   Michael Wormit, Feng Chen, Anna I. Krylov, Pavel Pokhilko                  |
|                                                                              |
| - libadc - 1.1-trunk                                                         |
|   Authors:                                                                   |
|   Michael Wormit, Adrian L. Dempwolff, Philipp H. P. Harbach,                |
|   Caroline Krauter, Dirk Rehn, Matthias Schneider, Jan Wenzel                |
|                                                                              |
| - adcman - 2.6-trunk                                                         |
|   Authors:                                                                   |
|   Michael Wormit, Adrian L. Dempwolff, Philipp H. P. Harbach,                |
|   Caroline Krauter, Daniel Lefrancois, Jan-Michael Mewes, Dirk Rehn,         |
|   Matthias Schneider, Jan Wenzel, Andreas Dreuw                              |
|                                                                              |
| Authors of earlier versions of ADCMAN:                                       |
| Andreas Dreuw, Jan Hendrik Starcke, Dirk Rehn, Michael Wormit                |
|                                                                              |
================================================================================

 
 Alpha MOs, Restricted
 -- Occupied --                  
-20.213 -11.049 -11.047  -0.930  -0.854  -0.598  -0.473  -0.384
  1 A1    2 A1    1 B1    3 A1    4 A1    2 B1    5 A1    6 A1                 
 -0.328  -0.271  -0.194  -0.130  -0.129
  3 B1    7 A1    1 B2    4 B1    2 B2                                         
 -- Virtual --                   
  0.155   0.163   0.178   0.181   0.186   0.196   0.270   0.310
  5 B1    8 A1    3 B2    9 A1    1 A2    6 B1   10 A1    2 A2                 
  0.326   0.326   0.366   0.380   0.397   0.399   0.407   0.454
 11 A1    7 B1   12 A1    8 B1    9 B1    4 B2   13 A1    5 B2                 
  0.483   0.488   0.517   0.532   0.553   0.577   0.687   0.702
 10 B1    3 A2   14 A1   15 A1   11 B1   16 A1   17 A1   12 B1                 
  0.751   0.930   1.025   1.054   1.085   1.119   1.131   1.185
 13 B1   18 A1   19 A1   20 A1   21 A1   14 B1    6 B2    4 A2                 
  1.206   1.207   1.223   1.242   1.291   1.327   1.333   1.340
  7 B2   15 B1   22 A1   16 B1    5 A2   23 A1   17 B1   24 A1                 
  1.370   1.469   1.478   1.483   1.571   1.648   1.705   1.719
  8 B2    9 B2   18 B1    6 A2   19 B1   25 A1   20 B1   10 B2                 
  1.863   1.927   2.002   2.049   2.128   2.128   2.143   2.212
 26 A1   21 B1   27 A1    7 A2   28 A1   11 B2   22 B1   12 B2                 
  2.220   2.312   2.361   2.393   2.435   2.519   2.565   2.604
 29 A1   30 A1    8 A2   13 B2   23 B1   24 B1   31 A1    9 A2                 
  2.762   2.773   2.849   3.014   3.036   3.101   3.442   3.561
 32 A1   25 B1   26 B1   33 A1   34 A1   35 A1   27 B1   28 B1                 
  3.922   3.946   3.971   4.090   4.542
 14 B2   10 A2   36 A1   29 B1   37 A1                                         
 
 Beta MOs, Restricted
 -- Occupied --                  
-20.213 -11.049 -11.047  -0.930  -0.854  -0.598  -0.473  -0.384
  1 A1    2 A1    1 B1    3 A1    4 A1    2 B1    5 A1    6 A1                 
 -0.328  -0.271  -0.194  -0.130  -0.129
  3 B1    7 A1    1 B2    4 B1    2 B2                                         
 -- Virtual --                   
  0.155   0.163   0.178   0.181   0.186   0.196   0.270   0.310
  5 B1    8 A1    3 B2    9 A1    1 A2    6 B1   10 A1    2 A2                 
  0.326   0.326   0.366   0.380   0.397   0.399   0.407   0.454
 11 A1    7 B1   12 A1    8 B1    9 B1    4 B2   13 A1    5 B2                 
  0.483   0.488   0.517   0.532   0.553   0.577   0.687   0.702
 10 B1    3 A2   14 A1   15 A1   11 B1   16 A1   17 A1   12 B1                 
  0.751   0.930   1.025   1.054   1.085   1.119   1.131   1.185
 13 B1   18 A1   19 A1   20 A1   21 A1   14 B1    6 B2    4 A2                 
  1.206   1.207   1.223   1.242   1.291   1.327   1.333   1.340
  7 B2   15 B1   22 A1   16 B1    5 A2   23 A1   17 B1   24 A1                 
  1.370   1.469   1.478   1.483   1.571   1.648   1.705   1.719
  8 B2    9 B2   18 B1    6 A2   19 B1   25 A1   20 B1   10 B2                 
  1.863   1.927   2.002   2.049   2.128   2.128   2.143   2.212
 26 A1   21 B1   27 A1    7 A2   28 A1   11 B2   22 B1   12 B2                 
  2.220   2.312   2.361   2.393   2.435   2.519   2.565   2.604
 29 A1   30 A1    8 A2   13 B2   23 B1   24 B1   31 A1    9 A2                 
  2.762   2.773   2.849   3.014   3.036   3.101   3.442   3.561
 32 A1   25 B1   26 B1   33 A1   34 A1   35 A1   27 B1   28 B1                 
  3.922   3.946   3.971   4.090   4.542
 14 B2   10 A2   36 A1   29 B1   37 A1                                         

--------------------------------------------------------------------------------
                                   HF Summary                                   
--------------------------------------------------------------------------------
  Energy:                                                 -153.4411885037 a.u.
  Dip. moment [a.u.]:                  [  -0.000000,   -0.000000,    2.080840]
  Total dipole [Debye]:                                               5.288969
  <r^2> [a.u.]:                        [  55.708520,   19.696715,  208.058860]
  Total <r^2> [a.u.]:                                               283.464095
--------------------------------------------------------------------------------

--------------------------------------------------------------------------------
                                 MP(2) Summary                                  
--------------------------------------------------------------------------------
  MP energy contribution:                                   -0.5284029118 a.u.
  Total energy:                                           -153.9695914155 a.u.
  Dip. moment [a.u.]:                  [   0.000000,   -0.000000,    2.150100]
  Total dipole [Debye]:                                               5.465011
  <r^2> [a.u.]:                        [  56.692469,   20.379335,  209.328307]
  Total <r^2> [a.u.]:                                               286.400111

  Density matrix analysis:
  ------------------------
  NOs
    Occupation of frontier NOs:
       0.0447   1.9357
    Number of electrons: 26.000000
    Number of unpaired electrons: n_u =  0.71529, n_u,nl =  0.08539
    NO participation ratio (PR_NO): 23.007245
  
  
  Mulliken Population Analysis
  Atom      Charge (e)              h+              e-           Del q
  --------------------------------------------------------------------
   1 C       -0.192469        0.094321       -0.096434       -0.002114
   2 C       -0.192469        0.094321       -0.096434       -0.002114
   3 H        0.183216        0.017317       -0.013177        0.004140
   4 H        0.183216        0.017317       -0.013177        0.004140
   5 H        0.018695        0.018320       -0.012014        0.006306
   6 H        0.018695        0.018320       -0.012014        0.006306
   7 O       -1.072141        0.278244       -0.278092        0.000152
   8 H        0.053255        0.015314       -0.032130       -0.016816
  --------------------------------------------------------------------
  Sum:       -1.000000        0.553474       -0.553474        0.000000
  
  Multipole moment analysis of the density matrix
    Molecular charge:                      -1.000000
    Number of electrons:                   26.000000
      Center of electronic charge [Ang]: [ -0.000000,   0.000000,  -0.043761]
    Total nuclear charge:                  25.000000
      Center of nuclear charge [Ang]:    [  0.000000,   0.000000,  -0.000000]
    Dipole moment [D]:                     5.465010
      Cartesian components [D]:          [  0.000000,  -0.000000,   5.465010]
    RMS size of the density [Ang]:         1.755764
      Cartesian components [Ang]:        [  0.781407,   0.468500,   1.500873]
  
  Exciton analysis of the difference density matrix
    <r_h> [Ang]:                  [ -0.000000,   0.000000,  -0.479937]
    <r_e> [Ang]:                  [ -0.000000,   0.000000,  -0.546157]
    |<r_e - r_h>| [Ang]:            0.066220
    Hole size [Ang]:                1.951125
      Cartesian components [Ang]: [  0.875736,   0.739199,   1.579101]
    Electron size [Ang]:            2.285697
      Cartesian components [Ang]: [  1.124606,   0.944343,   1.751538]
--------------------------------------------------------------------------------
  Starting Davidson for singlet states of irrep B2 ... 
--------------------------------------------------------------------------------
   It NVec Conv  Avg. Norm  Max. Norm  Conv. states           Remark
--------------------------------------------------------------------------------
       100    0  1.530e-01  5.825e-01  0.2569 n n n n n n n n Guess.
    1  110    0  1.623e-02  1.026e-01  0.0856 n n n n n n n n 
    2  120    0  3.912e-03  2.568e-02  0.0843 n n n n n n n n 
    3  130    0  4.388e-03  4.133e-02  0.0843 n n n n n n n n 
    4  140    0  1.718e-03  1.444e-02  0.0843 n n n n n n n n 
    5  150    2  3.381e-04  2.799e-03  0.0843 y y n n n n n n 
    6  160    7  4.079e-05  3.388e-04  0.0843 y y y y y y y n 
    7  170    8  3.204e-06  2.656e-05  0.0843 y y y y y y y y 
    8  180   10  4.017e-07  3.351e-06  0.0843 y y y y y y y y Converged.
--------------------------------------------------------------------------------
  Davidson Summary: 
 ------------------------------------------------------------
  State  0: excitation energy =   0.0843 a.u.   (converged)
  State  1: excitation energy =   0.0963 a.u.   (converged)
  State  2: excitation energy =   0.1028 a.u.   (converged)
  State  3: excitation energy =   0.1338 a.u.   (converged)
  State  4: excitation energy =   0.1647 a.u.   (converged)
  State  5: excitation energy =   0.1747 a.u.   (converged)
  State  6: excitation energy =   0.2126 a.u.   (converged)
  State  7: excitation energy =   0.2432 a.u.   (converged)
  State  8: excitation energy =   0.2474 a.u.   (converged)
  State  9: excitation energy =   0.2492 a.u.   (converged)
 ------------------------------------------------------------


--------------------------------------------------------------------------------
                   State-averaged natural transition orbitals
--------------------------------------------------------------------------------
--------------------------------------------------------------------------------

--------------------------------------------------------------------------------
                             Excited State Summary
--------------------------------------------------------------------------------
--------------------------------------------------------------------------------

  Excited state 1 (singlet, B2)                                    [converged]
  ----------------------------------------------------------------------------
  Term symbol:  1 (1) B2                                    R^2 =  6.57759e-09

  Total energy:                                           -153.8853199573 a.u.
  Excitation energy:                                               2.293143 eV

  Osc. strength:                                                      0.014707
  Trans. dip. moment [a.u.]:           [   0.000000,    0.511650,    0.000000]
  <i|r^2|0> [a.u.]:                    [   0.000000,   -0.000000,   -0.000000]

  Dip. moment [a.u.]:                  [  -0.000000,   -0.000000,   -5.463000]
  Total dipole [Debye]:                                              13.885564
  <r^2> [a.u.]:                        [  73.327725,   31.750418,  243.453247]
  Total <r^2> [a.u.]:                                               348.531390

  V1^2 = 0.8678, V2^2 = 0.1322

  Important amplitudes:
      occ i      occ j       vir a       vir b          v   
    ---------------------------------------------------------
     2 (B2) A               8 (A1) A                  0.6196
     2 (B2) A               9 (A1) A                  0.1623
    ---------------------------------------------------------

  Density matrix analysis:
  ------------------------
  NOs
    Occupation of frontier NOs:
       0.9614   0.9973
    Number of electrons: 26.000000
    Number of unpaired electrons: n_u =  2.74847, n_u,nl =  2.11501
    NO participation ratio (PR_NO):  3.873824
  
  
  Mulliken Population Analysis
  Atom      Charge (e)              h+              e-           Del q
  --------------------------------------------------------------------
   1 C       -0.708050        0.034200       -0.549782       -0.515582
   2 C       -0.708050        0.034200       -0.549782       -0.515582
   3 H        0.132842        0.002261       -0.052635       -0.050374
   4 H        0.132842        0.002261       -0.052635       -0.050374
   5 H        0.042239        0.048617       -0.025073        0.023544
   6 H        0.042239        0.048617       -0.025073        0.023544
   7 O       -0.050634        1.406401       -0.384894        1.021507
   8 H        0.116572        0.130683       -0.067366        0.063317
  --------------------------------------------------------------------
  Sum:       -1.000000        1.707240       -1.707240        0.000000
  
  Multipole moment analysis of the density matrix
    Molecular charge:                      -1.000000
    Number of electrons:                   26.000000
      Center of electronic charge [Ang]: [  0.000000,   0.000000,   0.111188]
    Total nuclear charge:                  25.000000
      Center of nuclear charge [Ang]:    [  0.000000,   0.000000,  -0.000000]
    Dipole moment [D]:                     13.885560
      Cartesian components [D]:          [ -0.000000,  -0.000000, -13.885560]
    RMS size of the density [Ang]:         1.934279
      Cartesian components [Ang]:        [  0.888686,   0.584776,   1.615459]
  
  Exciton analysis of the difference density matrix
    <r_h> [Ang]:                  [ -0.000000,   0.000000,  -1.419205]
    <r_e> [Ang]:                  [ -0.000000,   0.000000,   0.940556]
    |<r_e - r_h>| [Ang]:            2.359761
    Hole size [Ang]:                1.820369
      Cartesian components [Ang]: [  0.844793,   0.873974,   1.355079]
    Electron size [Ang]:            3.825476
      Cartesian components [Ang]: [  1.855332,   1.621407,   2.926268]

  Transition density matrix analysis:
  -----------------------------------
  
  CT numbers (Mulliken)
    omega =     0.8524
    <Phe> =    -0.0011
  
  Exciton analysis of the transition density matrix
    Trans. dipole moment [D]:             0.650243
      Cartesian components [D]:         [  0.000000,   0.650243,   0.000000]
    <r_h> [Ang]:                        [ -0.000000,   0.000000,  -1.739327]
    <r_e> [Ang]:                        [  0.000000,   0.000000,   2.401943]
    |<r_e - r_h>| [Ang]:                  4.141270
    Hole size [Ang]:                      1.101528
      Cartesian components [Ang]:       [  0.477541,   0.823162,   0.554727]
    Electron size [Ang]:                  4.195137
      Cartesian components [Ang]:       [  2.303206,   2.031973,   2.857535]
    RMS electron-hole separation [Ang]:   5.995227
      Cartesian components [Ang]:       [  2.351928,   2.190930,   5.060732]
    Covariance(r_h, r_e) [Ang^2]:         0.009954
    Correlation coefficient:              0.002154
    Center-of-mass size [Ang]:            2.169819
      Cartesian components [Ang]:       [  1.176227,   1.096910,   1.456500]

  Decomposition into state-averaged NTOs
    H- 0 -> L+ 1:  0.5314 ( 56.5%)
    H- 0 -> L+ 0:  0.2843 ( 16.2%)
    H- 0 -> L+ 6: -0.1611 (  5.2%)
    H- 0 -> L+ 2: -0.1371 (  3.8%)
    H- 0 -> L+ 3:  0.1341 (  3.6%)
                   omega =  85.2%
  ----------------------------------------------------------------------------


  Excited state 2 (singlet, B2)                                    [converged]
  ----------------------------------------------------------------------------
  Term symbol:  2 (1) B2                                    R^2 =  6.65543e-09

  Total energy:                                           -153.8732848776 a.u.
  Excitation energy:                                               2.620634 eV

  Osc. strength:                                                      0.003818
  Trans. dip. moment [a.u.]:           [   0.000000,    0.243856,    0.000000]
  <i|r^2|0> [a.u.]:                    [  -0.000000,    0.000000,   -0.000000]

  Dip. moment [a.u.]:                  [   0.000000,   -0.000000,   -2.161036]
  Total dipole [Debye]:                                               5.492806
  <r^2> [a.u.]:                        [ 107.681332,   27.010459,  209.290919]
  Total <r^2> [a.u.]:                                               343.982710

  V1^2 = 0.8713, V2^2 = 0.1287

  Important amplitudes:
      occ i      occ j       vir a       vir b          v   
    ---------------------------------------------------------
     2 (B2) A               9 (A1) A                  0.5982
     2 (B2) A               8 (A1) A                 -0.1886
    ---------------------------------------------------------

  Density matrix analysis:
  ------------------------
  NOs
    Occupation of frontier NOs:
       0.9647   0.9938
    Number of electrons: 26.000000
    Number of unpaired electrons: n_u =  2.75301, n_u,nl =  2.11683
    NO participation ratio (PR_NO):  3.887221
  
  
  Mulliken Population Analysis
  Atom      Charge (e)              h+              e-           Del q
  --------------------------------------------------------------------
   1 C       -0.694767        0.029401       -0.531700       -0.502298
   2 C       -0.694767        0.029401       -0.531700       -0.502298
   3 H        0.161025        0.006825       -0.029016       -0.022191
   4 H        0.161025        0.006825       -0.029016       -0.022191
   5 H        0.059383        0.032145        0.008542        0.040688
   6 H        0.059383        0.032145        0.008542        0.040688
   7 O       -0.285732        1.390923       -0.604514        0.786408
   8 H        0.234449        0.140312        0.040882        0.181194
  --------------------------------------------------------------------
  Sum:       -1.000000        1.667978       -1.667978        0.000000
  
  Multipole moment analysis of the density matrix
    Molecular charge:                      -1.000000
    Number of electrons:                   26.000000
      Center of electronic charge [Ang]: [ -0.000000,   0.000000,   0.043983]
    Total nuclear charge:                  25.000000
      Center of nuclear charge [Ang]:    [  0.000000,   0.000000,  -0.000000]
    Dipole moment [D]:                     5.492804
      Cartesian components [D]:          [  0.000000,  -0.000000,  -5.492804]
    RMS size of the density [Ang]:         1.924285
      Cartesian components [Ang]:        [  1.076923,   0.539362,   1.500732]
  
  Exciton analysis of the difference density matrix
    <r_h> [Ang]:                  [ -0.000000,   0.000000,  -1.499795]
    <r_e> [Ang]:                  [ -0.000000,   0.000000,  -0.132058]
    |<r_e - r_h>| [Ang]:            1.367737
    Hole size [Ang]:                1.755561
      Cartesian components [Ang]: [  0.854864,   0.877536,   1.257431]
    Electron size [Ang]:            3.870555
      Cartesian components [Ang]: [  3.048124,   1.372347,   1.951103]

  Transition density matrix analysis:
  -----------------------------------
  
  CT numbers (Mulliken)
    omega =     0.8560
    <Phe> =    -0.0008
  
  Exciton analysis of the transition density matrix
    Trans. dipole moment [D]:             0.309910
      Cartesian components [D]:         [  0.000000,   0.309910,   0.000000]
    <r_h> [Ang]:                        [ -0.000000,   0.000000,  -1.742826]
    <r_e> [Ang]:                        [ -0.000000,  -0.000000,   0.604501]
    |<r_e - r_h>| [Ang]:                  2.347327
    Hole size [Ang]:                      1.095780
      Cartesian components [Ang]:       [  0.478364,   0.822243,   0.543893]
    Electron size [Ang]:                  4.651244
      Cartesian components [Ang]:       [  3.864183,   1.672594,   1.976005]
    RMS electron-hole separation [Ang]:   5.322918
      Cartesian components [Ang]:       [  3.893202,   1.863237,   3.115249]
    Covariance(r_h, r_e) [Ang^2]:         0.005648
    Correlation coefficient:              0.001108
    Center-of-mass size [Ang]:            2.389880
      Cartesian components [Ang]:       [  1.947078,   0.932155,   1.025426]

  Decomposition into state-averaged NTOs
    H- 0 -> L+ 0:  0.5481 ( 60.1%)
    H- 0 -> L+ 1: -0.3329 ( 22.2%)
    H- 0 -> L+ 2: -0.1169 (  2.7%)
                   omega =  85.6%
  ----------------------------------------------------------------------------


  Excited state 3 (singlet, B2)                                    [converged]
  ----------------------------------------------------------------------------
  Term symbol:  3 (1) B2                                    R^2 =  9.62255e-09

  Total energy:                                           -153.8667943858 a.u.
  Excitation energy:                                               2.797249 eV

  Osc. strength:                                                      0.003145
  Trans. dip. moment [a.u.]:           [  -0.000000,   -0.214221,    0.000000]
  <i|r^2|0> [a.u.]:                    [  -0.000000,   -0.000000,    0.000000]

  Dip. moment [a.u.]:                  [   0.000000,   -0.000000,   -2.857686]
  Total dipole [Debye]:                                               7.263514
  <r^2> [a.u.]:                        [  84.340890,   48.436569,  207.982692]
  Total <r^2> [a.u.]:                                               340.760151

  V1^2 = 0.8698, V2^2 = 0.1302

  Important amplitudes:
      occ i      occ j       vir a       vir b          v   
    ---------------------------------------------------------
     4 (B1) A               1 (A2) A                  0.6396
     4 (B1) A               2 (A2) A                 -0.1541
    ---------------------------------------------------------

  Density matrix analysis:
  ------------------------
  NOs
    Occupation of frontier NOs:
       0.9652   0.9942
    Number of electrons: 26.000000
    Number of unpaired electrons: n_u =  2.75057, n_u,nl =  2.11458
    NO participation ratio (PR_NO):  3.878233
  
  
  Mulliken Population Analysis
  Atom      Charge (e)              h+              e-           Del q
  --------------------------------------------------------------------
   1 C       -0.674709        0.039473       -0.521714       -0.482241
   2 C       -0.674709        0.039473       -0.521714       -0.482241
   3 H        0.135846        0.000943       -0.048313       -0.047371
   4 H        0.135846        0.000943       -0.048313       -0.047371
   5 H        0.045440        0.027756       -0.001012        0.026745
   6 H        0.045440        0.027756       -0.001012        0.026745
   7 O       -0.174316        1.398361       -0.500537        0.897825
   8 H        0.161164        0.131115       -0.023207        0.107909
  --------------------------------------------------------------------
  Sum:       -1.000000        1.665821       -1.665821       -0.000000
  
  Multipole moment analysis of the density matrix
    Molecular charge:                      -1.000000
    Number of electrons:                   26.000000
      Center of electronic charge [Ang]: [ -0.000000,   0.000000,   0.058162]
    Total nuclear charge:                  25.000000
      Center of nuclear charge [Ang]:    [  0.000000,   0.000000,  -0.000000]
    Dipole moment [D]:                     7.263512
      Cartesian components [D]:          [  0.000000,  -0.000000,  -7.263512]
    RMS size of the density [Ang]:         1.914867
      Cartesian components [Ang]:        [  0.953089,   0.722273,   1.495546]
  
  Exciton analysis of the difference density matrix
    <r_h> [Ang]:                  [ -0.000000,  -0.000000,  -1.494846]
    <r_e> [Ang]:                  [ -0.000000,   0.000000,   0.095965]
    |<r_e - r_h>| [Ang]:            1.590811
    Hole size [Ang]:                1.736438
      Cartesian components [Ang]: [  0.920833,   0.769778,   1.254880]
    Electron size [Ang]:            3.791916
      Cartesian components [Ang]: [  2.344291,   2.304137,   1.890471]

  Transition density matrix analysis:
  -----------------------------------
  
  CT numbers (Mulliken)
    omega =     0.8531
    <Phe> =     0.0000
  
  Exciton analysis of the transition density matrix
    Trans. dipole moment [D]:             0.272248
      Cartesian components [D]:         [ -0.000000,  -0.272248,   0.000000]
    <r_h> [Ang]:                        [ -0.000000,   0.000000,  -1.720097]
    <r_e> [Ang]:                        [ -0.000000,   0.000000,   1.025441]
    |<r_e - r_h>| [Ang]:                  2.745538
    Hole size [Ang]:                      1.144896
      Cartesian components [Ang]:       [  0.823421,   0.471165,   0.640912]
    Electron size [Ang]:                  4.474916
      Cartesian components [Ang]:       [  2.953192,   2.909202,   1.685250]
    RMS electron-hole separation [Ang]:   5.371976
      Cartesian components [Ang]:       [  3.063543,   2.946910,   3.284593]
    Covariance(r_h, r_e) [Ang^2]:         0.007755
    Correlation coefficient:              0.001514
    Center-of-mass size [Ang]:            2.310366
      Cartesian components [Ang]:       [  1.534067,   1.473654,   0.901540]

  Decomposition into state-averaged NTOs
    H- 2 -> L+ 5: -0.6365 ( 81.0%)
    H- 2 -> L+ 7:  0.1404 (  3.9%)
                   omega =  85.3%
  ----------------------------------------------------------------------------


  Excited state 4 (singlet, B2)                                    [converged]
  ----------------------------------------------------------------------------
  Term symbol:  4 (1) B2                                    R^2 =  2.54386e-08

  Total energy:                                           -153.8358199867 a.u.
  Excitation energy:                                               3.640106 eV

  Osc. strength:                                                      0.040603
  Trans. dip. moment [a.u.]:           [   0.000000,    0.674753,   -0.000000]
  <i|r^2|0> [a.u.]:                    [   0.000000,   -0.000000,    0.000000]

  Dip. moment [a.u.]:                  [  -0.000000,   -0.000000,    0.455822]
  Total dipole [Debye]:                                               1.158584
  <r^2> [a.u.]:                        [  66.788700,   28.126344,  223.506274]
  Total <r^2> [a.u.]:                                               318.421318

  V1^2 = 0.8869, V2^2 = 0.1131

  Important amplitudes:
      occ i      occ j       vir a       vir b          v   
    ---------------------------------------------------------
     2 (B2) A              10 (A1) A                 -0.5033
     2 (B2) A              11 (A1) A                  0.3640
    ---------------------------------------------------------

  Density matrix analysis:
  ------------------------
  NOs
    Occupation of frontier NOs:
       0.9653   0.9935
    Number of electrons: 26.000000
    Number of unpaired electrons: n_u =  2.73093, n_u,nl =  2.10773
    NO participation ratio (PR_NO):  3.828849
  
  
  Mulliken Population Analysis
  Atom      Charge (e)              h+              e-           Del q
  --------------------------------------------------------------------
   1 C       -0.569084        0.027803       -0.404418       -0.376615
   2 C       -0.569084        0.027803       -0.404418       -0.376615
   3 H        0.139170        0.002941       -0.046988       -0.044047
   4 H        0.139170        0.002941       -0.046988       -0.044047
   5 H        0.030599        0.021399       -0.009495        0.011904
   6 H        0.030599        0.021399       -0.009495        0.011904
   7 O       -0.874883        1.299429       -1.102171        0.197258
   8 H        0.673513        0.170951        0.449306        0.620258
  --------------------------------------------------------------------
  Sum:       -1.000000        1.574666       -1.574666        0.000000
  
  Multipole moment analysis of the density matrix
    Molecular charge:                      -1.000000
    Number of electrons:                   26.000000
      Center of electronic charge [Ang]: [  0.000000,   0.000000,  -0.009277]
    Total nuclear charge:                  25.000000
      Center of nuclear charge [Ang]:    [  0.000000,   0.000000,  -0.000000]
    Dipole moment [D]:                     1.158584
      Cartesian components [D]:          [ -0.000000,  -0.000000,   1.158584]
    RMS size of the density [Ang]:         1.851868
      Cartesian components [Ang]:        [  0.848137,   0.550391,   1.551499]
  
  Exciton analysis of the difference density matrix
    <r_h> [Ang]:                  [ -0.000000,   0.000000,  -1.546077]
    <r_e> [Ang]:                  [  0.000000,   0.000000,  -0.976703]
    |<r_e - r_h>| [Ang]:            0.569374
    Hole size [Ang]:                1.680561
      Cartesian components [Ang]: [  0.805730,   0.871352,   1.189887]
    Electron size [Ang]:            3.155176
      Cartesian components [Ang]: [  1.563537,   1.461825,   2.318092]

  Transition density matrix analysis:
  -----------------------------------
  
  CT numbers (Mulliken)
    omega =     0.8695
    <Phe> =    -0.0091
  
  Exciton analysis of the transition density matrix
    Trans. dipole moment [D]:             0.857526
      Cartesian components [D]:         [  0.000000,   0.857526,  -0.000000]
    <r_h> [Ang]:                        [  0.000000,   0.000000,  -1.738091]
    <r_e> [Ang]:                        [  0.000000,   0.000000,  -0.847729]
    |<r_e - r_h>| [Ang]:                  0.890362
    Hole size [Ang]:                      1.097393
      Cartesian components [Ang]:       [  0.475356,   0.818997,   0.554573]
    Electron size [Ang]:                  3.733042
      Cartesian components [Ang]:       [  1.836069,   1.747404,   2.740626]
    RMS electron-hole separation [Ang]:   3.979047
      Cartesian components [Ang]:       [  1.896274,   1.925546,   2.920485]
    Covariance(r_h, r_e) [Ang^2]:         0.049900
    Correlation coefficient:              0.012181
    Center-of-mass size [Ang]:            1.951901
      Cartesian components [Ang]:       [  0.948468,   0.967035,   1.405407]

  Decomposition into state-averaged NTOs
    H- 0 -> L+ 2: -0.4884 ( 47.7%)
    H- 0 -> L+ 3:  0.3567 ( 25.4%)
    H- 0 -> L+ 0: -0.1945 (  7.6%)
    H- 0 -> L+ 1: -0.1372 (  3.8%)
    H- 0 -> L+ 6: -0.1069 (  2.3%)
                   omega =  86.9%
  ----------------------------------------------------------------------------


  Excited state 5 (singlet, B2)                                    [converged]
  ----------------------------------------------------------------------------
  Term symbol:  5 (1) B2                                    R^2 =  7.18268e-08

  Total energy:                                           -153.8048442588 a.u.
  Excitation energy:                                               4.482998 eV

  Osc. strength:                                                      0.000291
  Trans. dip. moment [a.u.]:           [  -0.000000,    0.051478,    0.000000]
  <i|r^2|0> [a.u.]:                    [   0.000000,    0.000000,    0.000000]

  Dip. moment [a.u.]:                  [   0.000000,   -0.000000,   -2.792025]
  Total dipole [Debye]:                                               7.096622
  <r^2> [a.u.]:                        [  67.315613,   30.956609,  203.486373]
  Total <r^2> [a.u.]:                                               301.758595

  V1^2 = 0.8676, V2^2 = 0.1324

  Important amplitudes:
      occ i      occ j       vir a       vir b          v   
    ---------------------------------------------------------
     4 (B1) A               2 (A2) A                 -0.6241
     4 (B1) A               1 (A2) A                 -0.1528
    ---------------------------------------------------------

  Density matrix analysis:
  ------------------------
  NOs
    Occupation of frontier NOs:
       0.9659   0.9949
    Number of electrons: 26.000000
    Number of unpaired electrons: n_u =  2.72257, n_u,nl =  2.10099
    NO participation ratio (PR_NO):  3.801251
  
  
  Mulliken Population Analysis
  Atom      Charge (e)              h+              e-           Del q
  --------------------------------------------------------------------
   1 C       -0.598193        0.108006       -0.513731       -0.405725
   2 C       -0.598193        0.108006       -0.513731       -0.405725
   3 H        0.106090        0.004605       -0.081732       -0.077126
   4 H        0.106090        0.004605       -0.081732       -0.077126
   5 H        0.002466        0.010024       -0.026253       -0.016229
   6 H        0.002466        0.010024       -0.026253       -0.016229
   7 O       -0.169201        1.349113       -0.446174        0.902940
   8 H        0.148477        0.115744       -0.020523        0.095221
  --------------------------------------------------------------------
  Sum:       -1.000000        1.710127       -1.710127       -0.000000
  
  Multipole moment analysis of the density matrix
    Molecular charge:                      -1.000000
    Number of electrons:                   26.000000
      Center of electronic charge [Ang]: [ -0.000000,   0.000000,   0.056826]
    Total nuclear charge:                  25.000000
      Center of nuclear charge [Ang]:    [  0.000000,   0.000000,  -0.000000]
    Dipole moment [D]:                     7.096620
      Cartesian components [D]:          [  0.000000,  -0.000000,  -7.096620]
    RMS size of the density [Ang]:         1.801891
      Cartesian components [Ang]:        [  0.851476,   0.577419,   1.479319]
  
  Exciton analysis of the difference density matrix
    <r_h> [Ang]:                  [ -0.000000,  -0.000000,  -1.338757]
    <r_e> [Ang]:                  [ -0.000000,   0.000000,   0.190521]
    |<r_e - r_h>| [Ang]:            1.529278
    Hole size [Ang]:                1.734979
      Cartesian components [Ang]: [  0.893706,   0.725120,   1.298323]
    Electron size [Ang]:            2.698339
      Cartesian components [Ang]: [  1.593179,   1.502597,   1.576392]

  Transition density matrix analysis:
  -----------------------------------
  
  CT numbers (Mulliken)
    omega =     0.8404
    <Phe> =    -0.0008
  
  Exciton analysis of the transition density matrix
    Trans. dipole moment [D]:             0.065423
      Cartesian components [D]:         [ -0.000000,   0.065423,   0.000000]
    <r_h> [Ang]:                        [ -0.000000,   0.000000,  -1.686634]
    <r_e> [Ang]:                        [ -0.000000,   0.000000,   1.024752]
    |<r_e - r_h>| [Ang]:                  2.711386
    Hole size [Ang]:                      1.184979
      Cartesian components [Ang]:       [  0.823442,   0.466742,   0.712930]
    Electron size [Ang]:                  2.884377
      Cartesian components [Ang]:       [  1.927966,   1.852229,   1.082507]
    RMS electron-hole separation [Ang]:   4.130003
      Cartesian components [Ang]:       [  2.092782,   1.909784,   3.004982]
    Covariance(r_h, r_e) [Ang^2]:         0.009244
    Correlation coefficient:              0.002705
    Center-of-mass size [Ang]:            1.560632
      Cartesian components [Ang]:       [  1.050058,   0.955239,   0.648437]

  Decomposition into state-averaged NTOs
    H- 2 -> L+ 7:  0.6318 ( 79.8%)
    H- 2 -> L+ 5:  0.1421 (  4.0%)
                   omega =  84.0%
  ----------------------------------------------------------------------------


  Excited state 6 (singlet, B2)                                    [converged]
  ----------------------------------------------------------------------------
  Term symbol:  6 (1) B2                                    R^2 =  4.22957e-08

  Total energy:                                           -153.7949352241 a.u.
  Excitation energy:                                               4.752637 eV

  Osc. strength:                                                      0.000139
  Trans. dip. moment [a.u.]:           [  -0.000000,   -0.034555,    0.000000]
  <i|r^2|0> [a.u.]:                    [  -0.000000,   -0.000000,   -0.000000]

  Dip. moment [a.u.]:                  [   0.000000,   -0.000000,   -0.225207]
  Total dipole [Debye]:                                               0.572419
  <r^2> [a.u.]:                        [  67.571577,   29.974335,  221.252824]
  Total <r^2> [a.u.]:                                               318.798735

  V1^2 = 0.8861, V2^2 = 0.1139

  Important amplitudes:
      occ i      occ j       vir a       vir b          v   
    ---------------------------------------------------------
     2 (B2) A              11 (A1) A                 -0.5098
     2 (B2) A              10 (A1) A                 -0.3761
    ---------------------------------------------------------

  Density matrix analysis:
  ------------------------
  NOs
    Occupation of frontier NOs:
       0.9666   0.9938
    Number of electrons: 26.000000
    Number of unpaired electrons: n_u =  2.73307, n_u,nl =  2.10762
    NO participation ratio (PR_NO):  3.828950
  
  
  Mulliken Population Analysis
  Atom      Charge (e)              h+              e-           Del q
  --------------------------------------------------------------------
   1 C       -0.495215        0.041475       -0.344222       -0.302747
   2 C       -0.495215        0.041475       -0.344222       -0.302747
   3 H        0.232469        0.006331        0.042921        0.049253
   4 H        0.232469        0.006331        0.042921        0.049253
   5 H        0.159931        0.018806        0.122430        0.141236
   6 H        0.159931        0.018806        0.122430        0.141236
   7 O       -1.338793        1.278743       -1.545395       -0.266652
   8 H        0.544424        0.168825        0.322343        0.491168
  --------------------------------------------------------------------
  Sum:       -1.000000        1.580793       -1.580793        0.000000
  
  Multipole moment analysis of the density matrix
    Molecular charge:                      -1.000000
    Number of electrons:                   26.000000
      Center of electronic charge [Ang]: [ -0.000000,   0.000000,   0.004584]
    Total nuclear charge:                  25.000000
      Center of nuclear charge [Ang]:    [  0.000000,   0.000000,  -0.000000]
    Dipole moment [D]:                     0.572419
      Cartesian components [D]:          [  0.000000,  -0.000000,  -0.572419]
    RMS size of the density [Ang]:         1.852983
      Cartesian components [Ang]:        [  0.853093,   0.568184,   1.543679]
  
  Exciton analysis of the difference density matrix
    <r_h> [Ang]:                  [ -0.000000,   0.000000,  -1.528658]
    <r_e> [Ang]:                  [ -0.000000,   0.000000,  -0.733513]
    |<r_e - r_h>| [Ang]:            0.795144
    Hole size [Ang]:                1.686100
      Cartesian components [Ang]: [  0.818484,   0.871437,   1.188955]
    Electron size [Ang]:            3.221943
      Cartesian components [Ang]: [  1.611548,   1.568152,   2.307537]

  Transition density matrix analysis:
  -----------------------------------
  
  CT numbers (Mulliken)
    omega =     0.8683
    <Phe> =    -0.0032
  
  Exciton analysis of the transition density matrix
    Trans. dipole moment [D]:             0.043915
      Cartesian components [D]:         [ -0.000000,  -0.043915,   0.000000]
    <r_h> [Ang]:                        [ -0.000000,   0.000000,  -1.736889]
    <r_e> [Ang]:                        [ -0.000000,  -0.000000,  -0.476795]
    |<r_e - r_h>| [Ang]:                  1.260094
    Hole size [Ang]:                      1.098475
      Cartesian components [Ang]:       [  0.475516,   0.818820,   0.556834]
    Electron size [Ang]:                  3.808056
      Cartesian components [Ang]:       [  1.897548,   1.887504,   2.708862]
    RMS electron-hole separation [Ang]:   4.148575
      Cartesian components [Ang]:       [  1.955818,   2.052913,   3.028366]
    Covariance(r_h, r_e) [Ang^2]:         0.042548
    Correlation coefficient:              0.010171
    Center-of-mass size [Ang]:            1.987022
      Cartesian components [Ang]:       [  0.978312,   1.030998,   1.388599]

  Decomposition into state-averaged NTOs
    H- 0 -> L+ 3:  0.4445 ( 39.5%)
    H- 0 -> L+ 2:  0.4102 ( 33.6%)
    H- 0 -> L+ 6: -0.2436 ( 11.9%)
    H- 0 -> L+ 1: -0.0877 (  1.5%)
                   omega =  86.8%
  ----------------------------------------------------------------------------


  Excited state 7 (singlet, B2)                                    [converged]
  ----------------------------------------------------------------------------
  Term symbol:  7 (1) B2                                    R^2 =  2.14898e-08

  Total energy:                                           -153.7569774597 a.u.
  Excitation energy:                                               5.785520 eV

  Osc. strength:                                                      0.034310
  Trans. dip. moment [a.u.]:           [  -0.000000,   -0.491996,    0.000000]
  <i|r^2|0> [a.u.]:                    [  -0.000000,    0.000000,   -0.000000]

  Dip. moment [a.u.]:                  [   0.000000,   -0.000000,   -1.463780]
  Total dipole [Debye]:                                               3.720557
  <r^2> [a.u.]:                        [  69.545015,   28.336201,  244.117984]
  Total <r^2> [a.u.]:                                               341.999201

  V1^2 = 0.9453, V2^2 = 0.0547

  Important amplitudes:
      occ i      occ j       vir a       vir b          v   
    ---------------------------------------------------------
     1 (B2) A               8 (A1) A                  0.6329
     1 (B2) A              10 (A1) A                  0.1957
    ---------------------------------------------------------

  Density matrix analysis:
  ------------------------
  NOs
    Occupation of frontier NOs:
       0.9870   0.9923
    Number of electrons: 26.000000
    Number of unpaired electrons: n_u =  2.61391, n_u,nl =  2.06693
    NO participation ratio (PR_NO):  3.457245
  
  
  Mulliken Population Analysis
  Atom      Charge (e)              h+              e-           Del q
  --------------------------------------------------------------------
   1 C       -0.377492        0.531309       -0.716333       -0.185024
   2 C       -0.377492        0.531309       -0.716333       -0.185024
   3 H        0.239019        0.058993       -0.003191        0.055802
   4 H        0.239019        0.058993       -0.003191        0.055802
   5 H        0.123254        0.125422       -0.020863        0.104559
   6 H        0.123254        0.125422       -0.020863        0.104559
   7 O       -1.030145        0.049778       -0.007782        0.041996
   8 H        0.060584        0.022441       -0.015113        0.007328
  --------------------------------------------------------------------
  Sum:       -1.000000        1.503669       -1.503669        0.000000
  
  Multipole moment analysis of the density matrix
    Molecular charge:                      -1.000000
    Number of electrons:                   26.000000
      Center of electronic charge [Ang]: [ -0.000000,   0.000000,   0.029792]
    Total nuclear charge:                  25.000000
      Center of nuclear charge [Ang]:    [  0.000000,   0.000000,  -0.000000]
    Dipole moment [D]:                     3.720556
      Cartesian components [D]:          [  0.000000,  -0.000000,  -3.720556]
    RMS size of the density [Ang]:         1.918999
      Cartesian components [Ang]:        [  0.865461,   0.552440,   1.621217]
  
  Exciton analysis of the difference density matrix
    <r_h> [Ang]:                  [ -0.000000,  -0.000000,   0.924909]
    <r_e> [Ang]:                  [ -0.000000,   0.000000,   2.196720]
    |<r_e - r_h>| [Ang]:            1.271811
    Hole size [Ang]:                1.808103
      Cartesian components [Ang]: [  1.054670,   0.910280,   1.152518]
    Electron size [Ang]:            3.106983
      Cartesian components [Ang]: [  1.872395,   1.520006,   1.958842]

  Transition density matrix analysis:
  -----------------------------------
  
  CT numbers (Mulliken)
    omega =     0.9143
    <Phe> =    -0.0048
  
  Exciton analysis of the transition density matrix
    Trans. dipole moment [D]:             0.625265
      Cartesian components [D]:         [ -0.000000,  -0.625265,   0.000000]
    <r_h> [Ang]:                        [ -0.000000,   0.000000,   1.014988]
    <r_e> [Ang]:                        [ -0.000000,   0.000000,   2.961281]
    |<r_e - r_h>| [Ang]:                  1.946293
    Hole size [Ang]:                      1.311891
      Cartesian components [Ang]:       [  0.766530,   0.892986,   0.579711]
    Electron size [Ang]:                  3.360985
      Cartesian components [Ang]:       [  2.184297,   1.803584,   1.808909]
    RMS electron-hole separation [Ang]:   4.090968
      Cartesian components [Ang]:       [  2.310538,   2.008823,   2.713312]
    Covariance(r_h, r_e) [Ang^2]:         0.034658
    Correlation coefficient:              0.007860
    Center-of-mass size [Ang]:            1.808770
      Cartesian components [Ang]:       [  1.159618,   1.008130,   0.954257]

  Decomposition into state-averaged NTOs
    H- 1 -> L+ 1:  0.6337 ( 80.3%)
    H- 1 -> L+ 0:  0.2315 ( 10.7%)
                   omega =  91.4%
  ----------------------------------------------------------------------------


  Excited state 8 (singlet, B2)                                    [converged]
  ----------------------------------------------------------------------------
  Term symbol:  8 (1) B2                                    R^2 =  1.55994e-07

  Total energy:                                           -153.7263910475 a.u.
  Excitation energy:                                               6.617819 eV

  Osc. strength:                                                      0.000136
  Trans. dip. moment [a.u.]:           [  -0.000000,    0.028951,   -0.000000]
  <i|r^2|0> [a.u.]:                    [  -0.000000,   -0.000000,   -0.000000]

  Dip. moment [a.u.]:                  [   0.000000,    0.000000,   -3.034973]
  Total dipole [Debye]:                                               7.714134
  <r^2> [a.u.]:                        [  68.770671,   59.460068,  210.506478]
  Total <r^2> [a.u.]:                                               338.737217

  V1^2 = 0.8747, V2^2 = 0.1253

  Important amplitudes:
      occ i      occ j       vir a       vir b          v   
    ---------------------------------------------------------
     7 (A1) A               3 (B2) A                  0.6543
     7 (A1) A               5 (B2) A                  0.0524
    ---------------------------------------------------------

  Density matrix analysis:
  ------------------------
  NOs
    Occupation of frontier NOs:
       0.9866   0.9934
    Number of electrons: 26.000000
    Number of unpaired electrons: n_u =  2.80570, n_u,nl =  2.13172
    NO participation ratio (PR_NO):  3.945362
  
  
  Mulliken Population Analysis
  Atom      Charge (e)              h+              e-           Del q
  --------------------------------------------------------------------
   1 C       -0.681630        0.059402       -0.548563       -0.489161
   2 C       -0.681630        0.059402       -0.548563       -0.489161
   3 H        0.142963        0.004158       -0.044411       -0.040253
   4 H        0.142963        0.004158       -0.044411       -0.040253
   5 H        0.049234        0.033043       -0.002505        0.030539
   6 H        0.049234        0.033043       -0.002505        0.030539
   7 O       -0.349366        1.198906       -0.476131        0.722775
   8 H        0.328231        0.291203       -0.016227        0.274976
  --------------------------------------------------------------------
  Sum:       -1.000000        1.683317       -1.683317       -0.000000
  
  Multipole moment analysis of the density matrix
    Molecular charge:                      -1.000000
    Number of electrons:                   26.000000
      Center of electronic charge [Ang]: [ -0.000000,  -0.000000,   0.061771]
    Total nuclear charge:                  25.000000
      Center of nuclear charge [Ang]:    [  0.000000,   0.000000,  -0.000000]
    Dipole moment [D]:                     7.714132
      Cartesian components [D]:          [  0.000000,   0.000000,  -7.714132]
    RMS size of the density [Ang]:         1.909056
      Cartesian components [Ang]:        [  0.860629,   0.800253,   1.504463]
  
  Exciton analysis of the difference density matrix
    <r_h> [Ang]:                  [ -0.000000,  -0.000000,  -1.390070]
    <r_e> [Ang]:                  [ -0.000000,  -0.000000,   0.239940]
    |<r_e - r_h>| [Ang]:            1.630010
    Hole size [Ang]:                1.815235
      Cartesian components [Ang]: [  0.839872,   0.759153,   1.418937]
    Electron size [Ang]:            3.725098
      Cartesian components [Ang]: [  1.647622,   2.660375,   2.020915]

  Transition density matrix analysis:
  -----------------------------------
  
  CT numbers (Mulliken)
    omega =     0.8570
    <Phe> =    -0.0000
  
  Exciton analysis of the transition density matrix
    Trans. dipole moment [D]:             0.036793
      Cartesian components [D]:         [ -0.000000,   0.036793,  -0.000000]
    <r_h> [Ang]:                        [ -0.000000,  -0.000000,  -1.694379]
    <r_e> [Ang]:                        [ -0.000000,  -0.000000,   1.190501]
    |<r_e - r_h>| [Ang]:                  2.884880
    Hole size [Ang]:                      1.164643
      Cartesian components [Ang]:       [  0.459626,   0.409790,   0.988539]
    Electron size [Ang]:                  4.366065
      Cartesian components [Ang]:       [  2.008887,   3.393337,   1.874078]
    RMS electron-hole separation [Ang]:   5.358191
      Cartesian components [Ang]:       [  2.059252,   3.416282,   3.577528]
    Covariance(r_h, r_e) [Ang^2]:         0.015619
    Correlation coefficient:              0.003072
    Center-of-mass size [Ang]:            2.261093
      Cartesian components [Ang]:       [  1.031170,   1.709849,   1.060964]

  Decomposition into state-averaged NTOs
    H- 3 -> L+ 4:  0.6524 ( 85.1%)
                   omega =  85.7%
  ----------------------------------------------------------------------------


  Excited state 9 (singlet, B2)                                    [converged]
  ----------------------------------------------------------------------------
  Term symbol:  9 (1) B2                                    R^2 =  2.20758e-06

  Total energy:                                           -153.7222297562 a.u.
  Excitation energy:                                               6.731053 eV

  Osc. strength:                                                      0.000000
  Trans. dip. moment [a.u.]:           [   0.000000,   -0.000797,   -0.000000]
  <i|r^2|0> [a.u.]:                    [  -0.000000,   -0.000000,    0.000000]

  Dip. moment [a.u.]:                  [   0.000000,   -0.000000,   -0.329141]
  Total dipole [Debye]:                                               0.836593
  <r^2> [a.u.]:                        [  89.134945,   26.813406,  220.014856]
  Total <r^2> [a.u.]:                                               335.963207

  V1^2 = 0.9156, V2^2 = 0.0844

  Important amplitudes:
      occ i      occ j       vir a       vir b          v   
    ---------------------------------------------------------
     1 (B2) A               9 (A1) A                 -0.5226
     2 (B2) A              12 (A1) A                  0.3874
    ---------------------------------------------------------

  Density matrix analysis:
  ------------------------
  NOs
    Occupation of frontier NOs:
       0.6372   1.3212
    Number of electrons: 26.000000
    Number of unpaired electrons: n_u =  2.75806, n_u,nl =  2.40358
    NO participation ratio (PR_NO):  6.443912
  
  
  Mulliken Population Analysis
  Atom      Charge (e)              h+              e-           Del q
  --------------------------------------------------------------------
   1 C       -0.532760        0.330094       -0.670386       -0.340292
   2 C       -0.532760        0.330094       -0.670386       -0.340292
   3 H        0.243320        0.038522        0.021581        0.060103
   4 H        0.243320        0.038522        0.021581        0.060103
   5 H        0.091820        0.079554       -0.006429        0.073125
   6 H        0.091820        0.079554       -0.006429        0.073125
   7 O       -0.711643        0.506275       -0.145778        0.360498
   8 H        0.106884        0.062398       -0.008769        0.053629
  --------------------------------------------------------------------
  Sum:       -1.000000        1.465013       -1.465013       -0.000000
  
  Multipole moment analysis of the density matrix
    Molecular charge:                      -1.000000
    Number of electrons:                   26.000000
      Center of electronic charge [Ang]: [ -0.000000,   0.000000,   0.006699]
    Total nuclear charge:                  25.000000
      Center of nuclear charge [Ang]:    [  0.000000,   0.000000,  -0.000000]
    Dipole moment [D]:                     0.836592
      Cartesian components [D]:          [  0.000000,  -0.000000,  -0.836592]
    RMS size of the density [Ang]:         1.902206
      Cartesian components [Ang]:        [  0.979802,   0.537391,   1.539346]
  
  Exciton analysis of the difference density matrix
    <r_h> [Ang]:                  [ -0.000000,  -0.000000,  -0.021713]
    <r_e> [Ang]:                  [ -0.000000,  -0.000000,   0.873814]
    |<r_e - r_h>| [Ang]:            0.895526
    Hole size [Ang]:                2.162876
      Cartesian components [Ang]: [  0.990927,   0.905362,   1.696000]
    Electron size [Ang]:            3.659050
      Cartesian components [Ang]: [  2.680135,   1.431613,   2.038629]

  Transition density matrix analysis:
  -----------------------------------
  
  CT numbers (Mulliken)
    omega =     0.8899
    <Phe> =    -0.0003
  
  Exciton analysis of the transition density matrix
    Trans. dipole moment [D]:             0.001013
      Cartesian components [D]:         [  0.000000,  -0.001013,  -0.000000]
    <r_h> [Ang]:                        [ -0.000000,   0.000000,   0.071356]
    <r_e> [Ang]:                        [ -0.000000,  -0.000000,   1.349401]
    |<r_e - r_h>| [Ang]:                  1.278045
    Hole size [Ang]:                      1.805352
      Cartesian components [Ang]:       [  0.680206,   0.865620,   1.430845]
    Electron size [Ang]:                  4.136048
      Cartesian components [Ang]:       [  3.201987,   1.667941,   2.017955]
    RMS electron-hole separation [Ang]:   4.841040
      Cartesian components [Ang]:       [  3.269819,   1.880669,   3.034310]
    Covariance(r_h, r_e) [Ang^2]:        -0.718042
    Correlation coefficient:             -0.096162
    Center-of-mass size [Ang]:            2.175437
      Cartesian components [Ang]:       [  1.638527,   0.938847,   1.079963]

  Decomposition into state-averaged NTOs
    H- 1 -> L+ 0: -0.4962 ( 49.2%)
    H- 0 -> L+ 6:  0.3459 ( 23.9%)
    H- 1 -> L+ 1:  0.2013 (  8.1%)
    H- 0 -> L+ 3:  0.1775 (  6.3%)
                   omega =  89.0%
  ----------------------------------------------------------------------------


  Excited state 10 (singlet, B2)                                    [converged]
  ----------------------------------------------------------------------------
  Term symbol:  10 (1) B2                                   R^2 =  3.35059e-06

  Total energy:                                           -153.7203626329 a.u.
  Excitation energy:                                               6.781860 eV

  Osc. strength:                                                      0.003891
  Trans. dip. moment [a.u.]:           [   0.000000,    0.153021,    0.000000]
  <i|r^2|0> [a.u.]:                    [   0.000000,    0.000000,   -0.000000]

  Dip. moment [a.u.]:                  [   0.000000,   -0.000000,   -2.225119]
  Total dipole [Debye]:                                               5.655690
  <r^2> [a.u.]:                        [  77.642521,   26.826679,  222.947487]
  Total <r^2> [a.u.]:                                               327.416687

  V1^2 = 0.8952, V2^2 = 0.1048

  Important amplitudes:
      occ i      occ j       vir a       vir b          v   
    ---------------------------------------------------------
     2 (B2) A              12 (A1) A                  0.4872
     1 (B2) A               9 (A1) A                  0.4066
    ---------------------------------------------------------

  Density matrix analysis:
  ------------------------
  NOs
    Occupation of frontier NOs:
       0.6244   1.3264
    Number of electrons: 26.000000
    Number of unpaired electrons: n_u =  2.80969, n_u,nl =  2.44213
    NO participation ratio (PR_NO):  6.657846
  
  
  Mulliken Population Analysis
  Atom      Charge (e)              h+              e-           Del q
  --------------------------------------------------------------------
   1 C       -0.622080        0.198659       -0.628271       -0.429612
   2 C       -0.622080        0.198659       -0.628271       -0.429612
   3 H        0.210822        0.009787        0.017818        0.027606
   4 H        0.210822        0.009787        0.017818        0.027606
   5 H        0.060941        0.058997       -0.016751        0.042245
   6 H        0.060941        0.058997       -0.016751        0.042245
   7 O       -0.424607        0.872507       -0.224973        0.647534
   8 H        0.125242        0.087731       -0.015744        0.071987
  --------------------------------------------------------------------
  Sum:       -1.000000        1.495125       -1.495125       -0.000000
  
  Multipole moment analysis of the density matrix
    Molecular charge:                      -1.000000
    Number of electrons:                   26.000000
      Center of electronic charge [Ang]: [ -0.000000,   0.000000,   0.045288]
    Total nuclear charge:                  25.000000
      Center of nuclear charge [Ang]:    [  0.000000,   0.000000,  -0.000000]
    Dipole moment [D]:                     5.655689
      Cartesian components [D]:          [  0.000000,  -0.000000,  -5.655689]
    RMS size of the density [Ang]:         1.877321
      Cartesian components [Ang]:        [  0.914459,   0.537524,   1.548924]
  
  Exciton analysis of the difference density matrix
    <r_h> [Ang]:                  [ -0.000000,   0.000000,  -0.695661]
    <r_e> [Ang]:                  [ -0.000000,   0.000000,   0.852883]
    |<r_e - r_h>| [Ang]:            1.548544
    Hole size [Ang]:                2.114167
      Cartesian components [Ang]: [  0.899636,   0.889931,   1.693629]
    Electron size [Ang]:            3.450857
      Cartesian components [Ang]: [  2.175585,   1.414047,   2.275019]

  Transition density matrix analysis:
  -----------------------------------
  
  CT numbers (Mulliken)
    omega =     0.8731
    <Phe> =     0.0000
  
  Exciton analysis of the transition density matrix
    Trans. dipole moment [D]:             0.194470
      Cartesian components [D]:         [  0.000000,   0.194470,   0.000000]
    <r_h> [Ang]:                        [ -0.000000,   0.000000,  -0.670707]
    <r_e> [Ang]:                        [ -0.000000,   0.000000,   1.669517]
    |<r_e - r_h>| [Ang]:                  2.340224
    Hole size [Ang]:                      1.790777
      Cartesian components [Ang]:       [  0.606323,   0.850576,   1.454570]
    Electron size [Ang]:                  3.754507
      Cartesian components [Ang]:       [  2.616936,   1.662154,   2.117833]
    RMS electron-hole separation [Ang]:   4.932127
      Cartesian components [Ang]:       [  2.683681,   1.868426,   3.692251]
    Covariance(r_h, r_e) [Ang^2]:        -0.773011
    Correlation coefficient:             -0.114972
    Center-of-mass size [Ang]:            1.984766
      Cartesian components [Ang]:       [  1.344416,   0.932933,   1.123155]

  Decomposition into state-averaged NTOs
    H- 0 -> L+ 6:  0.4515 ( 40.8%)
    H- 1 -> L+ 0:  0.3949 ( 31.2%)
    H- 0 -> L+ 3:  0.2337 ( 10.9%)
    H- 1 -> L+ 1: -0.1167 (  2.7%)
                   omega =  87.3%
  ----------------------------------------------------------------------------


--------------------------------------------------------------------------------
  Time of ADC calculation:  CPU 200.15 s  wall 55.23 s
================================================================================
 
 --------------------------------------------------------------
             Orbital Energies (a.u.) and Symmetries
 --------------------------------------------------------------
 
 Alpha MOs, Restricted
 -- Occupied --                  
-20.213 -11.049 -11.047  -0.930  -0.854  -0.598  -0.473  -0.384
  1 A1    2 A1    1 B1    3 A1    4 A1    2 B1    5 A1    6 A1                 
 -0.328  -0.271  -0.194  -0.130  -0.129
  3 B1    7 A1    1 B2    4 B1    2 B2                                         
 -- Virtual --                   
  0.155   0.163   0.178   0.181   0.186   0.196   0.270   0.310
  5 B1    8 A1    3 B2    9 A1    1 A2    6 B1   10 A1    2 A2                 
  0.326   0.326   0.366   0.380   0.397   0.399   0.407   0.454
 11 A1    7 B1   12 A1    8 B1    9 B1    4 B2   13 A1    5 B2                 
  0.483   0.488   0.517   0.532   0.553   0.577   0.687   0.702
 10 B1    3 A2   14 A1   15 A1   11 B1   16 A1   17 A1   12 B1                 
  0.751   0.930   1.025   1.054   1.085   1.119   1.131   1.185
 13 B1   18 A1   19 A1   20 A1   21 A1   14 B1    6 B2    4 A2                 
  1.206   1.207   1.223   1.242   1.291   1.327   1.333   1.340
  7 B2   15 B1   22 A1   16 B1    5 A2   23 A1   17 B1   24 A1                 
  1.370   1.469   1.478   1.483   1.571   1.648   1.705   1.719
  8 B2    9 B2   18 B1    6 A2   19 B1   25 A1   20 B1   10 B2                 
  1.863   1.927   2.002   2.049   2.128   2.128   2.143   2.212
 26 A1   21 B1   27 A1    7 A2   28 A1   11 B2   22 B1   12 B2                 
  2.220   2.312   2.361   2.393   2.435   2.519   2.565   2.604
 29 A1   30 A1    8 A2   13 B2   23 B1   24 B1   31 A1    9 A2                 
  2.762   2.773   2.849   3.014   3.036   3.101   3.442   3.561
 32 A1   25 B1   26 B1   33 A1   34 A1   35 A1   27 B1   28 B1                 
  3.922   3.946   3.971   4.090   4.542
 14 B2   10 A2   36 A1   29 B1   37 A1                                         
 
 Beta MOs, Restricted
 -- Occupied --                  
-20.213 -11.049 -11.047  -0.930  -0.854  -0.598  -0.473  -0.384
  1 A1    2 A1    1 B1    3 A1    4 A1    2 B1    5 A1    6 A1                 
 -0.328  -0.271  -0.194  -0.130  -0.129
  3 B1    7 A1    1 B2    4 B1    2 B2                                         
 -- Virtual --                   
  0.155   0.163   0.178   0.181   0.186   0.196   0.270   0.310
  5 B1    8 A1    3 B2    9 A1    1 A2    6 B1   10 A1    2 A2                 
  0.326   0.326   0.366   0.380   0.397   0.399   0.407   0.454
 11 A1    7 B1   12 A1    8 B1    9 B1    4 B2   13 A1    5 B2                 
  0.483   0.488   0.517   0.532   0.553   0.577   0.687   0.702
 10 B1    3 A2   14 A1   15 A1   11 B1   16 A1   17 A1   12 B1                 
  0.751   0.930   1.025   1.054   1.085   1.119   1.131   1.185
 13 B1   18 A1   19 A1   20 A1   21 A1   14 B1    6 B2    4 A2                 
  1.206   1.207   1.223   1.242   1.291   1.327   1.333   1.340
  7 B2   15 B1   22 A1   16 B1    5 A2   23 A1   17 B1   24 A1                 
  1.370   1.469   1.478   1.483   1.571   1.648   1.705   1.719
  8 B2    9 B2   18 B1    6 A2   19 B1   25 A1   20 B1   10 B2                 
  1.863   1.927   2.002   2.049   2.128   2.128   2.143   2.212
 26 A1   21 B1   27 A1    7 A2   28 A1   11 B2   22 B1   12 B2                 
  2.220   2.312   2.361   2.393   2.435   2.519   2.565   2.604
 29 A1   30 A1    8 A2   13 B2   23 B1   24 B1   31 A1    9 A2                 
  2.762   2.773   2.849   3.014   3.036   3.101   3.442   3.561
 32 A1   25 B1   26 B1   33 A1   34 A1   35 A1   27 B1   28 B1                 
  3.922   3.946   3.971   4.090   4.542
 14 B2   10 A2   36 A1   29 B1   37 A1                                         
 --------------------------------------------------------------
 
          Ground-State Mulliken Net Atomic Charges

     Atom                 Charge (a.u.)
  ----------------------------------------
      1 C                    -0.190355
      2 C                    -0.190355
      3 H                     0.179076
      4 H                     0.179076
      5 H                     0.012389
      6 H                     0.012389
      7 O                    -1.072293
      8 H                     0.070072
  ----------------------------------------
  Sum of atomic charges =    -1.000000

 -----------------------------------------------------------------
                    Cartesian Multipole Moments
 -----------------------------------------------------------------
    Charge (ESU x 10^10)
                -4.8032
    Dipole Moment (Debye)
         X      -0.0000      Y      -0.0000      Z       5.2890
       Tot       5.2890
    Quadrupole Moments (Debye-Ang)
        XX     -23.6672     XY      -0.0000     YY     -26.4928
        XZ      -0.0000     YZ      -0.0000     ZZ     -32.8918
    Octopole Moments (Debye-Ang^2)
       XXX      -0.0000    XXY      -0.0000    XYY      -0.0000
       YYY      -0.0000    XXZ       1.0683    XYZ      -0.0000
       YYZ      -0.0764    XZZ      -0.0000    YZZ       0.0000
       ZZZ       6.4178
    Hexadecapole Moments (Debye-Ang^3)
      XXXX     -87.9227   XXXY      -0.0000   XXYY     -21.7463
      XYYY       0.0000   YYYY     -39.8378   XXXZ      -0.0000
      XXYZ       0.0000   XYYZ      -0.0000   YYYZ       0.0000
      XXZZ     -70.5564   XYZZ      -0.0000   YYZZ     -65.3236
      XZZZ      -0.0000   YZZZ       0.0000   ZZZZ    -292.7766
 -----------------------------------------------------------------
 Total job time:  164.06s(wall), 249.61s(cpu) 
 Wed Mar  2 14:50:41 2022

        *************************************************************
        *                                                           *
        *  Thank you very much for using Q-Chem.  Have a nice day.  *
        *                                                           *
        *************************************************************


