/src/tsommerfeld/qchem/exe/qcprog.exe .input1.145455.21433.qcin.1 /src/jdavis/qchem.scratch/qchem21433/

                  Welcome to Q-Chem
     A Quantum Leap Into The Future Of Chemistry


 Q-Chem 5.4 (devel), Q-Chem, Inc., Pleasanton, CA (2021)

 E. Epifanovsky,  A. T. B. Gilbert,  Xintian Feng,  Joonho Lee,  Yuezhi Mao,  
 N. Mardirossian,  P. Pokhilko,  A. White,  M. Wormit,  M. P. Coons,  
 A. L. Dempwolff,  Zhengting Gan,  D. Hait,  P. R. Horn,  L. D. Jacobson,  
 I. Kaliman,  J. Kussmann,  A. W. Lange,  Ka Un Lao,  D. S. Levine,  Jie Liu,  
 S. C. McKenzie,  A. F. Morrison,  K. Nanda,  F. Plasser,  D. R. Rehn,  
 M. L. Vidal,  Zhi-Qiang You,  Ying Zhu,  B. Alam,  B. Albrecht,  
 A. Aldossary,  E. Alguire,  J. H. Andersen,  D. Barton,  K. Begam,  A. Behn,  
 Y. A. Bernard,  E. J. Berquist,  H. Burton,  A. Carreras,  K. Carter-Fenk,  
 R. Chakraborty,  A. D. Chien,  K. D. Closser,  V. Cofer-Shabica,  
 S. Dasgupta,  Jia Deng,  M. de Wergifosse,  M. Diedenhofen,  Hainam Do,  
 S. Ehlert,  Po-Tung Fang,  S. Fatehi,  Qingguo Feng,  T. Friedhoff,  
 J. Gayvert,  Qinghui Ge,  G. Gidofalvi,  M. Goldey,  J. Gomes,  
 C. Gonzalez-Espinoza,  S. Gulania,  A. Gunina,  M. W. D. Hanson-Heine,  
 P. H. P. Harbach,  A. W. Hauser,  M. F. Herbst,  M. Hernandez Vera,  
 M. Hodecker,  Z. C. Holden,  S. Houck,  Xunkun Huang,  Kerwin Hui,  
 B. C. Huynh,  M. Ivanov,  Hyunjun Ji,  Hanjie Jiang,  B. Kaduk,  S. Kaehler,  
 K. Khistyaev,  Jaehoon Kim,  P. Klunzinger,  Z. Koczor-Benda,  
 Joong Hoon Koh,  D. Kosenkov,  L. Koulias,  T. Kowalczyk,  C. M. Krauter,  
 K. Kue,  A. Kunitsa,  T. Kus,  A. Landau,  K. V. Lawler,  D. Lefrancois,  
 S. Lehtola,  Rain Li,  Yi-Pei Li,  Jiashu Liang,  M. Liebenthal,  
 Hung-Hsuan Lin,  You-Sheng Lin,  Fenglai Liu,  Kuan-Yu Liu,  
 M. Loipersberger,  A. Luenser,  A. Manjanath,  P. Manohar,  E. Mansoor,  
 S. F. Manzer,  Shan-Ping Mao,  A. V. Marenich,  T. Markovich,  S. Mason,  
 S. A. Maurer,  P. F. McLaughlin,  M. F. S. J. Menger,  J.-M. Mewes,  
 S. A. Mewes,  P. Morgante,  J. W. Mullinax,  K. J. Oosterbaan,  G. Paran,  
 Alexander C. Paul,  Suranjan K. Paul,  F. Pavosevic,  Zheng Pei,  S. Prager,  
 E. I. Proynov,  E. Ramos,  B. Rana,  A. E. Rask,  A. Rettig,  R. M. Richard,  
 F. Rob,  E. Rossomme,  T. Scheele,  M. Scheurer,  M. Schneider,  
 N. Sergueev,  S. M. Sharada,  W. Skomorowski,  D. W. Small,  C. J. Stein,  
 Yu-Chuan Su,  E. J. Sundstrom,  Zhen Tao,  J. Thirman,  T. Tsuchimochi,  
 N. M. Tubman,  S. P. Veccham,  O. Vydrov,  J. Wenzel,  J. Witte,  A. Yamada,  
 Kun Yao,  S. Yeganeh,  S. R. Yost,  A. Zech,  Igor Ying Zhang,  Xing Zhang,  
 Yu Zhang,  D. Zuev,  A. Aspuru-Guzik,  A. T. Bell,  N. A. Besley,  
 K. B. Bravaya,  B. R. Brooks,  D. Casanova,  Jeng-Da Chai,  S. Coriani,  
 C. J. Cramer,  A. E. DePrince, III,  R. A. DiStasio Jr.,  A. Dreuw,  
 B. D. Dunietz,  T. R. Furlani,  W. A. Goddard III,  S. Grimme,  
 S. Hammes-Schiffer,  T. Head-Gordon,  W. J. Hehre,  Chao-Ping Hsu,  
 T.-C. Jagau,  Yousung Jung,  A. Klamt,  Jing Kong,  D. S. Lambrecht,  
 WanZhen Liang,  N. J. Mayhall,  C. W. McCurdy,  J. B. Neaton,  
 C. Ochsenfeld,  J. A. Parkhill,  R. Peverati,  V. A. Rassolov,  Yihan Shao,  
 L. V. Slipchenko,  T. Stauch,  R. P. Steele,  J. E. Subotnik,  
 A. J. W. Thom,  A. Tkatchenko,  D. G. Truhlar,  T. Van Voorhis,  
 T. A. Wesolowski,  K. B. Whaley,  H. L. Woodcock III,  P. M. Zimmerman,  
 S. Faraji,  P. M. W. Gill,  M. Head-Gordon,  J. M. Herbert,  A. I. Krylov

 Additional authors for Version 5.4.1: 
 S. Kotaru,  Shaozhi Li,  Xiangyuan Li,  F. Matz,  A. Molle,  Haisheng Ren,  
 Yingli Su,  Hung-Yi Tsai,  C. Utku,  Fang Wang

 Contributors to earlier versions of Q-Chem not listed above: 
 R. D. Adamson,  B. Austin,  R. Baer,  J. Baker,  G. J. O. Beran,  
 K. Brandhorst,  S. T. Brown,  E. F. C. Byrd,  A. K. Chakraborty,  
 G. K. L. Chan,  Chun-Min Chang,  Yunqing Chen,  C.-L. Cheng,  
 Siu Hung Chien,  D. M. Chipman,  D. L. Crittenden,  H. Dachsel,  
 R. J. Doerksen,  A. D. Dutoi,  R. G. Edgar,  J. Fosso-Tande,  
 L. Fusti-Molnar,  D. Ghosh,  A. Ghysels,  A. Golubeva-Zadorozhnaya,  
 J. Gonthier,  M. S. Gordon,  S. R. Gwaltney,  G. Hawkins,  J. E. Herr,  
 A. Heyden,  S. Hirata,  E. G. Hohenstein,  G. Kedziora,  F. J. Keil,  
 C. Kelley,  Jihan Kim,  R. A. King,  R. Z. Khaliullin,  P. P. Korambath,  
 W. Kurlancheek,  A. Laurent,  A. M. Lee,  M. S. Lee,  S. V. Levchenko,  
 Ching Yeh Lin,  D. Liotard,  E. Livshits,  R. C. Lochan,  I. Lotan,  
 L. A. Martinez-Martinez,  P. E. Maslen,  N. Nair,  D. P. O'Neill,  
 D. Neuhauser,  E. Neuscamman,  C. M. Oana,  R. Olivares-Amaya,  R. Olson,  
 T. M. Perrine,  B. Peters,  P. A. Pieniazek,  A. Prociuk,  Y. M. Rhee,  
 J. Ritchie,  M. A. Rohrdanz,  E. Rosta,  N. J. Russ,  H. F. Schaefer III,  
 M. W. Schmidt,  N. E. Schultz,  S. Sharma,  N. Shenvi,  C. D. Sherrill,  
 A. C. Simmonett,  A. Sodt,  T. Stein,  D. Stuck,  K. S. Thanthiriwatte,  
 V. Vanovschi,  L. Vogt,  Tao Wang,  A. Warshel,  M. A. Watson,  
 C. F. Williams,  Q. Wu,  X. Xu,  Jun Yang,  W. Zhang,  Yan Zhao

 Please cite Q-Chem as follows:
 Y. Shao et al., Mol. Phys. 113, 184-215 (2015)
 DOI: 10.1080/00268976.2014.952696

 Q-Chem 5.4.1 for Intel X86 EM64T Linux

 Parts of Q-Chem use Armadillo 9.900.5 (Nocturnal Misbehaviour).
 http://arma.sourceforge.net/

 Q-Chem begins on Wed Mar  2 14:39:45 2022  

 Host: node01
0

     Scratch files written to /src/jdavis/qchem.scratch/qchem21433//
 Processing $rem in /src/tsommerfeld/qchem/config/preferences:
 Processing $rem in /home/jdavis/.qchemrc:

 Checking the input file for inconsistencies... 	...done.

--------------------------------------------------------------
User input:
--------------------------------------------------------------
$molecule
-1 1
C        -0.6645000000    0.0000000000    1.1619088658
C         0.6645000000    0.0000000000    1.1619088658
H        -1.1590800000    0.0000000000    0.1995598658
H         1.1590800000    0.0000000000    0.1995598658
H        -1.1590800000    0.0000000000    2.1242568658
H         1.1590800000    0.0000000000    2.1242568658
O         0.0000000000    0.0000000000   -1.5841414040
H         0.0000000000    0.0000000000   -2.5471307683
$end
$rem
   METHOD adc(2)
   BASIS gen
   PURECART 11
   EE_STATES [0,0,0,10]
   scf_convergence 8
   ADC_DAVIDSON_MAXITER 120
   ADC_DAVIDSON_MAXSUBSPACE 200
   adc_nguess_singles 100
   THRESH 14
   S2THRESH 14
   adc_davidson_conv 5
   adc_davidson_thresh 14
   THREADS 10
   MEM_TOTAL 95000
   STATE_ANALYSIS TRUE
$end
$basis
C 1
S   9   1.00
      6.665000D+03           6.920000D-04
      1.000000D+03           5.329000D-03
      2.280000D+02           2.707700D-02
      6.471000D+01           1.017180D-01
      2.106000D+01           2.747400D-01
      7.495000D+00           4.485640D-01
      2.797000D+00           2.850740D-01
      5.215000D-01           1.520400D-02
      1.596000D-01          -3.191000D-03
S   9   1.00
      6.665000D+03          -1.460000D-04
      1.000000D+03          -1.154000D-03
      2.280000D+02          -5.725000D-03
      6.471000D+01          -2.331200D-02
      2.106000D+01          -6.395500D-02
      7.495000D+00          -1.499810D-01
      2.797000D+00          -1.272620D-01
      5.215000D-01           5.445290D-01
      1.596000D-01           5.804960D-01
S   1   1.00
      1.596000D-01           1.000000D+00
S   1   1.00
      0.0469000              1.0000000
P   4   1.00
      9.439000D+00           3.810900D-02
      2.002000D+00           2.094800D-01
      5.456000D-01           5.085570D-01
      1.517000D-01           4.688420D-01
P   1   1.00
      1.517000D-01           1.000000D+00
P   1   1.00
      0.0496473      1.0000000
P   1   1.00
      0.0248236      1.0000000
D   1   1.00
      5.500000D-01           1.0000000
****
C 2
S   9   1.00
      6.665000D+03           6.920000D-04
      1.000000D+03           5.329000D-03
      2.280000D+02           2.707700D-02
      6.471000D+01           1.017180D-01
      2.106000D+01           2.747400D-01
      7.495000D+00           4.485640D-01
      2.797000D+00           2.850740D-01
      5.215000D-01           1.520400D-02
      1.596000D-01          -3.191000D-03
S   9   1.00
      6.665000D+03          -1.460000D-04
      1.000000D+03          -1.154000D-03
      2.280000D+02          -5.725000D-03
      6.471000D+01          -2.331200D-02
      2.106000D+01          -6.395500D-02
      7.495000D+00          -1.499810D-01
      2.797000D+00          -1.272620D-01
      5.215000D-01           5.445290D-01
      1.596000D-01           5.804960D-01
S   1   1.00
      1.596000D-01           1.000000D+00
S   1   1.00
      0.0469000              1.0000000
P   4   1.00
      9.439000D+00           3.810900D-02
      2.002000D+00           2.094800D-01
      5.456000D-01           5.085570D-01
      1.517000D-01           4.688420D-01
P   1   1.00
      1.517000D-01           1.000000D+00
P   1   1.00
      0.0496473      1.0000000
P   1   1.00
      0.0248236      1.0000000
D   1   1.00
      5.500000D-01           1.0000000
****
H 3
cc-pVDZ
****
H 4
cc-pVDZ
****
H 5
cc-pVDZ
****
H 6
cc-pVDZ
****
O 7
aug-cc-pVDZ
****
H 8
cc-pVDZ
****
$end
--------------------------------------------------------------
 ----------------------------------------------------------------
             Standard Nuclear Orientation (Angstroms)
    I     Atom           X                Y                Z
 ----------------------------------------------------------------
    1      C      -0.6645000000    -0.0000000000     1.0270977517
    2      C       0.6645000000     0.0000000000     1.0270977517
    3      H      -1.1590800000    -0.0000000000     0.0647487517
    4      H       1.1590800000     0.0000000000     0.0647487517
    5      H      -1.1590800000    -0.0000000000     1.9894457517
    6      H       1.1590800000     0.0000000000     1.9894457517
    7      O       0.0000000000    -0.0000000000    -1.7189525181
    8      H       0.0000000000    -0.0000000000    -2.6819418824
 ----------------------------------------------------------------
 Molecular Point Group                 C2v   NOp =  4
 Largest Abelian Subgroup              C2v   NOp =  4
 Nuclear Repulsion Energy =          64.38561153 hartrees
 There are       13 alpha and       13 beta electrons
 Requested basis set is non-standard
 There are 42 shells and 90 basis functions
 Total memory of 95000 MB is distributed as follows: 
   MEM_STATIC is set to 192 MB
   QALLOC/CCMAN JOB total memory use is  94808 MB
 Warning: actual memory use might exceed 95000 MB

 Total QAlloc Memory Limit  95000 MB
 Mega-Array Size       188 MB
 MEM_STATIC part       192 MB

                       Distance Matrix (Angstroms)
             C (  1)   C (  2)   H (  3)   H (  4)   H (  5)   H (  6)
   C (  2)  1.329000
   H (  3)  1.082000  2.061931
   H (  4)  2.061931  1.082000  2.318160
   H (  5)  1.082000  2.061931  1.924697  3.013026
   H (  6)  2.061931  1.082000  3.013026  1.924697  2.318160
   O (  7)  2.825306  2.825306  2.127218  2.127218  3.885316  3.885316
   H (  8)  3.768094  3.768094  2.981237  2.981237  4.813037  4.813037
             O (  7)
   H (  8)  0.962989
 
 A cutoff of  1.0D-14 yielded    903 shell pairs
 There are      4183 function pairs (      4573 Cartesian)
 Smallest overlap matrix eigenvalue = 1.47E-04

 Scale SEOQF with 1.000000e-01/1.000000e-01/1.000000e-01

 Standard Electronic Orientation quadrupole field applied
 Nucleus-field energy     =    -0.0000000051 hartrees
 ================ Generating on-the-fly SAD Guess ================
Attempting to make child job directory: /src/jdavis/qchem.scratch/qchem21433//Frg1/
Attempting to make child job directory: /src/jdavis/qchem.scratch/qchem21433//Frg2/
Attempting to make child job directory: /src/jdavis/qchem.scratch/qchem21433//Frg3/
Creating input file /src/jdavis/qchem.scratch/qchem21433/Frg1.input
using default PutDataFrgm: nothing
calling putenv with: QCSCRATCH=/src/jdavis/qchem.scratch/qchem21433/ 
Spawning Job For Fragment 0
Done Job For Fragment 0
calling putenv with: QCSCRATCH=/src/jdavis/qchem.scratch 
calling putenv with: QCTHREADS=1 
Creating input file /src/jdavis/qchem.scratch/qchem21433/Frg2.input
using default PutDataFrgm: nothing
calling putenv with: QCSCRATCH=/src/jdavis/qchem.scratch/qchem21433/ 
Spawning Job For Fragment 1
Done Job For Fragment 1
calling putenv with: QCSCRATCH=/src/jdavis/qchem.scratch 
calling putenv with: QCTHREADS=1 
Creating input file /src/jdavis/qchem.scratch/qchem21433/Frg3.input
using default PutDataFrgm: nothing
calling putenv with: QCSCRATCH=/src/jdavis/qchem.scratch/qchem21433/ 
Spawning Job For Fragment 2
Done Job For Fragment 2
calling putenv with: QCSCRATCH=/src/jdavis/qchem.scratch 
calling putenv with: QCTHREADS=1 
 Time for running child jobs:  CPU 1.77 s  wall 80.41 s
 ============= Method Specific SAD Guess Constructed =============
 Guess from on-the-fly superposition of atomic densities
 Warning: Energy on first SCF cycle will be non-variational
 A restricted Hartree-Fock SCF calculation will be
 performed using Pulay DIIS extrapolation
 SCF converges when DIIS error is below 1.0E-08
 using 10 threads for integral computing
 -------------------------------------------------------
 OpenMP Integral computing Module                
 Release: version 1.0, May 2013, Q-Chem Inc. Pittsburgh 
 -------------------------------------------------------
 ---------------------------------------
  Cycle       Energy         DIIS Error
 ---------------------------------------
    1    -153.5738527506      5.98E-02
    2    -153.2897470484      1.22E-02
    3    -153.3550669515      1.03E-02
    4    -153.4401757711      7.64E-04
    5    -153.4411117772      2.12E-04
    6    -153.4411857733      4.63E-05
    7    -153.4411911541      1.22E-05
    8    -153.4411917252      3.66E-06
    9    -153.4411917739      7.35E-07
   10    -153.4411917756      1.29E-07
   11    -153.4411917757      3.97E-08
   12    -153.4411917757      1.27E-08
   13    -153.4411917757      2.70E-09 Convergence criterion met
 ---------------------------------------
 SCF time:  CPU 15.22 s  wall 1.53 s
 SCF   energy in the final basis set = -153.44119178
 Total energy in the final basis set = -153.44119178
================================================================================
|                                                                              |
|                                 A D C  M A N                                 |
|                                                                              |
 ------------------------------------------------------------------------------ 
|                                                                              |
| Components:                                                                  |
|                                                                              |
| - libvmm - 1.3-trunk                                                         |
|   Authors:                                                                   |
|   Evgeny Epifanovsky, Ilya Kaliman                                           |
|                                                                              |
| - libtensor - 2.5-trunk                                                      |
|   Authors:                                                                   |
|   Evgeny Epifanovsky, Michael Wormit, Dmitry Zuev, Sam Manzer,               |
|   Ilya Kaliman                                                               |
|                                                                              |
| - libwfa - 1.1-trunk                                                         |
|   Authors:                                                                   |
|   Felix Plasser, Stefanie Mewes (Baeppler), Benjamin Thomitzni,              |
|   Michael Wormit, Feng Chen, Anna I. Krylov, Pavel Pokhilko                  |
|                                                                              |
| - libadc - 1.1-trunk                                                         |
|   Authors:                                                                   |
|   Michael Wormit, Adrian L. Dempwolff, Philipp H. P. Harbach,                |
|   Caroline Krauter, Dirk Rehn, Matthias Schneider, Jan Wenzel                |
|                                                                              |
| - adcman - 2.6-trunk                                                         |
|   Authors:                                                                   |
|   Michael Wormit, Adrian L. Dempwolff, Philipp H. P. Harbach,                |
|   Caroline Krauter, Daniel Lefrancois, Jan-Michael Mewes, Dirk Rehn,         |
|   Matthias Schneider, Jan Wenzel, Andreas Dreuw                              |
|                                                                              |
| Authors of earlier versions of ADCMAN:                                       |
| Andreas Dreuw, Jan Hendrik Starcke, Dirk Rehn, Michael Wormit                |
|                                                                              |
================================================================================

 
 Alpha MOs, Restricted
 -- Occupied --                  
-20.213 -11.049 -11.047  -0.930  -0.854  -0.598  -0.473  -0.384
  1 A1    2 A1    1 B1    3 A1    4 A1    2 B1    5 A1    6 A1                 
 -0.328  -0.271  -0.194  -0.130  -0.129
  3 B1    7 A1    1 B2    4 B1    2 B2                                         
 -- Virtual --                   
  0.148   0.155   0.168   0.171   0.175   0.186   0.258   0.300
  5 B1    8 A1    3 B2    9 A1    1 A2    6 B1   10 A1    2 A2                 
  0.323   0.327   0.337   0.344   0.375   0.386   0.391   0.452
  7 B1   11 A1    8 B1   12 A1    4 B2    9 B1   13 A1    5 B2                 
  0.463   0.480   0.515   0.523   0.550   0.577   0.682   0.684
  3 A2   10 B1   14 A1   15 A1   11 B1   16 A1   17 A1   12 B1                 
  0.718   0.907   1.001   1.058   1.081   1.098   1.113   1.153
 13 B1   18 A1   19 A1   20 A1   21 A1    6 B2   14 B1    4 A2                 
  1.183   1.205   1.218   1.240   1.291   1.324   1.334   1.339
 15 B1    7 B2   22 A1   16 B1    5 A2   23 A1   17 B1   24 A1                 
  1.370   1.468   1.483   1.503   1.564   1.645   1.703   1.719
  8 B2    9 B2    6 A2   18 B1   19 B1   25 A1   20 B1   10 B2                 
  1.860   1.927   1.991   2.045   2.127   2.132   2.132   2.210
 26 A1   21 B1   27 A1    7 A2   11 B2   28 A1   22 B1   29 A1                 
  2.212   2.306   2.360   2.393   2.437   2.510   2.561   2.604
 12 B2   30 A1    8 A2   13 B2   23 B1   24 B1   31 A1    9 A2                 
  2.759   2.764   2.846   3.010   3.036   3.097   3.453   3.562
 32 A1   25 B1   26 B1   33 A1   34 A1   35 A1   27 B1   28 B1                 
  3.922   3.945   3.970   4.089   4.541
 14 B2   10 A2   36 A1   29 B1   37 A1                                         
 
 Beta MOs, Restricted
 -- Occupied --                  
-20.213 -11.049 -11.047  -0.930  -0.854  -0.598  -0.473  -0.384
  1 A1    2 A1    1 B1    3 A1    4 A1    2 B1    5 A1    6 A1                 
 -0.328  -0.271  -0.194  -0.130  -0.129
  3 B1    7 A1    1 B2    4 B1    2 B2                                         
 -- Virtual --                   
  0.148   0.155   0.168   0.171   0.175   0.186   0.258   0.300
  5 B1    8 A1    3 B2    9 A1    1 A2    6 B1   10 A1    2 A2                 
  0.323   0.327   0.337   0.344   0.375   0.386   0.391   0.452
  7 B1   11 A1    8 B1   12 A1    4 B2    9 B1   13 A1    5 B2                 
  0.463   0.480   0.515   0.523   0.550   0.577   0.682   0.684
  3 A2   10 B1   14 A1   15 A1   11 B1   16 A1   17 A1   12 B1                 
  0.718   0.907   1.001   1.058   1.081   1.098   1.113   1.153
 13 B1   18 A1   19 A1   20 A1   21 A1    6 B2   14 B1    4 A2                 
  1.183   1.205   1.218   1.240   1.291   1.324   1.334   1.339
 15 B1    7 B2   22 A1   16 B1    5 A2   23 A1   17 B1   24 A1                 
  1.370   1.468   1.483   1.503   1.564   1.645   1.703   1.719
  8 B2    9 B2    6 A2   18 B1   19 B1   25 A1   20 B1   10 B2                 
  1.860   1.927   1.991   2.045   2.127   2.132   2.132   2.210
 26 A1   21 B1   27 A1    7 A2   11 B2   28 A1   22 B1   29 A1                 
  2.212   2.306   2.360   2.393   2.437   2.510   2.561   2.604
 12 B2   30 A1    8 A2   13 B2   23 B1   24 B1   31 A1    9 A2                 
  2.759   2.764   2.846   3.010   3.036   3.097   3.453   3.562
 32 A1   25 B1   26 B1   33 A1   34 A1   35 A1   27 B1   28 B1                 
  3.922   3.945   3.970   4.089   4.541
 14 B2   10 A2   36 A1   29 B1   37 A1                                         

--------------------------------------------------------------------------------
                                   HF Summary                                   
--------------------------------------------------------------------------------
  Energy:                                                 -153.4411917757 a.u.
  Dip. moment [a.u.]:                  [  -0.000000,    0.000000,    2.080039]
  Total dipole [Debye]:                                               5.286934
  <r^2> [a.u.]:                        [  55.707242,   19.695803,  208.049882]
  Total <r^2> [a.u.]:                                               283.452927
--------------------------------------------------------------------------------

--------------------------------------------------------------------------------
                                 MP(2) Summary                                  
--------------------------------------------------------------------------------
  MP energy contribution:                                   -0.5281948233 a.u.
  Total energy:                                           -153.9693865990 a.u.
  Dip. moment [a.u.]:                  [  -0.000000,    0.000000,    2.148898]
  Total dipole [Debye]:                                               5.461954
  <r^2> [a.u.]:                        [  56.693336,   20.384929,  209.318892]
  Total <r^2> [a.u.]:                                               286.397157

  Density matrix analysis:
  ------------------------
  NOs
    Occupation of frontier NOs:
       0.0446   1.9357
    Number of electrons: 26.000000
    Number of unpaired electrons: n_u =  0.71504, n_u,nl =  0.08535
    NO participation ratio (PR_NO): 23.003882
  
  
  Mulliken Population Analysis
  Atom      Charge (e)              h+              e-           Del q
  --------------------------------------------------------------------
   1 C       -0.189480        0.094747       -0.097371       -0.002623
   2 C       -0.189480        0.094747       -0.097371       -0.002623
   3 H        0.181014        0.017176       -0.012624        0.004552
   4 H        0.181014        0.017176       -0.012624        0.004552
   5 H        0.015610        0.018164       -0.012195        0.005969
   6 H        0.015610        0.018164       -0.012195        0.005969
   7 O       -1.068476        0.278383       -0.277143        0.001240
   8 H        0.054188        0.015256       -0.032290       -0.017034
  --------------------------------------------------------------------
  Sum:       -1.000000        0.553813       -0.553813        0.000000
  
  Multipole moment analysis of the density matrix
    Molecular charge:                      -1.000000
    Number of electrons:                   26.000000
      Center of electronic charge [Ang]: [  0.000000,  -0.000000,  -0.043736]
    Total nuclear charge:                  25.000000
      Center of nuclear charge [Ang]:    [  0.000000,   0.000000,  -0.000000]
    Dipole moment [D]:                     5.461952
      Cartesian components [D]:          [ -0.000000,   0.000000,   5.461952]
    RMS size of the density [Ang]:         1.755756
      Cartesian components [Ang]:        [  0.781413,   0.468564,   1.500840]
  
  Exciton analysis of the difference density matrix
    <r_h> [Ang]:                  [  0.000000,  -0.000000,  -0.480645]
    <r_e> [Ang]:                  [  0.000000,  -0.000000,  -0.546440]
    |<r_e - r_h>| [Ang]:            0.065795
    Hole size [Ang]:                1.957263
      Cartesian components [Ang]: [  0.880556,   0.745947,   1.580843]
    Electron size [Ang]:            2.291727
      Cartesian components [Ang]: [  1.128709,   0.951255,   1.753039]
--------------------------------------------------------------------------------
  Starting Davidson for singlet states of irrep B2 ... 
--------------------------------------------------------------------------------
   It NVec Conv  Avg. Norm  Max. Norm  Conv. states           Remark
--------------------------------------------------------------------------------
       100    0  1.516e-01  5.809e-01  0.2503 n n n n n n n n Guess.
    1  110    0  1.923e-02  1.216e-01  0.0787 n n n n n n n n 
    2  120    0  8.803e-03  7.614e-02  0.0774 n n n n n n n n 
    3  130    0  4.062e-03  3.119e-02  0.0774 n n n n n n n n 
    4  140    0  1.489e-03  1.167e-02  0.0774 n n n n n n n n 
    5  150    2  2.610e-04  2.018e-03  0.0774 y y n n n n n n 
    6  160    7  3.226e-05  2.465e-04  0.0774 y y y y y y y n 
    7  170    8  3.751e-06  2.866e-05  0.0774 y y y y y y y n 
    8  180   10  3.754e-07  2.839e-06  0.0774 y y y y y y y y Converged.
--------------------------------------------------------------------------------
  Davidson Summary: 
 ------------------------------------------------------------
  State  0: excitation energy =   0.0774 a.u.   (converged)
  State  1: excitation energy =   0.0924 a.u.   (converged)
  State  2: excitation energy =   0.0965 a.u.   (converged)
  State  3: excitation energy =   0.1307 a.u.   (converged)
  State  4: excitation energy =   0.1586 a.u.   (converged)
  State  5: excitation energy =   0.1727 a.u.   (converged)
  State  6: excitation energy =   0.2111 a.u.   (converged)
  State  7: excitation energy =   0.2282 a.u.   (converged)
  State  8: excitation energy =   0.2361 a.u.   (converged)
  State  9: excitation energy =   0.2439 a.u.   (converged)
 ------------------------------------------------------------


--------------------------------------------------------------------------------
                   State-averaged natural transition orbitals
--------------------------------------------------------------------------------
--------------------------------------------------------------------------------

--------------------------------------------------------------------------------
                             Excited State Summary
--------------------------------------------------------------------------------
--------------------------------------------------------------------------------

  Excited state 1 (singlet, B2)                                    [converged]
  ----------------------------------------------------------------------------
  Term symbol:  1 (1) B2                                    R^2 =  7.50514e-09

  Total energy:                                           -153.8919712017 a.u.
  Excitation energy:                                               2.106580 eV

  Osc. strength:                                                      0.014207
  Trans. dip. moment [a.u.]:           [  -0.000000,   -0.524665,   -0.000000]
  <i|r^2|0> [a.u.]:                    [   0.000000,   -0.000000,    0.000000]

  Dip. moment [a.u.]:                  [  -0.000000,   -0.000000,   -5.112261]
  Total dipole [Debye]:                                              12.994075
  <r^2> [a.u.]:                        [  73.599396,   33.643178,  247.934092]
  Total <r^2> [a.u.]:                                               355.176667

  V1^2 = 0.8683, V2^2 = 0.1317

  Important amplitudes:
      occ i      occ j       vir a       vir b          v   
    ---------------------------------------------------------
     2 (B2) A               8 (A1) A                 -0.6233
     2 (B2) A               9 (A1) A                 -0.1406
    ---------------------------------------------------------

  Density matrix analysis:
  ------------------------
  NOs
    Occupation of frontier NOs:
       0.9613   0.9976
    Number of electrons: 26.000000
    Number of unpaired electrons: n_u =  2.74774, n_u,nl =  2.11487
    NO participation ratio (PR_NO):  3.871065
  
  
  Mulliken Population Analysis
  Atom      Charge (e)              h+              e-           Del q
  --------------------------------------------------------------------
   1 C       -0.698914        0.034055       -0.543489       -0.509434
   2 C       -0.698914        0.034055       -0.543489       -0.509434
   3 H        0.133190        0.001511       -0.049335       -0.047824
   4 H        0.133190        0.001511       -0.049335       -0.047824
   5 H        0.034509        0.045398       -0.026499        0.018899
   6 H        0.034509        0.045398       -0.026499        0.018899
   7 O       -0.052329        1.406980       -0.390833        1.016147
   8 H        0.114758        0.131978       -0.071409        0.060570
  --------------------------------------------------------------------
  Sum:       -1.000000        1.700888       -1.700888        0.000000
  
  Multipole moment analysis of the density matrix
    Molecular charge:                      -1.000000
    Number of electrons:                   26.000000
      Center of electronic charge [Ang]: [  0.000000,   0.000000,   0.104050]
    Total nuclear charge:                  25.000000
      Center of nuclear charge [Ang]:    [  0.000000,   0.000000,  -0.000000]
    Dipole moment [D]:                     12.994071
      Cartesian components [D]:          [ -0.000000,  -0.000000, -12.994071]
    RMS size of the density [Ang]:         1.953085
      Cartesian components [Ang]:        [  0.890331,   0.601954,   1.630799]
  
  Exciton analysis of the difference density matrix
    <r_h> [Ang]:                  [  0.000000,  -0.000000,  -1.434637]
    <r_e> [Ang]:                  [  0.000000,   0.000000,   0.824442]
    |<r_e - r_h>| [Ang]:            2.259079
    Hole size [Ang]:                1.815255
      Cartesian components [Ang]: [  0.845886,   0.879262,   1.344070]
    Electron size [Ang]:            3.999658
      Cartesian components [Ang]: [  1.870530,   1.719272,   3.089091]

  Transition density matrix analysis:
  -----------------------------------
  
  CT numbers (Mulliken)
    omega =     0.8531
    <Phe> =    -0.0013
  
  Exciton analysis of the transition density matrix
    Trans. dipole moment [D]:             0.666782
      Cartesian components [D]:         [ -0.000000,  -0.666782,  -0.000000]
    <r_h> [Ang]:                        [  0.000000,  -0.000000,  -1.741211]
    <r_e> [Ang]:                        [  0.000000,   0.000000,   2.198245]
    |<r_e - r_h>| [Ang]:                  3.939456
    Hole size [Ang]:                      1.100061
      Cartesian components [Ang]:       [  0.477848,   0.824056,   0.550207]
    Electron size [Ang]:                  4.514730
      Cartesian components [Ang]:       [  2.319736,   2.158254,   3.216140]
    RMS electron-hole separation [Ang]:   6.090240
      Cartesian components [Ang]:       [  2.368179,   2.308828,   5.113908]
    Covariance(r_h, r_e) [Ang^2]:         0.010611
    Correlation coefficient:              0.002136
    Center-of-mass size [Ang]:            2.324551
      Cartesian components [Ang]:       [  1.184352,   1.155808,   1.632469]

  Decomposition into state-averaged NTOs
    H- 0 -> L+ 1:  0.4959 ( 49.2%)
    H- 0 -> L+ 0: -0.3250 ( 21.1%)
    H- 0 -> L+ 6:  0.1918 (  7.4%)
    H- 0 -> L+ 2:  0.1463 (  4.3%)
    H- 0 -> L+ 3: -0.1283 (  3.3%)
                   omega =  85.3%
  ----------------------------------------------------------------------------


  Excited state 2 (singlet, B2)                                    [converged]
  ----------------------------------------------------------------------------
  Term symbol:  2 (1) B2                                    R^2 =  4.66291e-09

  Total energy:                                           -153.8769520848 a.u.
  Excitation energy:                                               2.515271 eV

  Osc. strength:                                                      0.000699
  Trans. dip. moment [a.u.]:           [   0.000000,    0.106513,   -0.000000]
  <i|r^2|0> [a.u.]:                    [  -0.000000,    0.000000,   -0.000000]

  Dip. moment [a.u.]:                  [  -0.000000,    0.000000,   -2.700175]
  Total dipole [Debye]:                                               6.863162
  <r^2> [a.u.]:                        [ 116.417903,   28.605431,  209.770694]
  Total <r^2> [a.u.]:                                               354.794028

  V1^2 = 0.8688, V2^2 = 0.1312

  Important amplitudes:
      occ i      occ j       vir a       vir b          v   
    ---------------------------------------------------------
     2 (B2) A               9 (A1) A                  0.6181
     2 (B2) A               8 (A1) A                 -0.1619
    ---------------------------------------------------------

  Density matrix analysis:
  ------------------------
  NOs
    Occupation of frontier NOs:
       0.9649   0.9937
    Number of electrons: 26.000000
    Number of unpaired electrons: n_u =  2.75650, n_u,nl =  2.11832
    NO participation ratio (PR_NO):  3.895748
  
  
  Mulliken Population Analysis
  Atom      Charge (e)              h+              e-           Del q
  --------------------------------------------------------------------
   1 C       -0.697261        0.033832       -0.541613       -0.507781
   2 C       -0.697261        0.033832       -0.541613       -0.507781
   3 H        0.156875        0.004975       -0.029114       -0.024139
   4 H        0.156875        0.004975       -0.029114       -0.024139
   5 H        0.058327        0.034349        0.008368        0.042717
   6 H        0.058327        0.034349        0.008368        0.042717
   7 O       -0.238604        1.398850       -0.568978        0.829872
   8 H        0.202721        0.138734        0.009799        0.148533
  --------------------------------------------------------------------
  Sum:       -1.000000        1.683897       -1.683897       -0.000000
  
  Multipole moment analysis of the density matrix
    Molecular charge:                      -1.000000
    Number of electrons:                   26.000000
      Center of electronic charge [Ang]: [  0.000000,  -0.000000,   0.054957]
    Total nuclear charge:                  25.000000
      Center of nuclear charge [Ang]:    [  0.000000,   0.000000,  -0.000000]
    Dipole moment [D]:                     6.863160
      Cartesian components [D]:          [ -0.000000,   0.000000,  -6.863160]
    RMS size of the density [Ang]:         1.954029
      Cartesian components [Ang]:        [  1.119758,   0.555058,   1.502091]
  
  Exciton analysis of the difference density matrix
    <r_h> [Ang]:                  [  0.000000,  -0.000000,  -1.487134]
    <r_e> [Ang]:                  [  0.000000,  -0.000000,   0.036724]
    |<r_e - r_h>| [Ang]:            1.523857
    Hole size [Ang]:                1.773642
      Cartesian components [Ang]: [  0.859492,   0.881232,   1.276914]
    Electron size [Ang]:            4.090266
      Cartesian components [Ang]: [  3.266618,   1.464111,   1.978853]

  Transition density matrix analysis:
  -----------------------------------
  
  CT numbers (Mulliken)
    omega =     0.8537
    <Phe> =    -0.0002
  
  Exciton analysis of the transition density matrix
    Trans. dipole moment [D]:             0.135364
      Cartesian components [D]:         [  0.000000,   0.135364,  -0.000000]
    <r_h> [Ang]:                        [  0.000000,  -0.000000,  -1.743100]
    <r_e> [Ang]:                        [  0.000000,  -0.000000,   0.902834]
    |<r_e - r_h>| [Ang]:                  2.645935
    Hole size [Ang]:                      1.097398
      Cartesian components [Ang]:       [  0.479482,   0.823325,   0.544532]
    Electron size [Ang]:                  4.925599
      Cartesian components [Ang]:       [  4.171557,   1.802921,   1.899768]
    RMS electron-hole separation [Ang]:   5.697409
      Cartesian components [Ang]:       [  4.198621,   1.981901,   3.302139]
    Covariance(r_h, r_e) [Ang^2]:         0.003152
    Correlation coefficient:              0.000583
    Center-of-mass size [Ang]:            2.523495
      Cartesian components [Ang]:       [  2.099711,   0.991065,   0.988448]

  Decomposition into state-averaged NTOs
    H- 0 -> L+ 0:  0.5348 ( 57.2%)
    H- 0 -> L+ 1:  0.3655 ( 26.7%)
                   omega =  85.4%
  ----------------------------------------------------------------------------


  Excited state 3 (singlet, B2)                                    [converged]
  ----------------------------------------------------------------------------
  Term symbol:  3 (1) B2                                    R^2 =  8.54464e-09

  Total energy:                                           -153.8729195021 a.u.
  Excitation energy:                                               2.625003 eV

  Osc. strength:                                                      0.003049
  Trans. dip. moment [a.u.]:           [  -0.000000,    0.217725,    0.000000]
  <i|r^2|0> [a.u.]:                    [  -0.000000,   -0.000000,    0.000000]

  Dip. moment [a.u.]:                  [  -0.000000,    0.000000,   -2.865627]
  Total dipole [Debye]:                                               7.283699
  <r^2> [a.u.]:                        [  88.907392,   52.979609,  209.396330]
  Total <r^2> [a.u.]:                                               351.283332

  V1^2 = 0.8689, V2^2 = 0.1311

  Important amplitudes:
      occ i      occ j       vir a       vir b          v   
    ---------------------------------------------------------
     4 (B1) A               1 (A2) A                 -0.6433
     4 (B1) A               2 (A2) A                  0.1350
    ---------------------------------------------------------

  Density matrix analysis:
  ------------------------
  NOs
    Occupation of frontier NOs:
       0.9655   0.9938
    Number of electrons: 26.000000
    Number of unpaired electrons: n_u =  2.75386, n_u,nl =  2.11622
    NO participation ratio (PR_NO):  3.886696
  
  
  Mulliken Population Analysis
  Atom      Charge (e)              h+              e-           Del q
  --------------------------------------------------------------------
   1 C       -0.675030        0.041420       -0.526969       -0.485549
   2 C       -0.675030        0.041420       -0.526969       -0.485549
   3 H        0.135122       -0.000269       -0.045624       -0.045892
   4 H        0.135122       -0.000269       -0.045624       -0.045892
   5 H        0.044680        0.030348       -0.001278        0.029070
   6 H        0.044680        0.030348       -0.001278        0.029070
   7 O       -0.173019        1.400512       -0.505056        0.895457
   8 H        0.163475        0.132904       -0.023618        0.109286
  --------------------------------------------------------------------
  Sum:       -1.000000        1.676415       -1.676415       -0.000000
  
  Multipole moment analysis of the density matrix
    Molecular charge:                      -1.000000
    Number of electrons:                   26.000000
      Center of electronic charge [Ang]: [  0.000000,  -0.000000,   0.058324]
    Total nuclear charge:                  25.000000
      Center of nuclear charge [Ang]:    [  0.000000,   0.000000,  -0.000000]
    Dipole moment [D]:                     7.283697
      Cartesian components [D]:          [ -0.000000,   0.000000,  -7.283697]
    RMS size of the density [Ang]:         1.944231
      Cartesian components [Ang]:        [  0.978551,   0.755386,   1.500622]
  
  Exciton analysis of the difference density matrix
    <r_h> [Ang]:                  [  0.000000,  -0.000000,  -1.484919]
    <r_e> [Ang]:                  [  0.000000,  -0.000000,   0.097967]
    |<r_e - r_h>| [Ang]:            1.582886
    Hole size [Ang]:                1.758858
      Cartesian components [Ang]: [  0.927478,   0.779547,   1.275019]
    Electron size [Ang]:            4.015914
      Cartesian components [Ang]: [  2.498250,   2.460145,   1.958059]

  Transition density matrix analysis:
  -----------------------------------
  
  CT numbers (Mulliken)
    omega =     0.8529
    <Phe> =     0.0001
  
  Exciton analysis of the transition density matrix
    Trans. dipole moment [D]:             0.276701
      Cartesian components [D]:         [ -0.000000,   0.276701,   0.000000]
    <r_h> [Ang]:                        [  0.000000,  -0.000000,  -1.721847]
    <r_e> [Ang]:                        [  0.000000,  -0.000000,   1.026125]
    |<r_e - r_h>| [Ang]:                  2.747972
    Hole size [Ang]:                      1.143665
      Cartesian components [Ang]:       [  0.823749,   0.472597,   0.637228]
    Electron size [Ang]:                  4.797617
      Cartesian components [Ang]:       [  3.163731,   3.121203,   1.807216]
    RMS electron-hole separation [Ang]:   5.644597
      Cartesian components [Ang]:       [  3.267134,   3.156585,   3.350118]
    Covariance(r_h, r_e) [Ang^2]:         0.007486
    Correlation coefficient:              0.001364
    Center-of-mass size [Ang]:            2.466783
      Cartesian components [Ang]:       [  1.635646,   1.578487,   0.958155]

  Decomposition into state-averaged NTOs
    H- 2 -> L+ 5:  0.6445 ( 83.1%)
    H- 2 -> L+ 7:  0.0949 (  1.8%)
                   omega =  85.3%
  ----------------------------------------------------------------------------


  Excited state 4 (singlet, B2)                                    [converged]
  ----------------------------------------------------------------------------
  Term symbol:  4 (1) B2                                    R^2 =  3.27698e-08

  Total energy:                                           -153.8386495839 a.u.
  Excitation energy:                                               3.557535 eV

  Osc. strength:                                                      0.038573
  Trans. dip. moment [a.u.]:           [   0.000000,    0.665258,   -0.000000]
  <i|r^2|0> [a.u.]:                    [   0.000000,    0.000000,    0.000000]

  Dip. moment [a.u.]:                  [   0.000000,   -0.000000,   -0.273689]
  Total dipole [Debye]:                                               0.695647
  <r^2> [a.u.]:                        [  66.342740,   28.818615,  220.426836]
  Total <r^2> [a.u.]:                                               315.588191

  V1^2 = 0.8843, V2^2 = 0.1157

  Important amplitudes:
      occ i      occ j       vir a       vir b          v   
    ---------------------------------------------------------
     2 (B2) A              10 (A1) A                 -0.5345
     2 (B2) A              11 (A1) A                  0.3328
    ---------------------------------------------------------

  Density matrix analysis:
  ------------------------
  NOs
    Occupation of frontier NOs:
       0.9650   0.9924
    Number of electrons: 26.000000
    Number of unpaired electrons: n_u =  2.73469, n_u,nl =  2.10926
    NO participation ratio (PR_NO):  3.843804
  
  
  Mulliken Population Analysis
  Atom      Charge (e)              h+              e-           Del q
  --------------------------------------------------------------------
   1 C       -0.628668        0.030764       -0.469951       -0.439187
   2 C       -0.628668        0.030764       -0.469951       -0.439187
   3 H        0.141708        0.002513       -0.041819       -0.039306
   4 H        0.141708        0.002513       -0.041819       -0.039306
   5 H        0.055948        0.022097        0.018241        0.040338
   6 H        0.055948        0.022097        0.018241        0.040338
   7 O       -0.703064        1.314536       -0.949124        0.365412
   8 H        0.565087        0.160552        0.350346        0.510899
  --------------------------------------------------------------------
  Sum:       -1.000000        1.585835       -1.585835       -0.000000
  
  Multipole moment analysis of the density matrix
    Molecular charge:                      -1.000000
    Number of electrons:                   26.000000
      Center of electronic charge [Ang]: [ -0.000000,   0.000000,   0.005570]
    Total nuclear charge:                  25.000000
      Center of nuclear charge [Ang]:    [  0.000000,   0.000000,  -0.000000]
    Dipole moment [D]:                     0.695647
      Cartesian components [D]:          [  0.000000,  -0.000000,  -0.695647]
    RMS size of the density [Ang]:         1.843626
      Cartesian components [Ang]:        [  0.845301,   0.557123,   1.540791]
  
  Exciton analysis of the difference density matrix
    <r_h> [Ang]:                  [  0.000000,  -0.000000,  -1.533050]
    <r_e> [Ang]:                  [ -0.000000,   0.000000,  -0.724657]
    |<r_e - r_h>| [Ang]:            0.808393
    Hole size [Ang]:                1.685904
      Cartesian components [Ang]: [  0.804433,   0.868349,   1.200471]
    Electron size [Ang]:            3.134003
      Cartesian components [Ang]: [  1.533302,   1.497752,   2.286416]

  Transition density matrix analysis:
  -----------------------------------
  
  CT numbers (Mulliken)
    omega =     0.8670
    <Phe> =    -0.0082
  
  Exciton analysis of the transition density matrix
    Trans. dipole moment [D]:             0.845458
      Cartesian components [D]:         [  0.000000,   0.845458,  -0.000000]
    <r_h> [Ang]:                        [  0.000000,  -0.000000,  -1.735372]
    <r_e> [Ang]:                        [ -0.000000,   0.000000,  -0.444998]
    |<r_e - r_h>| [Ang]:                  1.290375
    Hole size [Ang]:                      1.102743
      Cartesian components [Ang]:       [  0.476215,   0.819885,   0.563073]
    Electron size [Ang]:                  3.695951
      Cartesian components [Ang]:       [  1.804916,   1.801871,   2.674995]
    RMS electron-hole separation [Ang]:   4.054259
      Cartesian components [Ang]:       [  1.866309,   1.974880,   3.008946]
    Covariance(r_h, r_e) [Ang^2]:         0.052075
    Correlation coefficient:              0.012777
    Center-of-mass size [Ang]:            1.935216
      Cartesian components [Ang]:       [  0.933528,   0.992188,   1.374464]

  Decomposition into state-averaged NTOs
    H- 0 -> L+ 2: -0.4424 ( 39.1%)
    H- 0 -> L+ 3:  0.3838 ( 29.5%)
    H- 0 -> L+ 1:  0.1838 (  6.8%)
    H- 0 -> L+ 6: -0.1737 (  6.0%)
    H- 0 -> L+ 0: -0.1602 (  5.1%)
                   omega =  86.7%
  ----------------------------------------------------------------------------


  Excited state 5 (singlet, B2)                                    [converged]
  ----------------------------------------------------------------------------
  Term symbol:  5 (1) B2                                    R^2 =  9.05611e-08

  Total energy:                                           -153.8108247240 a.u.
  Excitation energy:                                               4.314688 eV

  Osc. strength:                                                      0.000049
  Trans. dip. moment [a.u.]:           [   0.000000,   -0.021639,    0.000000]
  <i|r^2|0> [a.u.]:                    [   0.000000,    0.000000,    0.000000]

  Dip. moment [a.u.]:                  [   0.000000,   -0.000000,   -2.793131]
  Total dipole [Debye]:                                               7.099433
  <r^2> [a.u.]:                        [  67.174558,   30.827906,  203.420507]
  Total <r^2> [a.u.]:                                               301.422972

  V1^2 = 0.8681, V2^2 = 0.1319

  Important amplitudes:
      occ i      occ j       vir a       vir b          v   
    ---------------------------------------------------------
     4 (B1) A               2 (A2) A                  0.6252
     4 (B1) A               3 (A2) A                 -0.1565
    ---------------------------------------------------------

  Density matrix analysis:
  ------------------------
  NOs
    Occupation of frontier NOs:
       0.9656   0.9955
    Number of electrons: 26.000000
    Number of unpaired electrons: n_u =  2.72091, n_u,nl =  2.10057
    NO participation ratio (PR_NO):  3.795961
  
  
  Mulliken Population Analysis
  Atom      Charge (e)              h+              e-           Del q
  --------------------------------------------------------------------
   1 C       -0.596911        0.107342       -0.514772       -0.407430
   2 C       -0.596911        0.107342       -0.514772       -0.407430
   3 H        0.104821        0.003970       -0.080164       -0.076194
   4 H        0.104821        0.003970       -0.080164       -0.076194
   5 H        0.000405        0.010394       -0.025599       -0.015205
   6 H        0.000405        0.010394       -0.025599       -0.015205
   7 O       -0.165691        1.349353       -0.446568        0.902785
   8 H        0.149061        0.115445       -0.020572        0.094873
  --------------------------------------------------------------------
  Sum:       -1.000000        1.708209       -1.708209        0.000000
  
  Multipole moment analysis of the density matrix
    Molecular charge:                      -1.000000
    Number of electrons:                   26.000000
      Center of electronic charge [Ang]: [ -0.000000,   0.000000,   0.056849]
    Total nuclear charge:                  25.000000
      Center of nuclear charge [Ang]:    [  0.000000,   0.000000,  -0.000000]
    Dipole moment [D]:                     7.099431
      Cartesian components [D]:          [  0.000000,  -0.000000,  -7.099431]
    RMS size of the density [Ang]:         1.800887
      Cartesian components [Ang]:        [  0.850583,   0.576218,   1.479079]
  
  Exciton analysis of the difference density matrix
    <r_h> [Ang]:                  [  0.000000,  -0.000000,  -1.341930]
    <r_e> [Ang]:                  [ -0.000000,   0.000000,   0.189035]
    |<r_e - r_h>| [Ang]:            1.530965
    Hole size [Ang]:                1.736212
      Cartesian components [Ang]: [  0.895005,   0.728731,   1.297055]
    Electron size [Ang]:            2.691221
      Cartesian components [Ang]: [  1.587209,   1.497657,   1.574949]

  Transition density matrix analysis:
  -----------------------------------
  
  CT numbers (Mulliken)
    omega =     0.8410
    <Phe> =    -0.0008
  
  Exciton analysis of the transition density matrix
    Trans. dipole moment [D]:             0.027501
      Cartesian components [D]:         [  0.000000,  -0.027501,   0.000000]
    <r_h> [Ang]:                        [  0.000000,  -0.000000,  -1.687158]
    <r_e> [Ang]:                        [  0.000000,   0.000000,   1.024886]
    |<r_e - r_h>| [Ang]:                  2.712044
    Hole size [Ang]:                      1.184856
      Cartesian components [Ang]:       [  0.823720,   0.467362,   0.711997]
    Electron size [Ang]:                  2.868470
      Cartesian components [Ang]:       [  1.918411,   1.841326,   1.075796]
    RMS electron-hole separation [Ang]:   4.119296
      Cartesian components [Ang]:       [  2.084051,   1.899364,   3.002956]
    Covariance(r_h, r_e) [Ang^2]:         0.009292
    Correlation coefficient:              0.002734
    Center-of-mass size [Ang]:            1.553270
      Cartesian components [Ang]:       [  1.045749,   0.950031,   0.645366]

  Decomposition into state-averaged NTOs
    H- 2 -> L+ 7:  0.6408 ( 82.1%)
    H- 2 -> L+ 5: -0.0960 (  1.8%)
                   omega =  84.1%
  ----------------------------------------------------------------------------


  Excited state 6 (singlet, B2)                                    [converged]
  ----------------------------------------------------------------------------
  Term symbol:  6 (1) B2                                    R^2 =  8.97161e-08

  Total energy:                                           -153.7966821802 a.u.
  Excitation energy:                                               4.699526 eV

  Osc. strength:                                                      0.003134
  Trans. dip. moment [a.u.]:           [  -0.000000,   -0.164991,    0.000000]
  <i|r^2|0> [a.u.]:                    [  -0.000000,    0.000000,   -0.000000]

  Dip. moment [a.u.]:                  [  -0.000000,    0.000000,    0.216210]
  Total dipole [Debye]:                                               0.549550
  <r^2> [a.u.]:                        [  68.855652,   28.932399,  226.395530]
  Total <r^2> [a.u.]:                                               324.183581

  V1^2 = 0.8884, V2^2 = 0.1116

  Important amplitudes:
      occ i      occ j       vir a       vir b          v   
    ---------------------------------------------------------
     2 (B2) A              11 (A1) A                 -0.4821
     2 (B2) A              10 (A1) A                 -0.3405
    ---------------------------------------------------------

  Density matrix analysis:
  ------------------------
  NOs
    Occupation of frontier NOs:
       0.9661   0.9952
    Number of electrons: 26.000000
    Number of unpaired electrons: n_u =  2.72783, n_u,nl =  2.10574
    NO participation ratio (PR_NO):  3.811630
  
  
  Mulliken Population Analysis
  Atom      Charge (e)              h+              e-           Del q
  --------------------------------------------------------------------
   1 C       -0.423771        0.038708       -0.272998       -0.234290
   2 C       -0.423771        0.038708       -0.272998       -0.234290
   3 H        0.211762        0.005481        0.025267        0.030748
   4 H        0.211762        0.005481        0.025267        0.030748
   5 H        0.139307        0.021184        0.102513        0.123697
   6 H        0.139307        0.021184        0.102513        0.123697
   7 O       -1.537140        1.262920       -1.731584       -0.468664
   8 H        0.682543        0.179761        0.448594        0.628355
  --------------------------------------------------------------------
  Sum:       -1.000000        1.573427       -1.573427       -0.000000
  
  Multipole moment analysis of the density matrix
    Molecular charge:                      -1.000000
    Number of electrons:                   26.000000
      Center of electronic charge [Ang]: [  0.000000,  -0.000000,  -0.004401]
    Total nuclear charge:                  25.000000
      Center of nuclear charge [Ang]:    [  0.000000,   0.000000,  -0.000000]
    Dipole moment [D]:                     0.549550
      Cartesian components [D]:          [ -0.000000,   0.000000,   0.549550]
    RMS size of the density [Ang]:         1.868567
      Cartesian components [Ang]:        [  0.861161,   0.558222,   1.561517]
  
  Exciton analysis of the difference density matrix
    <r_h> [Ang]:                  [  0.000000,  -0.000000,  -1.531969]
    <r_e> [Ang]:                  [  0.000000,  -0.000000,  -0.881964]
    |<r_e - r_h>| [Ang]:            0.650004
    Hole size [Ang]:                1.698029
      Cartesian components [Ang]: [  0.825376,   0.876573,   1.197362]
    Electron size [Ang]:            3.343255
      Cartesian components [Ang]: [  1.686955,   1.513144,   2.458035]

  Transition density matrix analysis:
  -----------------------------------
  
  CT numbers (Mulliken)
    omega =     0.8704
    <Phe> =    -0.0049
  
  Exciton analysis of the transition density matrix
    Trans. dipole moment [D]:             0.209683
      Cartesian components [D]:         [ -0.000000,  -0.209683,   0.000000]
    <r_h> [Ang]:                        [  0.000000,  -0.000000,  -1.741626]
    <r_e> [Ang]:                        [  0.000000,   0.000000,  -0.734864]
    |<r_e - r_h>| [Ang]:                  1.006762
    Hole size [Ang]:                      1.092560
      Cartesian components [Ang]:       [  0.475116,   0.819383,   0.544576]
    Electron size [Ang]:                  3.962902
      Cartesian components [Ang]:       [  1.987848,   1.806756,   2.913536]
    RMS electron-hole separation [Ang]:   4.223827
      Cartesian components [Ang]:       [  2.043456,   1.980424,   3.121366]
    Covariance(r_h, r_e) [Ang^2]:         0.035568
    Correlation coefficient:              0.008215
    Center-of-mass size [Ang]:            2.059698
      Cartesian components [Ang]:       [  1.022110,   0.993659,   1.486704]

  Decomposition into state-averaged NTOs
    H- 0 -> L+ 2:  0.4663 ( 43.5%)
    H- 0 -> L+ 3:  0.3622 ( 26.2%)
    H- 0 -> L+ 6: -0.2817 ( 15.9%)
    H- 0 -> L+ 1:  0.0785 (  1.2%)
                   omega =  87.0%
  ----------------------------------------------------------------------------


  Excited state 7 (singlet, B2)                                    [converged]
  ----------------------------------------------------------------------------
  Term symbol:  7 (1) B2                                    R^2 =  9.30992e-08

  Total energy:                                           -153.7582856919 a.u.
  Excitation energy:                                               5.744348 eV

  Osc. strength:                                                      0.032153
  Trans. dip. moment [a.u.]:           [   0.000000,    0.477982,   -0.000000]
  <i|r^2|0> [a.u.]:                    [   0.000000,   -0.000000,    0.000000]

  Dip. moment [a.u.]:                  [  -0.000000,   -0.000000,   -1.471684]
  Total dipole [Debye]:                                               3.740649
  <r^2> [a.u.]:                        [  69.540355,   29.514284,  247.147475]
  Total <r^2> [a.u.]:                                               346.202114

  V1^2 = 0.9447, V2^2 = 0.0553

  Important amplitudes:
      occ i      occ j       vir a       vir b          v   
    ---------------------------------------------------------
     1 (B2) A               8 (A1) A                 -0.6252
     1 (B2) A              10 (A1) A                 -0.2246
    ---------------------------------------------------------

  Density matrix analysis:
  ------------------------
  NOs
    Occupation of frontier NOs:
       0.9869   0.9923
    Number of electrons: 26.000000
    Number of unpaired electrons: n_u =  2.62604, n_u,nl =  2.06989
    NO participation ratio (PR_NO):  3.488505
  
  
  Mulliken Population Analysis
  Atom      Charge (e)              h+              e-           Del q
  --------------------------------------------------------------------
   1 C       -0.379461        0.529029       -0.719010       -0.189981
   2 C       -0.379461        0.529029       -0.719010       -0.189981
   3 H        0.237120        0.061080       -0.004974        0.056106
   4 H        0.237120        0.061080       -0.004974        0.056106
   5 H        0.118845        0.123854       -0.020619        0.103235
   6 H        0.118845        0.123854       -0.020619        0.103235
   7 O       -1.010402        0.054338        0.003736        0.058074
   8 H        0.057394        0.024016       -0.020810        0.003206
  --------------------------------------------------------------------
  Sum:       -1.000000        1.506280       -1.506280        0.000000
  
  Multipole moment analysis of the density matrix
    Molecular charge:                      -1.000000
    Number of electrons:                   26.000000
      Center of electronic charge [Ang]: [  0.000000,   0.000000,   0.029953]
    Total nuclear charge:                  25.000000
      Center of nuclear charge [Ang]:    [  0.000000,   0.000000,  -0.000000]
    Dipole moment [D]:                     3.740648
      Cartesian components [D]:          [ -0.000000,  -0.000000,  -3.740648]
    RMS size of the density [Ang]:         1.930755
      Cartesian components [Ang]:        [  0.865432,   0.563807,   1.631246]
  
  Exciton analysis of the difference density matrix
    <r_h> [Ang]:                  [ -0.000000,  -0.000000,   0.909624]
    <r_e> [Ang]:                  [  0.000000,   0.000000,   2.181585]
    |<r_e - r_h>| [Ang]:            1.271961
    Hole size [Ang]:                1.822669
      Cartesian components [Ang]: [  1.056611,   0.912103,   1.172077]
    Electron size [Ang]:            3.241667
      Cartesian components [Ang]: [  1.872106,   1.590329,   2.115297]

  Transition density matrix analysis:
  -----------------------------------
  
  CT numbers (Mulliken)
    omega =     0.9138
    <Phe> =    -0.0045
  
  Exciton analysis of the transition density matrix
    Trans. dipole moment [D]:             0.607455
      Cartesian components [D]:         [  0.000000,   0.607455,  -0.000000]
    <r_h> [Ang]:                        [  0.000000,   0.000000,   1.004324]
    <r_e> [Ang]:                        [  0.000000,   0.000000,   2.948369]
    |<r_e - r_h>| [Ang]:                  1.944045
    Hole size [Ang]:                      1.322351
      Cartesian components [Ang]:       [  0.765360,   0.892063,   0.605854]
    Electron size [Ang]:                  3.544827
      Cartesian components [Ang]:       [  2.184373,   1.892236,   2.052743]
    RMS electron-hole separation [Ang]:   4.241059
      Cartesian components [Ang]:       [  2.310564,   2.088590,   2.878482]
    Covariance(r_h, r_e) [Ang^2]:         0.053570
    Correlation coefficient:              0.011428
    Center-of-mass size [Ang]:            1.898786
      Cartesian components [Ang]:       [  1.159290,   1.047671,   1.078804]

  Decomposition into state-averaged NTOs
    H- 1 -> L+ 1: -0.6144 ( 75.5%)
    H- 1 -> L+ 0:  0.2738 ( 15.0%)
                   omega =  91.4%
  ----------------------------------------------------------------------------


  Excited state 8 (singlet, B2)                                    [converged]
  ----------------------------------------------------------------------------
  Term symbol:  8 (1) B2                                    R^2 =  2.83943e-06

  Total energy:                                           -153.7411546740 a.u.
  Excitation energy:                                               6.210507 eV

  Osc. strength:                                                      0.004414
  Trans. dip. moment [a.u.]:           [   0.000000,    0.170320,   -0.000000]
  <i|r^2|0> [a.u.]:                    [   0.000000,    0.000000,    0.000000]

  Dip. moment [a.u.]:                  [  -0.000000,    0.000000,   -4.488663]
  Total dipole [Debye]:                                              11.409046
  <r^2> [a.u.]:                        [  64.995767,   27.487813,  225.982005]
  Total <r^2> [a.u.]:                                               318.465585

  V1^2 = 0.8700, V2^2 = 0.1300

  Important amplitudes:
      occ i      occ j       vir a       vir b          v   
    ---------------------------------------------------------
     2 (B2) A              12 (A1) A                  0.5744
     2 (B2) A              11 (A1) A                  0.2527
    ---------------------------------------------------------

  Density matrix analysis:
  ------------------------
  NOs
    Occupation of frontier NOs:
       0.9758   0.9796
    Number of electrons: 26.000000
    Number of unpaired electrons: n_u =  2.77475, n_u,nl =  2.12265
    NO participation ratio (PR_NO):  3.958665
  
  
  Mulliken Population Analysis
  Atom      Charge (e)              h+              e-           Del q
  --------------------------------------------------------------------
   1 C       -0.827542        0.054505       -0.692566       -0.638061
   2 C       -0.827542        0.054505       -0.692566       -0.638061
   3 H        0.186711        0.003702        0.001995        0.005697
   4 H        0.186711        0.003702        0.001995        0.005697
   5 H        0.061508        0.038000        0.007897        0.045897
   6 H        0.061508        0.038000        0.007897        0.045897
   7 O        0.002320        1.363614       -0.292818        1.070796
   8 H        0.156327        0.124227       -0.022088        0.102139
  --------------------------------------------------------------------
  Sum:       -1.000000        1.680254       -1.680254       -0.000000
  
  Multipole moment analysis of the density matrix
    Molecular charge:                      -1.000000
    Number of electrons:                   26.000000
      Center of electronic charge [Ang]: [  0.000000,  -0.000000,   0.091358]
    Total nuclear charge:                  25.000000
      Center of nuclear charge [Ang]:    [  0.000000,   0.000000,  -0.000000]
    Dipole moment [D]:                     11.409043
      Cartesian components [D]:          [ -0.000000,   0.000000, -11.409043]
    RMS size of the density [Ang]:         1.849766
      Cartesian components [Ang]:        [  0.836675,   0.544107,   1.557419]
  
  Exciton analysis of the difference density matrix
    <r_h> [Ang]:                  [  0.000000,  -0.000000,  -1.391570]
    <r_e> [Ang]:                  [  0.000000,  -0.000000,   0.698855]
    |<r_e - r_h>| [Ang]:            2.090425
    Hole size [Ang]:                1.781108
      Cartesian components [Ang]: [  0.813522,   0.849077,   1.337758]
    Electron size [Ang]:            3.156721
      Cartesian components [Ang]: [  1.430206,   1.380104,   2.452491]

  Transition density matrix analysis:
  -----------------------------------
  
  CT numbers (Mulliken)
    omega =     0.8528
    <Phe> =     0.0001
  
  Exciton analysis of the transition density matrix
    Trans. dipole moment [D]:             0.216455
      Cartesian components [D]:         [  0.000000,   0.216455,  -0.000000]
    <r_h> [Ang]:                        [  0.000000,  -0.000000,  -1.698170]
    <r_e> [Ang]:                        [  0.000000,   0.000000,   1.965795]
    |<r_e - r_h>| [Ang]:                  3.663965
    Hole size [Ang]:                      1.153308
      Cartesian components [Ang]:       [  0.481983,   0.821777,   0.649997]
    Electron size [Ang]:                  3.286154
      Cartesian components [Ang]:       [  1.696447,   1.699073,   2.243664]
    RMS electron-hole separation [Ang]:   5.049888
      Cartesian components [Ang]:       [  1.763136,   1.883739,   4.340996]
    Covariance(r_h, r_e) [Ang^2]:         0.026100
    Correlation coefficient:              0.006887
    Center-of-mass size [Ang]:            1.745074
      Cartesian components [Ang]:       [  0.882019,   0.945497,   1.171904]

  Decomposition into state-averaged NTOs
    H- 0 -> L+ 6:  0.5242 ( 54.9%)
    H- 0 -> L+ 3:  0.3625 ( 26.3%)
    H- 0 -> L+ 0:  0.0837 (  1.4%)
                   omega =  85.3%
  ----------------------------------------------------------------------------


  Excited state 9 (singlet, B2)                                    [converged]
  ----------------------------------------------------------------------------
  Term symbol:  9 (1) B2                                    R^2 =  2.41068e-06

  Total energy:                                           -153.7333259658 a.u.
  Excitation energy:                                               6.423537 eV

  Osc. strength:                                                      0.000409
  Trans. dip. moment [a.u.]:           [   0.000000,   -0.050968,    0.000000]
  <i|r^2|0> [a.u.]:                    [   0.000000,   -0.000000,    0.000000]

  Dip. moment [a.u.]:                  [   0.000000,    0.000000,   -2.997523]
  Total dipole [Debye]:                                               7.618944
  <r^2> [a.u.]:                        [  70.067914,   63.491505,  211.641157]
  Total <r^2> [a.u.]:                                               345.200576

  V1^2 = 0.8740, V2^2 = 0.1260

  Important amplitudes:
      occ i      occ j       vir a       vir b          v   
    ---------------------------------------------------------
     7 (A1) A               3 (B2) A                 -0.6553
     7 (A1) A   2 (B2) B    3 (B2) A    5 (B2) B     -0.0478
    ---------------------------------------------------------

  Density matrix analysis:
  ------------------------
  NOs
    Occupation of frontier NOs:
       0.9827   0.9975
    Number of electrons: 26.000000
    Number of unpaired electrons: n_u =  2.79924, n_u,nl =  2.12975
    NO participation ratio (PR_NO):  3.926923
  
  
  Mulliken Population Analysis
  Atom      Charge (e)              h+              e-           Del q
  --------------------------------------------------------------------
   1 C       -0.679321        0.060054       -0.549894       -0.489840
   2 C       -0.679321        0.060054       -0.549894       -0.489840
   3 H        0.141954        0.003578       -0.042638       -0.039060
   4 H        0.141954        0.003578       -0.042638       -0.039060
   5 H        0.046945        0.033833       -0.002498        0.031335
   6 H        0.046945        0.033833       -0.002498        0.031335
   7 O       -0.350079        1.202287       -0.483890        0.718397
   8 H        0.330921        0.293089       -0.016357        0.276733
  --------------------------------------------------------------------
  Sum:       -1.000000        1.690308       -1.690308       -0.000000
  
  Multipole moment analysis of the density matrix
    Molecular charge:                      -1.000000
    Number of electrons:                   26.000000
      Center of electronic charge [Ang]: [ -0.000000,  -0.000000,   0.061008]
    Total nuclear charge:                  25.000000
      Center of nuclear charge [Ang]:    [  0.000000,   0.000000,  -0.000000]
    Dipole moment [D]:                     7.618942
      Cartesian components [D]:          [  0.000000,   0.000000,  -7.618942]
    RMS size of the density [Ang]:         1.927226
      Cartesian components [Ang]:        [  0.868708,   0.826937,   1.508550]
  
  Exciton analysis of the difference density matrix
    <r_h> [Ang]:                  [  0.000000,  -0.000000,  -1.388819]
    <r_e> [Ang]:                  [ -0.000000,  -0.000000,   0.222347]
    |<r_e - r_h>| [Ang]:            1.611167
    Hole size [Ang]:                1.822378
      Cartesian components [Ang]: [  0.843735,   0.763728,   1.423339]
    Electron size [Ang]:            3.865519
      Cartesian components [Ang]: [  1.711028,   2.779321,   2.071231]

  Transition density matrix analysis:
  -----------------------------------
  
  CT numbers (Mulliken)
    omega =     0.8564
    <Phe> =    -0.0000
  
  Exciton analysis of the transition density matrix
    Trans. dipole moment [D]:             0.064774
      Cartesian components [D]:         [  0.000000,  -0.064774,   0.000000]
    <r_h> [Ang]:                        [  0.000000,  -0.000000,  -1.698637]
    <r_e> [Ang]:                        [ -0.000000,  -0.000000,   1.164826]
    |<r_e - r_h>| [Ang]:                  2.863463
    Hole size [Ang]:                      1.159844
      Cartesian components [Ang]:       [  0.458229,   0.407336,   0.984552]
    Electron size [Ang]:                  4.576907
      Cartesian components [Ang]:       [  2.098251,   3.555395,   1.976002]
    RMS electron-hole separation [Ang]:   5.521170
      Cartesian components [Ang]:       [  2.146371,   3.580169,   3.613696]
    Covariance(r_h, r_e) [Ang^2]:         0.004708
    Correlation coefficient:              0.000887
    Center-of-mass size [Ang]:            2.361288
      Cartesian components [Ang]:       [  1.074518,   1.788568,   1.105495]

  Decomposition into state-averaged NTOs
    H- 3 -> L+ 4: -0.6534 ( 85.4%)
                   omega =  85.6%
  ----------------------------------------------------------------------------


  Excited state 10 (singlet, B2)                                    [converged]
  ----------------------------------------------------------------------------
  Term symbol:  10 (1) B2                                   R^2 =  4.43165e-07

  Total energy:                                           -153.7254528693 a.u.
  Excitation energy:                                               6.637774 eV

  Osc. strength:                                                      0.001068
  Trans. dip. moment [a.u.]:           [  -0.000000,    0.081046,   -0.000000]
  <i|r^2|0> [a.u.]:                    [   0.000000,    0.000000,    0.000000]

  Dip. moment [a.u.]:                  [  -0.000000,    0.000000,    2.103001]
  Total dipole [Debye]:                                               5.345297
  <r^2> [a.u.]:                        [ 109.347700,   28.163619,  218.541905]
  Total <r^2> [a.u.]:                                               356.053224

  V1^2 = 0.9421, V2^2 = 0.0579

  Important amplitudes:
      occ i      occ j       vir a       vir b          v   
    ---------------------------------------------------------
     1 (B2) A               9 (A1) A                  0.6640
     1 (B2) A              12 (A1) A                  0.1017
    ---------------------------------------------------------

  Density matrix analysis:
  ------------------------
  NOs
    Occupation of frontier NOs:
       0.9864   0.9945
    Number of electrons: 26.000000
    Number of unpaired electrons: n_u =  2.61475, n_u,nl =  2.06683
    NO participation ratio (PR_NO):  3.454029
  
  
  Mulliken Population Analysis
  Atom      Charge (e)              h+              e-           Del q
  --------------------------------------------------------------------
   1 C       -0.388406        0.538246       -0.737172       -0.198926
   2 C       -0.388406        0.538246       -0.737172       -0.198926
   3 H        0.274717        0.089333        0.004370        0.093703
   4 H        0.274717        0.089333        0.004370        0.093703
   5 H        0.123556        0.113378       -0.005432        0.107946
   6 H        0.123556        0.113378       -0.005432        0.107946
   7 O       -1.098650        0.054814       -0.084988       -0.030174
   8 H        0.078915        0.027155       -0.002428        0.024727
  --------------------------------------------------------------------
  Sum:       -1.000000        1.563883       -1.563883       -0.000000
  
  Multipole moment analysis of the density matrix
    Molecular charge:                      -1.000000
    Number of electrons:                   26.000000
      Center of electronic charge [Ang]: [  0.000000,  -0.000000,  -0.042802]
    Total nuclear charge:                  25.000000
      Center of nuclear charge [Ang]:    [  0.000000,   0.000000,  -0.000000]
    Dipole moment [D]:                     5.345296
      Cartesian components [D]:          [ -0.000000,   0.000000,   5.345296]
    RMS size of the density [Ang]:         1.957799
      Cartesian components [Ang]:        [  1.085224,   0.550755,   1.533602]
  
  Exciton analysis of the difference density matrix
    <r_h> [Ang]:                  [ -0.000000,  -0.000000,   0.859574]
    <r_e> [Ang]:                  [  0.000000,  -0.000000,   0.875104]
    |<r_e - r_h>| [Ang]:            0.015530
    Hole size [Ang]:                1.842345
      Cartesian components [Ang]: [  1.088071,   0.903964,   1.180332]
    Electron size [Ang]:            3.979936
      Cartesian components [Ang]: [  3.257633,   1.486607,   1.737157]

  Transition density matrix analysis:
  -----------------------------------
  
  CT numbers (Mulliken)
    omega =     0.9120
    <Phe> =    -0.0002
  
  Exciton analysis of the transition density matrix
    Trans. dipole moment [D]:             0.103000
      Cartesian components [D]:         [ -0.000000,   0.103000,  -0.000000]
    <r_h> [Ang]:                        [  0.000000,   0.000000,   1.021912]
    <r_e> [Ang]:                        [  0.000000,  -0.000000,   0.992506]
    |<r_e - r_h>| [Ang]:                  0.029406
    Hole size [Ang]:                      1.305734
      Cartesian components [Ang]:       [  0.767281,   0.893293,   0.564135]
    Electron size [Ang]:                  4.802851
      Cartesian components [Ang]:       [  3.999822,   1.796437,   1.960005]
    RMS electron-hole separation [Ang]:   4.975362
      Cartesian components [Ang]:       [  4.068645,   2.006222,   2.043385]
    Covariance(r_h, r_e) [Ang^2]:         0.009480
    Correlation coefficient:              0.001512
    Center-of-mass size [Ang]:            2.489542
      Cartesian components [Ang]:       [  2.038426,   1.003168,   1.017986]

  Decomposition into state-averaged NTOs
    H- 1 -> L+ 0: -0.6171 ( 76.2%)
    H- 1 -> L+ 1: -0.2710 ( 14.7%)
                   omega =  91.2%
  ----------------------------------------------------------------------------


--------------------------------------------------------------------------------
  Time of ADC calculation:  CPU 205.87 s  wall 55.75 s
================================================================================
 
 --------------------------------------------------------------
             Orbital Energies (a.u.) and Symmetries
 --------------------------------------------------------------
 
 Alpha MOs, Restricted
 -- Occupied --                  
-20.213 -11.049 -11.047  -0.930  -0.854  -0.598  -0.473  -0.384
  1 A1    2 A1    1 B1    3 A1    4 A1    2 B1    5 A1    6 A1                 
 -0.328  -0.271  -0.194  -0.130  -0.129
  3 B1    7 A1    1 B2    4 B1    2 B2                                         
 -- Virtual --                   
  0.148   0.155   0.168   0.171   0.175   0.186   0.258   0.300
  5 B1    8 A1    3 B2    9 A1    1 A2    6 B1   10 A1    2 A2                 
  0.323   0.327   0.337   0.344   0.375   0.386   0.391   0.452
  7 B1   11 A1    8 B1   12 A1    4 B2    9 B1   13 A1    5 B2                 
  0.463   0.480   0.515   0.523   0.550   0.577   0.682   0.684
  3 A2   10 B1   14 A1   15 A1   11 B1   16 A1   17 A1   12 B1                 
  0.718   0.907   1.001   1.058   1.081   1.098   1.113   1.153
 13 B1   18 A1   19 A1   20 A1   21 A1    6 B2   14 B1    4 A2                 
  1.183   1.205   1.218   1.240   1.291   1.324   1.334   1.339
 15 B1    7 B2   22 A1   16 B1    5 A2   23 A1   17 B1   24 A1                 
  1.370   1.468   1.483   1.503   1.564   1.645   1.703   1.719
  8 B2    9 B2    6 A2   18 B1   19 B1   25 A1   20 B1   10 B2                 
  1.860   1.927   1.991   2.045   2.127   2.132   2.132   2.210
 26 A1   21 B1   27 A1    7 A2   11 B2   28 A1   22 B1   29 A1                 
  2.212   2.306   2.360   2.393   2.437   2.510   2.561   2.604
 12 B2   30 A1    8 A2   13 B2   23 B1   24 B1   31 A1    9 A2                 
  2.759   2.764   2.846   3.010   3.036   3.097   3.453   3.562
 32 A1   25 B1   26 B1   33 A1   34 A1   35 A1   27 B1   28 B1                 
  3.922   3.945   3.970   4.089   4.541
 14 B2   10 A2   36 A1   29 B1   37 A1                                         
 
 Beta MOs, Restricted
 -- Occupied --                  
-20.213 -11.049 -11.047  -0.930  -0.854  -0.598  -0.473  -0.384
  1 A1    2 A1    1 B1    3 A1    4 A1    2 B1    5 A1    6 A1                 
 -0.328  -0.271  -0.194  -0.130  -0.129
  3 B1    7 A1    1 B2    4 B1    2 B2                                         
 -- Virtual --                   
  0.148   0.155   0.168   0.171   0.175   0.186   0.258   0.300
  5 B1    8 A1    3 B2    9 A1    1 A2    6 B1   10 A1    2 A2                 
  0.323   0.327   0.337   0.344   0.375   0.386   0.391   0.452
  7 B1   11 A1    8 B1   12 A1    4 B2    9 B1   13 A1    5 B2                 
  0.463   0.480   0.515   0.523   0.550   0.577   0.682   0.684
  3 A2   10 B1   14 A1   15 A1   11 B1   16 A1   17 A1   12 B1                 
  0.718   0.907   1.001   1.058   1.081   1.098   1.113   1.153
 13 B1   18 A1   19 A1   20 A1   21 A1    6 B2   14 B1    4 A2                 
  1.183   1.205   1.218   1.240   1.291   1.324   1.334   1.339
 15 B1    7 B2   22 A1   16 B1    5 A2   23 A1   17 B1   24 A1                 
  1.370   1.468   1.483   1.503   1.564   1.645   1.703   1.719
  8 B2    9 B2    6 A2   18 B1   19 B1   25 A1   20 B1   10 B2                 
  1.860   1.927   1.991   2.045   2.127   2.132   2.132   2.210
 26 A1   21 B1   27 A1    7 A2   11 B2   28 A1   22 B1   29 A1                 
  2.212   2.306   2.360   2.393   2.437   2.510   2.561   2.604
 12 B2   30 A1    8 A2   13 B2   23 B1   24 B1   31 A1    9 A2                 
  2.759   2.764   2.846   3.010   3.036   3.097   3.453   3.562
 32 A1   25 B1   26 B1   33 A1   34 A1   35 A1   27 B1   28 B1                 
  3.922   3.945   3.970   4.089   4.541
 14 B2   10 A2   36 A1   29 B1   37 A1                                         
 --------------------------------------------------------------
 
          Ground-State Mulliken Net Atomic Charges

     Atom                 Charge (a.u.)
  ----------------------------------------
      1 C                    -0.186857
      2 C                    -0.186857
      3 H                     0.176462
      4 H                     0.176462
      5 H                     0.009641
      6 H                     0.009641
      7 O                    -1.069716
      8 H                     0.071222
  ----------------------------------------
  Sum of atomic charges =    -1.000000

 -----------------------------------------------------------------
                    Cartesian Multipole Moments
 -----------------------------------------------------------------
    Charge (ESU x 10^10)
                -4.8032
    Dipole Moment (Debye)
         X      -0.0000      Y       0.0000      Z       5.2869
       Tot       5.2869
    Quadrupole Moments (Debye-Ang)
        XX     -23.6655     XY       0.0000     YY     -26.4915
        XZ       0.0000     YZ      -0.0000     ZZ     -32.8797
    Octopole Moments (Debye-Ang^2)
       XXX      -0.0000    XXY       0.0000    XYY      -0.0000
       YYY       0.0000    XXZ       1.0673    XYZ       0.0000
       YYZ      -0.0602    XZZ       0.0000    YZZ       0.0000
       ZZZ       6.3809
    Hexadecapole Moments (Debye-Ang^3)
      XXXX     -87.8742   XXXY       0.0000   XXYY     -21.7151
      XYYY       0.0000   YYYY     -39.6795   XXXZ      -0.0000
      XXYZ       0.0000   XYYZ      -0.0000   YYYZ      -0.0000
      XXZZ     -70.5492   XYZZ       0.0000   YYZZ     -65.2891
      XZZZ       0.0000   YZZZ      -0.0000   ZZZZ    -292.5999
 -----------------------------------------------------------------
 Total job time:  164.48s(wall), 254.76s(cpu) 
 Wed Mar  2 14:42:29 2022

        *************************************************************
        *                                                           *
        *  Thank you very much for using Q-Chem.  Have a nice day.  *
        *                                                           *
        *************************************************************


