/src/tsommerfeld/qchem/exe/qcprog.exe .cap.inp.9247.qcin.1 /src/jdavis/qchem.scratch/qchem9247/

                  Welcome to Q-Chem
     A Quantum Leap Into The Future Of Chemistry


 Q-Chem 5.4 (devel), Q-Chem, Inc., Pleasanton, CA (2021)

 E. Epifanovsky,  A. T. B. Gilbert,  Xintian Feng,  Joonho Lee,  Yuezhi Mao,  
 N. Mardirossian,  P. Pokhilko,  A. White,  M. Wormit,  M. P. Coons,  
 A. L. Dempwolff,  Zhengting Gan,  D. Hait,  P. R. Horn,  L. D. Jacobson,  
 I. Kaliman,  J. Kussmann,  A. W. Lange,  Ka Un Lao,  D. S. Levine,  Jie Liu,  
 S. C. McKenzie,  A. F. Morrison,  K. Nanda,  F. Plasser,  D. R. Rehn,  
 M. L. Vidal,  Zhi-Qiang You,  Ying Zhu,  B. Alam,  B. Albrecht,  
 A. Aldossary,  E. Alguire,  J. H. Andersen,  D. Barton,  K. Begam,  A. Behn,  
 Y. A. Bernard,  E. J. Berquist,  H. Burton,  A. Carreras,  K. Carter-Fenk,  
 R. Chakraborty,  A. D. Chien,  K. D. Closser,  V. Cofer-Shabica,  
 S. Dasgupta,  Jia Deng,  M. de Wergifosse,  M. Diedenhofen,  Hainam Do,  
 S. Ehlert,  Po-Tung Fang,  S. Fatehi,  Qingguo Feng,  T. Friedhoff,  
 J. Gayvert,  Qinghui Ge,  G. Gidofalvi,  M. Goldey,  J. Gomes,  
 C. Gonzalez-Espinoza,  S. Gulania,  A. Gunina,  M. W. D. Hanson-Heine,  
 P. H. P. Harbach,  A. W. Hauser,  M. F. Herbst,  M. Hernandez Vera,  
 M. Hodecker,  Z. C. Holden,  S. Houck,  Xunkun Huang,  Kerwin Hui,  
 B. C. Huynh,  M. Ivanov,  Hyunjun Ji,  Hanjie Jiang,  B. Kaduk,  S. Kaehler,  
 K. Khistyaev,  Jaehoon Kim,  P. Klunzinger,  Z. Koczor-Benda,  
 Joong Hoon Koh,  D. Kosenkov,  L. Koulias,  T. Kowalczyk,  C. M. Krauter,  
 K. Kue,  A. Kunitsa,  T. Kus,  A. Landau,  K. V. Lawler,  D. Lefrancois,  
 S. Lehtola,  Rain Li,  Yi-Pei Li,  Jiashu Liang,  M. Liebenthal,  
 Hung-Hsuan Lin,  You-Sheng Lin,  Fenglai Liu,  Kuan-Yu Liu,  
 M. Loipersberger,  A. Luenser,  A. Manjanath,  P. Manohar,  E. Mansoor,  
 S. F. Manzer,  Shan-Ping Mao,  A. V. Marenich,  T. Markovich,  S. Mason,  
 S. A. Maurer,  P. F. McLaughlin,  M. F. S. J. Menger,  J.-M. Mewes,  
 S. A. Mewes,  P. Morgante,  J. W. Mullinax,  K. J. Oosterbaan,  G. Paran,  
 Alexander C. Paul,  Suranjan K. Paul,  F. Pavosevic,  Zheng Pei,  S. Prager,  
 E. I. Proynov,  E. Ramos,  B. Rana,  A. E. Rask,  A. Rettig,  R. M. Richard,  
 F. Rob,  E. Rossomme,  T. Scheele,  M. Scheurer,  M. Schneider,  
 N. Sergueev,  S. M. Sharada,  W. Skomorowski,  D. W. Small,  C. J. Stein,  
 Yu-Chuan Su,  E. J. Sundstrom,  Zhen Tao,  J. Thirman,  T. Tsuchimochi,  
 N. M. Tubman,  S. P. Veccham,  O. Vydrov,  J. Wenzel,  J. Witte,  A. Yamada,  
 Kun Yao,  S. Yeganeh,  S. R. Yost,  A. Zech,  Igor Ying Zhang,  Xing Zhang,  
 Yu Zhang,  D. Zuev,  A. Aspuru-Guzik,  A. T. Bell,  N. A. Besley,  
 K. B. Bravaya,  B. R. Brooks,  D. Casanova,  Jeng-Da Chai,  S. Coriani,  
 C. J. Cramer,  A. E. DePrince, III,  R. A. DiStasio Jr.,  A. Dreuw,  
 B. D. Dunietz,  T. R. Furlani,  W. A. Goddard III,  S. Grimme,  
 S. Hammes-Schiffer,  T. Head-Gordon,  W. J. Hehre,  Chao-Ping Hsu,  
 T.-C. Jagau,  Yousung Jung,  A. Klamt,  Jing Kong,  D. S. Lambrecht,  
 WanZhen Liang,  N. J. Mayhall,  C. W. McCurdy,  J. B. Neaton,  
 C. Ochsenfeld,  J. A. Parkhill,  R. Peverati,  V. A. Rassolov,  Yihan Shao,  
 L. V. Slipchenko,  T. Stauch,  R. P. Steele,  J. E. Subotnik,  
 A. J. W. Thom,  A. Tkatchenko,  D. G. Truhlar,  T. Van Voorhis,  
 T. A. Wesolowski,  K. B. Whaley,  H. L. Woodcock III,  P. M. Zimmerman,  
 S. Faraji,  P. M. W. Gill,  M. Head-Gordon,  J. M. Herbert,  A. I. Krylov

 Additional authors for Version 5.4.1: 
 S. Kotaru,  Shaozhi Li,  Xiangyuan Li,  F. Matz,  A. Molle,  Haisheng Ren,  
 Yingli Su,  Hung-Yi Tsai,  C. Utku,  Fang Wang

 Contributors to earlier versions of Q-Chem not listed above: 
 R. D. Adamson,  B. Austin,  R. Baer,  J. Baker,  G. J. O. Beran,  
 K. Brandhorst,  S. T. Brown,  E. F. C. Byrd,  A. K. Chakraborty,  
 G. K. L. Chan,  Chun-Min Chang,  Yunqing Chen,  C.-L. Cheng,  
 Siu Hung Chien,  D. M. Chipman,  D. L. Crittenden,  H. Dachsel,  
 R. J. Doerksen,  A. D. Dutoi,  R. G. Edgar,  J. Fosso-Tande,  
 L. Fusti-Molnar,  D. Ghosh,  A. Ghysels,  A. Golubeva-Zadorozhnaya,  
 J. Gonthier,  M. S. Gordon,  S. R. Gwaltney,  G. Hawkins,  J. E. Herr,  
 A. Heyden,  S. Hirata,  E. G. Hohenstein,  G. Kedziora,  F. J. Keil,  
 C. Kelley,  Jihan Kim,  R. A. King,  R. Z. Khaliullin,  P. P. Korambath,  
 W. Kurlancheek,  A. Laurent,  A. M. Lee,  M. S. Lee,  S. V. Levchenko,  
 Ching Yeh Lin,  D. Liotard,  E. Livshits,  R. C. Lochan,  I. Lotan,  
 L. A. Martinez-Martinez,  P. E. Maslen,  N. Nair,  D. P. O'Neill,  
 D. Neuhauser,  E. Neuscamman,  C. M. Oana,  R. Olivares-Amaya,  R. Olson,  
 T. M. Perrine,  B. Peters,  P. A. Pieniazek,  A. Prociuk,  Y. M. Rhee,  
 J. Ritchie,  M. A. Rohrdanz,  E. Rosta,  N. J. Russ,  H. F. Schaefer III,  
 M. W. Schmidt,  N. E. Schultz,  S. Sharma,  N. Shenvi,  C. D. Sherrill,  
 A. C. Simmonett,  A. Sodt,  T. Stein,  D. Stuck,  K. S. Thanthiriwatte,  
 V. Vanovschi,  L. Vogt,  Tao Wang,  A. Warshel,  M. A. Watson,  
 C. F. Williams,  Q. Wu,  X. Xu,  Jun Yang,  W. Zhang,  Yan Zhao

 Please cite Q-Chem as follows:
 Y. Shao et al., Mol. Phys. 113, 184-215 (2015)
 DOI: 10.1080/00268976.2014.952696

 Q-Chem 5.4.1 for Intel X86 EM64T Linux

 Parts of Q-Chem use Armadillo 9.900.5 (Nocturnal Misbehaviour).
 http://arma.sourceforge.net/

 Q-Chem begins on Thu Apr 28 19:04:49 2022  

 Host: node02
0

     Scratch files written to /src/jdavis/qchem.scratch/qchem9247//
 Processing $rem in /src/tsommerfeld/qchem/config/preferences:
 Processing $rem in /home/jdavis/.qchemrc:
 Core orbitals will be frozen

 Checking the input file for inconsistencies... 	...done.

--------------------------------------------------------------
User input:
--------------------------------------------------------------
$comment
	Ethylene CAP-EOM-CCSD
	Basis: C/7H: jun-TZ+4p1d, H: TZ
$end

$molecule
-1 1
C         0.0000000000    0.0000000000    0.8417902907
C         0.0000000000    0.0000000000   -0.4872097093
H         0.9623488518    0.0000000000    1.3363703127
H         0.9623489048    0.0000000000   -0.9817896873
H        -0.9623488518    0.0000000000    1.3363703127
H        -0.9623489048    0.0000000000   -0.9817896873
H         0.0000000000    0.0000000000   -10.4872097093
$end


$rem
	method eom-mp2
	basis gen
        EE_STATES [0,0,0,10]
	complex_ccman 1
	xc_grid 000250000974
	scf_convergence 8
	thresh 14
	mem_total 95000
	threads 12
$end

$complex_ccman
	cap_type 2 
	proj_cap 3
	cap_eta 300 
	cap_x 3500
$end

$basis
C     1
S    8   1.00
   8236.0000000              0.0005310
   1235.0000000              0.0041080
    280.8000000              0.0210870
     79.2700000              0.0818530
     25.5900000              0.2348170
      8.9970000              0.4344010
      3.3190000              0.3461290
      0.3643000             -0.0089830
S    1   1.00
      0.9059000              1.0000000
S    8   1.00
   8236.0000000             -0.0001130
   1235.0000000             -0.0008780
    280.8000000             -0.0045400
     79.2700000             -0.0181330
     25.5900000             -0.0557600
      8.9970000             -0.1268950
      3.3190000             -0.1703520
      0.3643000              0.5986840
S    1   1.00
      0.1285000              1.0000000
S    1   1.00
      0.0440200              1.0000000
P    3   1.00
     18.7100000              0.0140310
      4.1330000              0.0868660
      1.2000000              0.2902160
P    1   1.00
      0.3827000              1.0000000
P    1   1.00
      0.1209000              1.0000000
P    1   1.00
      0.0356900              1.0000000
P    1   1.0
      0.0237933 1.0
P    1   1.0
      0.0158622 1.0
P    1   1.0
      0.0105748 1.0
P    1   1.0
      0.0070498 1.0
D    1   1.00
      1.0970000              1.0000000
D    1   1.00
      0.3180000              1.0000000
D    1   1.00
      0.1000000              1.0000000
D    1   1.00
      0.0500000 1.0
F    1   1.00
      0.7610000              1.0000000
****
C     2
S    8   1.00
   8236.0000000              0.0005310
   1235.0000000              0.0041080
    280.8000000              0.0210870
     79.2700000              0.0818530
     25.5900000              0.2348170
      8.9970000              0.4344010
      3.3190000              0.3461290
      0.3643000             -0.0089830
S    1   1.00
      0.9059000              1.0000000
S    8   1.00
   8236.0000000             -0.0001130
   1235.0000000             -0.0008780
    280.8000000             -0.0045400
     79.2700000             -0.0181330
     25.5900000             -0.0557600
      8.9970000             -0.1268950
      3.3190000             -0.1703520
      0.3643000              0.5986840
S    1   1.00
      0.1285000              1.0000000
S    1   1.00
      0.0440200              1.0000000
P    3   1.00
     18.7100000              0.0140310
      4.1330000              0.0868660
      1.2000000              0.2902160
P    1   1.00
      0.3827000              1.0000000
P    1   1.00
      0.1209000              1.0000000
P    1   1.00
      0.0356900              1.0000000
P    1   1.0
      0.0237933 1.0
P    1   1.0
      0.0158622 1.0
P    1   1.0
      0.0105748 1.0
P    1   1.0
      0.0070498 1.0
D    1   1.00
      1.0970000              1.0000000
D    1   1.00
      0.3180000              1.0000000
D    1   1.00
      0.1000000              1.0000000
D    1   1.00
      0.0500000 1.0
F    1   1.00
      0.7610000              1.0000000
****
H     3
cc-pVTZ
****
H     4
cc-pVTZ
****
H     5
cc-pVTZ
****
H     6
cc-pVTZ
****
H     7
aug-cc-pVTZ
****
$end
--------------------------------------------------------------
 ----------------------------------------------------------------
             Standard Nuclear Orientation (Angstroms)
    I     Atom           X                Y                Z
 ----------------------------------------------------------------
    1      C       0.0000000000     0.0000000000     1.2918235242
    2      C       0.0000000000     0.0000000000    -0.0371764758
    3      H       0.9623488518     0.0000000000     1.7864035462
    4      H       0.9623489048     0.0000000000    -0.5317564538
    5      H      -0.9623488518     0.0000000000     1.7864035462
    6      H      -0.9623489048     0.0000000000    -0.5317564538
    7      H       0.0000000000     0.0000000000   -10.0371764758
 ----------------------------------------------------------------
 Molecular Point Group                 C2v   NOp =  4
 Largest Abelian Subgroup              C2v   NOp =  4
 Nuclear Repulsion Energy =          34.38697142 hartrees
 There are        9 alpha and        9 beta electrons
 Requested basis set is non-standard
 There are 66 shells and 182 basis functions
 Total memory of 95000 MB is distributed as follows: 
   MEM_STATIC is set to 192 MB
   QALLOC/CCMAN JOB total memory use is  94808 MB
 Warning: actual memory use might exceed 95000 MB

 Total QAlloc Memory Limit  95000 MB
 Mega-Array Size       188 MB
 MEM_STATIC part       192 MB

                       Distance Matrix (Angstroms)
             C (  1)   C (  2)   H (  3)   H (  4)   H (  5)   H (  6)
   C (  2)  1.329000
   H (  3)  1.082000  2.061931
   H (  4)  2.061931  1.082000  2.318160
   H (  5)  1.082000  2.061931  1.924698  3.013026
   H (  6)  2.061931  1.082000  3.013026  1.924698  2.318160
   H (  7) 11.329000 10.000000 11.862679  9.554011 11.862679  9.554011

 
 A cutoff of  1.0D-14 yielded   1961 shell pairs
 There are     15211 function pairs (     18614 Cartesian)
 Smallest overlap matrix eigenvalue = 2.35E-06

 Scale SEOQF with 1.000000e-02/1.000000e-02/1.000000e-02

 Standard Electronic Orientation quadrupole field applied
 Nucleus-field energy     =    -0.0000000012 hartrees
 ================ Generating on-the-fly SAD Guess ================
Attempting to make child job directory: /src/jdavis/qchem.scratch/qchem9247//Frg1/
Attempting to make child job directory: /src/jdavis/qchem.scratch/qchem9247//Frg2/
Creating input file /src/jdavis/qchem.scratch/qchem9247/Frg1.input
using default PutDataFrgm: nothing
calling putenv with: QCSCRATCH=/src/jdavis/qchem.scratch/qchem9247/ 
Spawning Job For Fragment 0
Done Job For Fragment 0
calling putenv with: QCSCRATCH=/src/jdavis/qchem.scratch 
calling putenv with: QCTHREADS=1 
Creating input file /src/jdavis/qchem.scratch/qchem9247/Frg2.input
using default PutDataFrgm: nothing
calling putenv with: QCSCRATCH=/src/jdavis/qchem.scratch/qchem9247/ 
Spawning Job For Fragment 1
Done Job For Fragment 1
calling putenv with: QCSCRATCH=/src/jdavis/qchem.scratch 
calling putenv with: QCTHREADS=1 
 Time for running child jobs:  CPU 2.09 s  wall 1.98 s
 ============= Method Specific SAD Guess Constructed =============
 Guess from on-the-fly superposition of atomic densities
 Warning: Energy on first SCF cycle will be non-variational

 -----------------------------------------------------------------------
  General SCF calculation program by
  Eric Jon Sundstrom, Paul Horn, Yuezhi Mao, Dmitri Zuev, Alec White,
  David Stuck, Shaama M.S., Shane Yost, Joonho Lee, David Small,
  Daniel Levine, Susi Lehtola, Hugh Burton, Evgeny Epifanovsky,
  Bang C. Huynh
 -----------------------------------------------------------------------
 Hartree-Fock
 using 12 threads for integral computing
 -------------------------------------------------------
 OpenMP Integral computing Module                
 Release: version 1.0, May 2013, Q-Chem Inc. Pittsburgh 
 -------------------------------------------------------
 A restricted SCF calculation will be
 performed using DIIS
 SCF converges when DIIS error is below 1.0e-08
 ---------------------------------------
  Cycle       Energy         DIIS error
 ---------------------------------------
    1     -78.8073563212      2.74e-02  
    2     -78.4819635323      2.47e-03  
    3     -78.5324236127      5.79e-04  
    4     -78.5345966941      1.99e-04  
    5     -78.5348453202      3.68e-05  
    6     -78.5348614155      7.89e-06  
    7     -78.5348626281      4.21e-06  
    8     -78.5348628128      8.93e-07  
    9     -78.5348628329      2.72e-07  
   10     -78.5348628344      7.85e-08  
   11     -78.5348628346      1.10e-08  
   12     -78.5348628346      1.52e-09  Convergence criterion met
 ---------------------------------------
 SCF time:   CPU 55.18s  wall 5.00s 
 SCF   energy in the final basis set =      -78.5348628346
 Total energy in the final basis set =      -78.5348628346
 CAP matrix will be calculated and saved for subsequent use
 mp2 is not implemented in computing transition properties!


 ------------------------------------------------------------------------------

   CCMAN2: suite of methods based on coupled cluster
           and equation of motion theories.

   Components:
   * libvmm-1.3-trunk
     by Evgeny Epifanovsky, Ilya Kaliman.
   * libtensor-2.5-trunk
     by Evgeny Epifanovsky, Michael Wormit, Dmitry Zuev, Sam Manzer, 
        Ilya Kaliman.
   * libcc-2.5-trunk
     by Evgeny Epifanovsky, Arik Landau, Tomasz Kus, Kirill Khistyaev, 
        Dmitry Zuev, Prashant Manohar, Xintian Feng, Anna Krylov, 
        Matthew Goldey, Alec White, Thomas Jagau, Kaushik Nanda, 
        Anastasia Gunina, Alexander Kunitsa, Joonho Lee.

   CCMAN original authors:
   Anna I. Krylov, C. David Sherrill, Steven R. Gwaltney,
   Edward F. C. Byrd (2000)
   Sergey V. Levchenko, Lyudmila V. Slipchenko, Tao Wang,
   Ana-Maria C. Cristian (2003)
   Piotr A. Pieniazek, C. Melania Oana, Evgeny Epifanovsky (2007)
   Prashant Manohar (2009)

 ------------------------------------------------------------------------------


 Allocating and initializing 94808MB of RAM...
 Calculation will run on 12 cores.

 
 Alpha MOs, Restricted
 -- Occupied --                  
-11.177 -11.175  -0.989  -0.730  -0.610  -0.517  -0.465  -0.327
  1 A1    2 A1    3 A1    4 A1    1 B1    5 A1    2 B1    1 B2                 
 -0.031
  6 A1                                                                         
 -- Virtual --                   
  0.044   0.045   0.049   0.064   0.067   0.067   0.072   0.074
  3 B1    2 B2    7 A1    8 A1    4 B1    3 B2    5 B1    4 B2                 
  0.093   0.094   0.095   0.100   0.115   0.115   0.118   0.130
  9 A1    6 B1    5 B2   10 A1   11 A1    7 B1    6 B2   12 A1                 
  0.136   0.137   0.155   0.177   0.180   0.186   0.188   0.190
  7 B2    8 B1   13 A1    8 B2   14 A1    9 B1   15 A1    1 A2                 
  0.201   0.207   0.216   0.225   0.237   0.237   0.237   0.242
  9 B2   10 B1   16 A1   17 A1   18 A1   10 B2   11 B1    2 A2                 
  0.251   0.283   0.295   0.306   0.310   0.321   0.346   0.350
 11 B2   19 A1   12 B1   20 A1   12 B2   13 B1   21 A1   13 B2                 
  0.351   0.378   0.403   0.408   0.425   0.441   0.454   0.485
 14 B1   22 A1   14 B2   23 A1   15 B1    3 A2   24 A1   25 A1                 
  0.492   0.525   0.538   0.544   0.546   0.560   0.625   0.641
 16 B1   17 B1   26 A1   27 A1    4 A2   15 B2   28 A1   18 B1                 
  0.687   0.710   0.746   0.759   0.810   0.815   0.819   0.842
 16 B2   29 A1   19 B1   30 A1   17 B2   31 A1   20 B1   21 B1                 
  0.862   0.886   0.916   0.923   1.030   1.056   1.073   1.113
 32 A1   33 A1   18 B2   34 A1   35 A1   22 B1    5 A2   19 B2                 
  1.113   1.116   1.133   1.191   1.194   1.203   1.254   1.256
 23 B1   36 A1   20 B2   37 A1    6 A2   38 A1   21 B2   24 B1                 
  1.281   1.313   1.331   1.427   1.474   1.557   1.572   1.604
 22 B2    7 A2   25 B1   39 A1   40 A1   23 B2   26 B1   27 B1                 
  1.675   1.715   1.734   1.786   1.915   2.055   2.081   2.153
 41 A1   42 A1    8 A2   28 B1   43 A1   44 A1   45 A1   29 B1                 
  2.630   2.787   2.797   2.812   2.832   2.853   2.918   2.951
 24 B2   46 A1   30 B1   47 A1   25 B2   31 B1   48 A1   32 B1                 
  2.970   3.046   3.048   3.121   3.156   3.187   3.215   3.280
 26 B2    9 A2   49 A1   33 B1   27 B2   34 B1   50 A1   10 A2                 
  3.317   3.318   3.342   3.513   3.519   3.534   3.557   3.566
 28 B2   11 A2   51 A1   52 A1   35 B1   12 A2   29 B2   36 B1                 
  3.582   3.606   3.667   3.696   3.713   3.838   3.838   3.838
 53 A1   54 A1   30 B2   13 A2   55 A1   37 B1   31 B2   56 A1                 
  3.838   3.838   3.849   3.875   4.031   4.059   4.076   4.081
 14 A2   57 A1   38 B1   39 B1   32 B2   58 A1   40 B1   41 B1                 
  4.112   4.117   4.169   4.273   4.278   4.278   4.280   4.339
 33 B2   59 A1   15 A2   60 A1   34 B2   42 B1   61 A1   62 A1                 
  4.350   4.401   4.405   4.419   4.647   4.667   4.717   4.756
 16 A2   43 B1   35 B2   36 B2   63 A1   44 B1   17 A2   64 A1                 
  4.848   4.907   4.998   5.101   5.140   5.216   5.275   5.365
 65 A1   37 B2   38 B2   66 A1   45 B1   46 B1   18 A2   67 A1                 
  5.417   5.478   5.534   5.593   5.728   5.775   6.162   6.238
 68 A1   19 A2   47 B1   39 B2   48 B1   69 A1   49 B1   70 A1                 
  6.370   6.717   6.948  12.978  15.421
 50 B1   71 A1   51 B1   72 A1   73 A1                                         
 
 Beta MOs, Restricted
 -- Occupied --                  
-11.177 -11.175  -0.989  -0.730  -0.610  -0.517  -0.465  -0.327
  1 A1    2 A1    3 A1    4 A1    1 B1    5 A1    2 B1    1 B2                 
 -0.031
  6 A1                                                                         
 -- Virtual --                   
  0.044   0.045   0.049   0.064   0.067   0.067   0.072   0.074
  3 B1    2 B2    7 A1    8 A1    4 B1    3 B2    5 B1    4 B2                 
  0.093   0.094   0.095   0.100   0.115   0.115   0.118   0.130
  9 A1    6 B1    5 B2   10 A1   11 A1    7 B1    6 B2   12 A1                 
  0.136   0.137   0.155   0.177   0.180   0.186   0.188   0.190
  7 B2    8 B1   13 A1    8 B2   14 A1    9 B1   15 A1    1 A2                 
  0.201   0.207   0.216   0.225   0.237   0.237   0.237   0.242
  9 B2   10 B1   16 A1   17 A1   18 A1   10 B2   11 B1    2 A2                 
  0.251   0.283   0.295   0.306   0.310   0.321   0.346   0.350
 11 B2   19 A1   12 B1   20 A1   12 B2   13 B1   21 A1   13 B2                 
  0.351   0.378   0.403   0.408   0.425   0.441   0.454   0.485
 14 B1   22 A1   14 B2   23 A1   15 B1    3 A2   24 A1   25 A1                 
  0.492   0.525   0.538   0.544   0.546   0.560   0.625   0.641
 16 B1   17 B1   26 A1   27 A1    4 A2   15 B2   28 A1   18 B1                 
  0.687   0.710   0.746   0.759   0.810   0.815   0.819   0.842
 16 B2   29 A1   19 B1   30 A1   17 B2   31 A1   20 B1   21 B1                 
  0.862   0.886   0.916   0.923   1.030   1.056   1.073   1.113
 32 A1   33 A1   18 B2   34 A1   35 A1   22 B1    5 A2   19 B2                 
  1.113   1.116   1.133   1.191   1.194   1.203   1.254   1.256
 23 B1   36 A1   20 B2   37 A1    6 A2   38 A1   21 B2   24 B1                 
  1.281   1.313   1.331   1.427   1.474   1.557   1.572   1.604
 22 B2    7 A2   25 B1   39 A1   40 A1   23 B2   26 B1   27 B1                 
  1.675   1.715   1.734   1.786   1.915   2.055   2.081   2.153
 41 A1   42 A1    8 A2   28 B1   43 A1   44 A1   45 A1   29 B1                 
  2.630   2.787   2.797   2.812   2.832   2.853   2.918   2.951
 24 B2   46 A1   30 B1   47 A1   25 B2   31 B1   48 A1   32 B1                 
  2.970   3.046   3.048   3.121   3.156   3.187   3.215   3.280
 26 B2    9 A2   49 A1   33 B1   27 B2   34 B1   50 A1   10 A2                 
  3.317   3.318   3.342   3.513   3.519   3.534   3.557   3.566
 28 B2   11 A2   51 A1   52 A1   35 B1   12 A2   29 B2   36 B1                 
  3.582   3.606   3.667   3.696   3.713   3.838   3.838   3.838
 53 A1   54 A1   30 B2   13 A2   55 A1   37 B1   31 B2   56 A1                 
  3.838   3.838   3.849   3.875   4.031   4.059   4.076   4.081
 14 A2   57 A1   38 B1   39 B1   32 B2   58 A1   40 B1   41 B1                 
  4.112   4.117   4.169   4.273   4.278   4.278   4.280   4.339
 33 B2   59 A1   15 A2   60 A1   34 B2   42 B1   61 A1   62 A1                 
  4.350   4.401   4.405   4.419   4.647   4.667   4.717   4.756
 16 A2   43 B1   35 B2   36 B2   63 A1   44 B1   17 A2   64 A1                 
  4.848   4.907   4.998   5.101   5.140   5.216   5.275   5.365
 65 A1   37 B2   38 B2   66 A1   45 B1   46 B1   18 A2   67 A1                 
  5.417   5.478   5.534   5.593   5.728   5.775   6.162   6.238
 68 A1   19 A2   47 B1   39 B2   48 B1   69 A1   49 B1   70 A1                 
  6.370   6.717   6.948  12.978  15.421
 50 B1   71 A1   51 B1   72 A1   73 A1                                         

 Occupation and symmetry of molecular orbitals

 Point group: C2v (4 irreducible representations).

                           A1   A2   B1   B2    All 
 ----------------------------------------------------
 All molecular orbitals:
  - Alpha                  73   19   51   39    182 
  - Beta                   73   19   51   39    182 
 ----------------------------------------------------
 Alpha orbitals:
  - Frozen occupied        2    0    0    0     2   
  - Active occupied        4    0    2    1     7   
  - Active virtual         67   19   49   38    173 
  - Frozen virtual         0    0    0    0     0   
 ----------------------------------------------------
 Beta orbitals:
  - Frozen occupied        2    0    0    0     2   
  - Active occupied        4    0    2    1     7   
  - Active virtual         67   19   49   38    173 
  - Frozen virtual         0    0    0    0     0   
 ----------------------------------------------------

 Import integrals:   CPU 0.00 s  wall 0.00 s

 Import integrals:   CPU 83.26 s  wall 7.99 s

 Computing CCSD intermediates for later calculations in double precision
 Finished.

 MP2 amplitudes:   CPU 31.80 s  wall 5.97 s

        Solving for EOMEE-CCSD B2 singlet states.

Running a double precision version
        EOMEE-CCSD/MP2 right amplitudes will be solved using Davidson.
        Amplitudes will be solved using standard  algorithm.
     Hard-coded thresholds: 
     LinDepThresh=1.00e-15  NormThresh=1.00e-06  ReorthogonThresh=1.00e-02

      Roots     MaxVec    MaxIter   Precond   Conv      Shift    
      10        120       60        1         1.00e-05  0.00e+00  
 ------------------------------------------------------------------------------
      Iter ConvRoots NVecs ResNorm Current eigenvalues (eV)
 ------------------------------------------------------------------------------
      0    0      10    4.02e-02   1.8459   1.9841   2.4980   2.6933   3.6736   3.8231   5.3051   5.7405   6.9373   7.0397   
      1    0      20    2.91e-02   0.4108   0.5427   1.1027   1.2635   2.3923   2.4050   3.8274   4.8613   5.6989   5.7398   
      2    0      30    9.35e-04   0.3226   0.4619   0.9597   1.1583   2.1049   2.1101   2.9971   4.1239   4.7523   5.3126   
      3    3      40    9.03e-05   0.3201*  0.4605*  0.9499   1.1543*  2.0626   2.0773   2.9076   4.0504   4.6868   5.2842   
      4    6      47    1.34e-05   0.3201*  0.4605*  0.9494*  1.1540*  2.0598*  2.0756*  2.9035   4.0448   4.6800   5.2787   
      5    10     51    2.43e-06   0.3201*  0.4605*  0.9495*  1.1540*  2.0598*  2.0756*  2.9031*  4.0444*  4.6789*  5.2781*  

     Davidson procedure converged

 EOMEE transition 1/B2
 Total energy = -78.88541185 a.u.  Excitation energy = 0.3201 eV.
 R0^2 = 0.0000  R1^2 = 0.8782  R2^2 = 0.1218  Res^2 = 5.00e-07
 Conv-d = yes

 Amplitude    Transitions between orbitals
 -0.5407       6 (A1) A                  ->    2 (B2) A                   
 -0.5407       6 (A1) B                  ->    2 (B2) B                   
  0.3705       6 (A1) A                  ->    3 (B2) A                   
  0.3705       6 (A1) B                  ->    3 (B2) B                   

              Summary of significant orbitals:

               Number  Type             Irrep      Energy
               9       Occ  Alpha       6 (A1)     -0.0313
               9       Occ  Beta        6 (A1)     -0.0313
               11      Vir  Alpha       2 (B2)      0.0446
               15      Vir  Alpha       3 (B2)      0.0672
               11      Vir  Beta        2 (B2)      0.0446
               15      Vir  Beta        3 (B2)      0.0672


 EOMEE transition 2/B2
 Total energy = -78.88025237 a.u.  Excitation energy = 0.4605 eV.
 R0^2 = 0.0000  R1^2 = 0.8781  R2^2 = 0.1219  Res^2 = 4.62e-07
 Conv-d = yes

 Amplitude    Transitions between orbitals
 -0.5001       6 (A1) A                  ->    3 (B2) A                   
 -0.5001       6 (A1) B                  ->    3 (B2) B                   
 -0.3695       6 (A1) A                  ->    2 (B2) A                   
 -0.3695       6 (A1) B                  ->    2 (B2) B                   
  0.2159       6 (A1) A                  ->    4 (B2) A                   
  0.2159       6 (A1) B                  ->    4 (B2) B                   

              Summary of significant orbitals:

               Number  Type             Irrep      Energy
               9       Occ  Alpha       6 (A1)     -0.0313
               9       Occ  Beta        6 (A1)     -0.0313
               11      Vir  Alpha       2 (B2)      0.0446
               15      Vir  Alpha       3 (B2)      0.0672
               17      Vir  Alpha       4 (B2)      0.0738
               11      Vir  Beta        2 (B2)      0.0446
               15      Vir  Beta        3 (B2)      0.0672
               17      Vir  Beta        4 (B2)      0.0738


 EOMEE transition 3/B2
 Total energy = -78.86228220 a.u.  Excitation energy = 0.9495 eV.
 R0^2 = 0.0000  R1^2 = 0.8779  R2^2 = 0.1221  Res^2 = 2.97e-07
 Conv-d = yes

 Amplitude    Transitions between orbitals
  0.5562       6 (A1) A                  ->    4 (B2) A                   
  0.5562       6 (A1) B                  ->    4 (B2) B                   
 -0.3183       6 (A1) A                  ->    5 (B2) A                   
 -0.3183       6 (A1) B                  ->    5 (B2) B                   
  0.1210       6 (A1) A                  ->    3 (B2) A                   
  0.1210       6 (A1) B                  ->    3 (B2) B                   

              Summary of significant orbitals:

               Number  Type             Irrep      Energy
               9       Occ  Alpha       6 (A1)     -0.0313
               9       Occ  Beta        6 (A1)     -0.0313
               15      Vir  Alpha       3 (B2)      0.0672
               17      Vir  Alpha       4 (B2)      0.0738
               20      Vir  Alpha       5 (B2)      0.0954
               15      Vir  Beta        3 (B2)      0.0672
               17      Vir  Beta        4 (B2)      0.0738
               20      Vir  Beta        5 (B2)      0.0954


 EOMEE transition 4/B2
 Total energy = -78.85476515 a.u.  Excitation energy = 1.1540 eV.
 R0^2 = 0.0000  R1^2 = 0.8777  R2^2 = 0.1223  Res^2 = 8.98e-07
 Conv-d = yes

 Amplitude    Transitions between orbitals
  0.5603       6 (A1) A                  ->    5 (B2) A                   
  0.5603       6 (A1) B                  ->    5 (B2) B                   
  0.2737       6 (A1) A                  ->    4 (B2) A                   
  0.2737       6 (A1) B                  ->    4 (B2) B                   
  0.1885       6 (A1) A                  ->    3 (B2) A                   
  0.1885       6 (A1) B                  ->    3 (B2) B                   
  0.1088       6 (A1) A                  ->    6 (B2) A                   
  0.1088       6 (A1) B                  ->    6 (B2) B                   

              Summary of significant orbitals:

               Number  Type             Irrep      Energy
               9       Occ  Alpha       6 (A1)     -0.0313
               9       Occ  Beta        6 (A1)     -0.0313
               15      Vir  Alpha       3 (B2)      0.0672
               17      Vir  Alpha       4 (B2)      0.0738
               20      Vir  Alpha       5 (B2)      0.0954
               24      Vir  Alpha       6 (B2)      0.1183
               15      Vir  Beta        3 (B2)      0.0672
               17      Vir  Beta        4 (B2)      0.0738
               20      Vir  Beta        5 (B2)      0.0954
               24      Vir  Beta        6 (B2)      0.1183


 EOMEE transition 5/B2
 Total energy = -78.82147878 a.u.  Excitation energy = 2.0598 eV.
 R0^2 = 0.0000  R1^2 = 0.8737  R2^2 = 0.1263  Res^2 = 1.62e-06
 Conv-d = yes

 Amplitude    Transitions between orbitals
  0.5739       6 (A1) A                  ->    7 (B2) A                   
  0.5739       6 (A1) B                  ->    7 (B2) B                   
 -0.2149       6 (A1) A                  ->    6 (B2) A                   
 -0.2149       6 (A1) B                  ->    6 (B2) B                   
 -0.2114       6 (A1) A                  ->    8 (B2) A                   
 -0.2114       6 (A1) B                  ->    8 (B2) B                   

              Summary of significant orbitals:

               Number  Type             Irrep      Energy
               9       Occ  Alpha       6 (A1)     -0.0313
               9       Occ  Beta        6 (A1)     -0.0313
               24      Vir  Alpha       6 (B2)      0.1183
               26      Vir  Alpha       7 (B2)      0.1363
               29      Vir  Alpha       8 (B2)      0.1773
               24      Vir  Beta        6 (B2)      0.1183
               26      Vir  Beta        7 (B2)      0.1363
               29      Vir  Beta        8 (B2)      0.1773


 EOMEE transition 6/B2
 Total energy = -78.82089811 a.u.  Excitation energy = 2.0756 eV.
 R0^2 = 0.0000  R1^2 = 0.8772  R2^2 = 0.1228  Res^2 = 1.12e-06
 Conv-d = yes

 Amplitude    Transitions between orbitals
 -0.5988       6 (A1) A                  ->    6 (B2) A                   
 -0.5988       6 (A1) B                  ->    6 (B2) B                   
 -0.2539       6 (A1) A                  ->    7 (B2) A                   
 -0.2539       6 (A1) B                  ->    7 (B2) B                   

              Summary of significant orbitals:

               Number  Type             Irrep      Energy
               9       Occ  Alpha       6 (A1)     -0.0313
               9       Occ  Beta        6 (A1)     -0.0313
               24      Vir  Alpha       6 (B2)      0.1183
               26      Vir  Alpha       7 (B2)      0.1363
               24      Vir  Beta        6 (B2)      0.1183
               26      Vir  Beta        7 (B2)      0.1363


 EOMEE transition 7/B2
 Total energy = -78.79048546 a.u.  Excitation energy = 2.9031 eV.
 R0^2 = 0.0000  R1^2 = 0.8703  R2^2 = 0.1297  Res^2 = 3.94e-06
 Conv-d = yes

 Amplitude    Transitions between orbitals
 -0.5608       6 (A1) A                  ->    8 (B2) A                   
 -0.5608       6 (A1) B                  ->    8 (B2) B                   
 -0.1938       6 (A1) A                  ->    7 (B2) A                   
 -0.1938       6 (A1) B                  ->    7 (B2) B                   
  0.1767       6 (A1) A                  ->    9 (B2) A                   
  0.1767       6 (A1) B                  ->    9 (B2) B                   
  0.1663       6 (A1) A                  ->    10 (B2) A                  
  0.1663       6 (A1) B                  ->    10 (B2) B                  
  0.1309       6 (A1) A                  ->    6 (B2) A                   
  0.1309       6 (A1) B                  ->    6 (B2) B                   

              Summary of significant orbitals:

               Number  Type             Irrep      Energy
               9       Occ  Alpha       6 (A1)     -0.0313
               9       Occ  Beta        6 (A1)     -0.0313
               24      Vir  Alpha       6 (B2)      0.1183
               26      Vir  Alpha       7 (B2)      0.1363
               29      Vir  Alpha       8 (B2)      0.1773
               34      Vir  Alpha       9 (B2)      0.2008
               39      Vir  Alpha      10 (B2)      0.2373
               24      Vir  Beta        6 (B2)      0.1183
               26      Vir  Beta        7 (B2)      0.1363
               29      Vir  Beta        8 (B2)      0.1773
               34      Vir  Beta        9 (B2)      0.2008
               39      Vir  Beta       10 (B2)      0.2373


 EOMEE transition 8/B2
 Total energy = -78.74854536 a.u.  Excitation energy = 4.0444 eV.
 R0^2 = 0.0000  R1^2 = 0.8764  R2^2 = 0.1236  Res^2 = 1.97e-06
 Conv-d = yes

 Amplitude    Transitions between orbitals
  0.6336       6 (A1) A                  ->    9 (B2) A                   
  0.6336       6 (A1) B                  ->    9 (B2) B                   
  0.1668       6 (A1) A                  ->    8 (B2) A                   
  0.1668       6 (A1) B                  ->    8 (B2) B                   

              Summary of significant orbitals:

               Number  Type             Irrep      Energy
               9       Occ  Alpha       6 (A1)     -0.0313
               9       Occ  Beta        6 (A1)     -0.0313
               29      Vir  Alpha       8 (B2)      0.1773
               34      Vir  Alpha       9 (B2)      0.2008
               29      Vir  Beta        8 (B2)      0.1773
               34      Vir  Beta        9 (B2)      0.2008


 EOMEE transition 9/B2
 Total energy = -78.72522624 a.u.  Excitation energy = 4.6789 eV.
 R0^2 = 0.0000  R1^2 = 0.8716  R2^2 = 0.1284  Res^2 = 8.47e-06
 Conv-d = yes

 Amplitude    Transitions between orbitals
  0.5705       6 (A1) A                  ->    10 (B2) A                  
  0.5705       6 (A1) B                  ->    10 (B2) B                  
  0.2438       6 (A1) A                  ->    11 (B2) A                  
  0.2438       6 (A1) B                  ->    11 (B2) B                  
  0.2069       6 (A1) A                  ->    8 (B2) A                   
  0.2069       6 (A1) B                  ->    8 (B2) B                   

              Summary of significant orbitals:

               Number  Type             Irrep      Energy
               9       Occ  Alpha       6 (A1)     -0.0313
               9       Occ  Beta        6 (A1)     -0.0313
               29      Vir  Alpha       8 (B2)      0.1773
               39      Vir  Alpha      10 (B2)      0.2373
               42      Vir  Alpha      11 (B2)      0.2509
               29      Vir  Beta        8 (B2)      0.1773
               39      Vir  Beta       10 (B2)      0.2373
               42      Vir  Beta       11 (B2)      0.2509


 EOMEE transition 10/B2
 Total energy = -78.70320736 a.u.  Excitation energy = 5.2781 eV.
 R0^2 = 0.0000  R1^2 = 0.8754  R2^2 = 0.1246  Res^2 = 5.05e-06
 Conv-d = yes

 Amplitude    Transitions between orbitals
  0.6087       6 (A1) A                  ->    11 (B2) A                  
  0.6087       6 (A1) B                  ->    11 (B2) B                  
 -0.2484       6 (A1) A                  ->    10 (B2) A                  
 -0.2484       6 (A1) B                  ->    10 (B2) B                  

              Summary of significant orbitals:

               Number  Type             Irrep      Energy
               9       Occ  Alpha       6 (A1)     -0.0313
               9       Occ  Beta        6 (A1)     -0.0313
               39      Vir  Alpha      10 (B2)      0.2373
               42      Vir  Alpha      11 (B2)      0.2509
               39      Vir  Beta       10 (B2)      0.2373
               42      Vir  Beta       11 (B2)      0.2509


Running a double precision version
      EOM-CCSD/MP2 left amplitudes will be solved using Davidson.
        Amplitudes will be solved using MOM  algorithm.
     Hard-coded thresholds: 
     LinDepThresh=1.00e-15  NormThresh=1.00e-06  ReorthogonThresh=1.00e-02

      Roots     MaxVec    MaxIter   Precond   Conv      Shift    
      10        120       60        1         1.00e-05  0.00e+00  
 ------------------------------------------------------------------------------
      Iter ConvRoots NVecs ResNorm Current eigenvalues (eV)
 ------------------------------------------------------------------------------
      0    0      10    5.13e-04   0.3201   0.4605   0.9495   1.1540   2.0598   2.0756   2.9031   4.0444   4.6789   5.2781   
      1    0      20    2.72e-04   0.3200   0.4604   0.9494   1.1539   2.0597   2.0755   2.9031   4.0443   4.6788   5.2782   
      2    5      30    4.15e-05   0.3199*  0.4603*  0.9494*  1.1538*  2.0597   2.0756*  2.9030   4.0444   4.6788   5.2782   
      3    9      35    4.25e-06   0.3199*  0.4603*  0.9494*  1.1538*  2.0597*  2.0756*  2.9030*  4.0444*  4.6788   5.2782*  
      4    10     36    3.25e-06   0.3199*  0.4603*  0.9494*  1.1538*  2.0597*  2.0756*  2.9029*  4.0444*  4.6788*  5.2782*  

     Davidson procedure converged

 Excited state properties for  EOMEE-CCSD transition 1/B2
 Dipole moment (a.u.): 1.099512 (X 0.000000, Y 0.000000, Z -1.099512)
 R-squared (a.u.): 820.366774 (XX 93.398701, YY 223.828859, ZZ 503.139214)
 Gauge origin (a.u.): (0.000000, 0.000000, 0.000000)
 Angular momentum (a.u.) against gauge origin: 
 (X 0.000000i, Y 0.000000i, Z 0.000000i)
 Traces of the OPDMs: Tr(AA) 9.000000, Tr(BB) 9.000000

 Excited state properties for  EOMEE-CCSD transition 2/B2
 Dipole moment (a.u.): 1.320641 (X 0.000000, Y 0.000000, Z -1.320641)
 R-squared (a.u.): 906.291153 (XX 85.546167, YY 200.286797, ZZ 620.458190)
 Gauge origin (a.u.): (0.000000, 0.000000, 0.000000)
 Angular momentum (a.u.) against gauge origin: 
 (X 0.000000i, Y 0.000000i, Z 0.000000i)
 Traces of the OPDMs: Tr(AA) 9.000000, Tr(BB) 9.000000

 Excited state properties for  EOMEE-CCSD transition 3/B2
 Dipole moment (a.u.): 1.087617 (X 0.000000, Y 0.000000, Z -1.087617)
 R-squared (a.u.): 752.042289 (XX 79.947039, YY 183.393905, ZZ 488.701345)
 Gauge origin (a.u.): (0.000000, 0.000000, 0.000000)
 Angular momentum (a.u.) against gauge origin: 
 (X 0.000000i, Y 0.000000i, Z 0.000000i)
 Traces of the OPDMs: Tr(AA) 9.000000, Tr(BB) 9.000000

 Excited state properties for  EOMEE-CCSD transition 4/B2
 Dipole moment (a.u.): 1.324904 (X 0.000000, Y 0.000000, Z -1.324904)
 R-squared (a.u.): 774.575021 (XX 66.661903, YY 143.513234, ZZ 564.399884)
 Gauge origin (a.u.): (0.000000, 0.000000, 0.000000)
 Angular momentum (a.u.) against gauge origin: 
 (X 0.000000i, Y 0.000000i, Z 0.000000i)
 Traces of the OPDMs: Tr(AA) 9.000000, Tr(BB) 9.000000

 Excited state properties for  EOMEE-CCSD transition 5/B2
 Dipole moment (a.u.): 0.259971 (X 0.000000, Y 0.000000, Z 0.259971)
 R-squared (a.u.): 629.837058 (XX 47.571063, YY 84.738757, ZZ 497.527239)
 Gauge origin (a.u.): (0.000000, 0.000000, 0.000000)
 Angular momentum (a.u.) against gauge origin: 
 (X 0.000000i, Y 0.000000i, Z 0.000000i)
 Traces of the OPDMs: Tr(AA) 9.000000, Tr(BB) 9.000000

 Excited state properties for  EOMEE-CCSD transition 6/B2
 Dipole moment (a.u.): 2.670574 (X 0.000000, Y 0.000000, Z -2.670574)
 R-squared (a.u.): 693.586814 (XX 67.358964, YY 145.422657, ZZ 480.805193)
 Gauge origin (a.u.): (0.000000, 0.000000, 0.000000)
 Angular momentum (a.u.) against gauge origin: 
 (X 0.000000i, Y 0.000000i, Z 0.000000i)
 Traces of the OPDMs: Tr(AA) 9.000000, Tr(BB) 9.000000

 Excited state properties for  EOMEE-CCSD transition 7/B2
 Dipole moment (a.u.): 1.227728 (X 0.000000, Y 0.000000, Z -1.227728)
 R-squared (a.u.): 615.182540 (XX 44.997863, YY 75.934447, ZZ 494.250231)
 Gauge origin (a.u.): (0.000000, 0.000000, 0.000000)
 Angular momentum (a.u.) against gauge origin: 
 (X 0.000000i, Y 0.000000i, Z 0.000000i)
 Traces of the OPDMs: Tr(AA) 9.000000, Tr(BB) 9.000000

 Excited state properties for  EOMEE-CCSD transition 8/B2
 Dipole moment (a.u.): 1.187819 (X 0.000000, Y 0.000000, Z -1.187819)
 R-squared (a.u.): 625.430843 (XX 54.989137, YY 108.111130, ZZ 462.330576)
 Gauge origin (a.u.): (0.000000, 0.000000, 0.000000)
 Angular momentum (a.u.) against gauge origin: 
 (X 0.000000i, Y 0.000000i, Z 0.000000i)
 Traces of the OPDMs: Tr(AA) 9.000000, Tr(BB) 9.000000

 Excited state properties for  EOMEE-CCSD transition 9/B2
 Dipole moment (a.u.): 1.217016 (X 0.000000, Y 0.000000, Z -1.217016)
 R-squared (a.u.): 620.652035 (XX 44.607271, YY 76.030317, ZZ 500.014447)
 Gauge origin (a.u.): (0.000000, 0.000000, 0.000000)
 Angular momentum (a.u.) against gauge origin: 
 (X 0.000000i, Y 0.000000i, Z 0.000000i)
 Traces of the OPDMs: Tr(AA) 9.000000, Tr(BB) 9.000000

 Excited state properties for  EOMEE-CCSD transition 10/B2
 Dipole moment (a.u.): 1.248932 (X 0.000000, Y 0.000000, Z -1.248932)
 R-squared (a.u.): 524.556082 (XX 30.829570, YY 35.670994, ZZ 458.055519)
 Gauge origin (a.u.): (0.000000, 0.000000, 0.000000)
 Angular momentum (a.u.) against gauge origin: 
 (X 0.000000i, Y 0.000000i, Z 0.000000i)
 Traces of the OPDMs: Tr(AA) 9.000000, Tr(BB) 9.000000

 EOMEE-MP2 calculation:   CPU 1059.63 s  wall 152.81 s


 Start computing the transition properties

 ------------------------------------------------------------------------------
 State A: eomee_mp2/rhfref/singlets: 1/B2
 State B: eomee_mp2/rhfref/singlets: 2/B2
 Energy GAP = 0.005159 a.u. = 0.140397 eV
 Transition dipole moment (a.u.):
   A->B: 8.372068 (X 0.000000, Y 0.000000, Z -8.372068)
   B->A: 8.371895 (X 0.000000, Y 0.000000, Z -8.371895)
 Oscillator strength (a.u.): 0.241085
 Transition angular momentum against gauge origin (a.u.):
   A->B:  (X 0.000000i, Y 0.000000i, Z 0.000000i)
   B->A:  (X 0.000000i, Y 0.000000i, Z 0.000000i)

 Electronic circular dichroism (ECD):
 Transition dipole moment/angular momentum:
   A->B->A:  (X 0.000000, Y 0.000000, Z 0.000000)
   Rotatory strength, length gauge (a.u.): -0.000000
   Rotatory strength, length gauge (1.0e-40 cgs): -0.000000
 Transition linear momentum/angular momentum:
   A->B->A:  (X 0.000000, Y 0.000000, Z 0.000000)
   Rotatory strength, velocity gauge (a.u.): -0.000000
   Rotatory strength, velocity gauge (1.0e-40 cgs): -0.000000

 Norm of one-particle transition density matrix:
   A->B: 0.707014;   B->A: 0.707025
   ||gamma^AB||*||gamma^BA||: 0.499877

 ------------------------------------------------------------------------------
 State A: eomee_mp2/rhfref/singlets: 1/B2
 State B: eomee_mp2/rhfref/singlets: 3/B2
 Energy GAP = 0.023130 a.u. = 0.629390 eV
 Transition dipole moment (a.u.):
   A->B: 0.022253 (X 0.000000, Y 0.000000, Z -0.022253)
   B->A: 0.021999 (X 0.000000, Y 0.000000, Z -0.021999)
 Oscillator strength (a.u.): 0.000008
 Transition angular momentum against gauge origin (a.u.):
   A->B:  (X 0.000000i, Y 0.000000i, Z 0.000000i)
   B->A:  (X 0.000000i, Y 0.000000i, Z 0.000000i)

 Electronic circular dichroism (ECD):
 Transition dipole moment/angular momentum:
   A->B->A:  (X 0.000000, Y 0.000000, Z 0.000000)
   Rotatory strength, length gauge (a.u.): -0.000000
   Rotatory strength, length gauge (1.0e-40 cgs): -0.000000
 Transition linear momentum/angular momentum:
   A->B->A:  (X 0.000000, Y 0.000000, Z 0.000000)
   Rotatory strength, velocity gauge (a.u.): -0.000000
   Rotatory strength, velocity gauge (1.0e-40 cgs): -0.000000

 Norm of one-particle transition density matrix:
   A->B: 0.706609;   B->A: 0.706548
   ||gamma^AB||*||gamma^BA||: 0.499253

 ------------------------------------------------------------------------------
 State A: eomee_mp2/rhfref/singlets: 1/B2
 State B: eomee_mp2/rhfref/singlets: 4/B2
 Energy GAP = 0.030647 a.u. = 0.833940 eV
 Transition dipole moment (a.u.):
   A->B: 0.007382 (X 0.000000, Y 0.000000, Z -0.007382)
   B->A: 0.007488 (X 0.000000, Y 0.000000, Z -0.007488)
 Oscillator strength (a.u.): 0.000001
 Transition angular momentum against gauge origin (a.u.):
   A->B:  (X 0.000000i, Y 0.000000i, Z 0.000000i)
   B->A:  (X 0.000000i, Y 0.000000i, Z 0.000000i)

 Electronic circular dichroism (ECD):
 Transition dipole moment/angular momentum:
   A->B->A:  (X 0.000000, Y 0.000000, Z 0.000000)
   Rotatory strength, length gauge (a.u.): 0.000000
   Rotatory strength, length gauge (1.0e-40 cgs): 0.000000
 Transition linear momentum/angular momentum:
   A->B->A:  (X 0.000000, Y 0.000000, Z 0.000000)
   Rotatory strength, velocity gauge (a.u.): -0.000000
   Rotatory strength, velocity gauge (1.0e-40 cgs): -0.000000

 Norm of one-particle transition density matrix:
   A->B: 0.706557;   B->A: 0.706506
   ||gamma^AB||*||gamma^BA||: 0.499186

 ------------------------------------------------------------------------------
 State A: eomee_mp2/rhfref/singlets: 1/B2
 State B: eomee_mp2/rhfref/singlets: 5/B2
 Energy GAP = 0.063933 a.u. = 1.739708 eV
 Transition dipole moment (a.u.):
   A->B: 0.357922 (X 0.000000, Y 0.000000, Z -0.357922)
   B->A: 0.359777 (X 0.000000, Y 0.000000, Z -0.359777)
 Oscillator strength (a.u.): 0.005489
 Transition angular momentum against gauge origin (a.u.):
   A->B:  (X 0.000000i, Y 0.000000i, Z 0.000000i)
   B->A:  (X 0.000000i, Y 0.000000i, Z 0.000000i)

 Electronic circular dichroism (ECD):
 Transition dipole moment/angular momentum:
   A->B->A:  (X 0.000000, Y 0.000000, Z 0.000000)
   Rotatory strength, length gauge (a.u.): 0.000000
   Rotatory strength, length gauge (1.0e-40 cgs): 0.000000
 Transition linear momentum/angular momentum:
   A->B->A:  (X 0.000000, Y 0.000000, Z 0.000000)
   Rotatory strength, velocity gauge (a.u.): 0.000000
   Rotatory strength, velocity gauge (1.0e-40 cgs): 0.000000

 Norm of one-particle transition density matrix:
   A->B: 0.701201;   B->A: 0.700293
   ||gamma^AB||*||gamma^BA||: 0.491046

 ------------------------------------------------------------------------------
 State A: eomee_mp2/rhfref/singlets: 1/B2
 State B: eomee_mp2/rhfref/singlets: 6/B2
 Energy GAP = 0.064514 a.u. = 1.755509 eV
 Transition dipole moment (a.u.):
   A->B: 0.060297 (X 0.000000, Y 0.000000, Z -0.060297)
   B->A: 0.060062 (X 0.000000, Y 0.000000, Z -0.060062)
 Oscillator strength (a.u.): 0.000156
 Transition angular momentum against gauge origin (a.u.):
   A->B:  (X 0.000000i, Y 0.000000i, Z 0.000000i)
   B->A:  (X 0.000000i, Y 0.000000i, Z 0.000000i)

 Electronic circular dichroism (ECD):
 Transition dipole moment/angular momentum:
   A->B->A:  (X 0.000000, Y 0.000000, Z 0.000000)
   Rotatory strength, length gauge (a.u.): 0.000000
   Rotatory strength, length gauge (1.0e-40 cgs): 0.000000
 Transition linear momentum/angular momentum:
   A->B->A:  (X 0.000000, Y 0.000000, Z 0.000000)
   Rotatory strength, velocity gauge (a.u.): 0.000000
   Rotatory strength, velocity gauge (1.0e-40 cgs): 0.000000

 Norm of one-particle transition density matrix:
   A->B: 0.705813;   B->A: 0.705616
   ||gamma^AB||*||gamma^BA||: 0.498033

 ------------------------------------------------------------------------------
 State A: eomee_mp2/rhfref/singlets: 1/B2
 State B: eomee_mp2/rhfref/singlets: 7/B2
 Energy GAP = 0.094926 a.u. = 2.583080 eV
 Transition dipole moment (a.u.):
   A->B: 0.097643 (X 0.000000, Y 0.000000, Z 0.097643)
   B->A: 0.098483 (X 0.000000, Y 0.000000, Z 0.098483)
 Oscillator strength (a.u.): 0.000609
 Transition angular momentum against gauge origin (a.u.):
   A->B:  (X 0.000000i, Y 0.000000i, Z 0.000000i)
   B->A:  (X 0.000000i, Y 0.000000i, Z 0.000000i)

 Electronic circular dichroism (ECD):
 Transition dipole moment/angular momentum:
   A->B->A:  (X 0.000000, Y 0.000000, Z 0.000000)
   Rotatory strength, length gauge (a.u.): 0.000000
   Rotatory strength, length gauge (1.0e-40 cgs): 0.000000
 Transition linear momentum/angular momentum:
   A->B->A:  (X 0.000000, Y 0.000000, Z 0.000000)
   Rotatory strength, velocity gauge (a.u.): -0.000000
   Rotatory strength, velocity gauge (1.0e-40 cgs): -0.000000

 Norm of one-particle transition density matrix:
   A->B: 0.697266;   B->A: 0.695528
   ||gamma^AB||*||gamma^BA||: 0.484968

 ------------------------------------------------------------------------------
 State A: eomee_mp2/rhfref/singlets: 1/B2
 State B: eomee_mp2/rhfref/singlets: 8/B2
 Energy GAP = 0.136866 a.u. = 3.724329 eV
 Transition dipole moment (a.u.):
   A->B: 0.003144 (X 0.000000, Y 0.000000, Z -0.003144)
   B->A: 0.002936 (X 0.000000, Y 0.000000, Z -0.002936)
 Oscillator strength (a.u.): 0.000001
 Transition angular momentum against gauge origin (a.u.):
   A->B:  (X 0.000000i, Y 0.000000i, Z 0.000000i)
   B->A:  (X 0.000000i, Y 0.000000i, Z 0.000000i)

 Electronic circular dichroism (ECD):
 Transition dipole moment/angular momentum:
   A->B->A:  (X 0.000000, Y 0.000000, Z 0.000000)
   Rotatory strength, length gauge (a.u.): 0.000000
   Rotatory strength, length gauge (1.0e-40 cgs): 0.000000
 Transition linear momentum/angular momentum:
   A->B->A:  (X 0.000000, Y 0.000000, Z 0.000000)
   Rotatory strength, velocity gauge (a.u.): 0.000000
   Rotatory strength, velocity gauge (1.0e-40 cgs): 0.000000

 Norm of one-particle transition density matrix:
   A->B: 0.704862;   B->A: 0.704495
   ||gamma^AB||*||gamma^BA||: 0.496571

 ------------------------------------------------------------------------------
 State A: eomee_mp2/rhfref/singlets: 1/B2
 State B: eomee_mp2/rhfref/singlets: 9/B2
 Energy GAP = 0.160186 a.u. = 4.358875 eV
 Transition dipole moment (a.u.):
   A->B: 0.202133 (X 0.000000, Y 0.000000, Z -0.202133)
   B->A: 0.202658 (X 0.000000, Y 0.000000, Z -0.202658)
 Oscillator strength (a.u.): 0.004375
 Transition angular momentum against gauge origin (a.u.):
   A->B:  (X 0.000000i, Y 0.000000i, Z 0.000000i)
   B->A:  (X 0.000000i, Y 0.000000i, Z 0.000000i)

 Electronic circular dichroism (ECD):
 Transition dipole moment/angular momentum:
   A->B->A:  (X 0.000000, Y 0.000000, Z 0.000000)
   Rotatory strength, length gauge (a.u.): -0.000000
   Rotatory strength, length gauge (1.0e-40 cgs): -0.000000
 Transition linear momentum/angular momentum:
   A->B->A:  (X 0.000000, Y 0.000000, Z 0.000000)
   Rotatory strength, velocity gauge (a.u.): 0.000000
   Rotatory strength, velocity gauge (1.0e-40 cgs): 0.000000

 Norm of one-particle transition density matrix:
   A->B: 0.700977;   B->A: 0.699796
   ||gamma^AB||*||gamma^BA||: 0.490541

 ------------------------------------------------------------------------------
 State A: eomee_mp2/rhfref/singlets: 1/B2
 State B: eomee_mp2/rhfref/singlets: 10/B2
 Energy GAP = 0.182204 a.u. = 4.958039 eV
 Transition dipole moment (a.u.):
   A->B: 0.003438 (X 0.000000, Y 0.000000, Z -0.003438)
   B->A: 0.003700 (X 0.000000, Y 0.000000, Z -0.003700)
 Oscillator strength (a.u.): 0.000002
 Transition angular momentum against gauge origin (a.u.):
   A->B:  (X 0.000000i, Y 0.000000i, Z 0.000000i)
   B->A:  (X 0.000000i, Y 0.000000i, Z 0.000000i)

 Electronic circular dichroism (ECD):
 Transition dipole moment/angular momentum:
   A->B->A:  (X 0.000000, Y 0.000000, Z 0.000000)
   Rotatory strength, length gauge (a.u.): 0.000000
   Rotatory strength, length gauge (1.0e-40 cgs): 0.000000
 Transition linear momentum/angular momentum:
   A->B->A:  (X 0.000000, Y 0.000000, Z 0.000000)
   Rotatory strength, velocity gauge (a.u.): 0.000000
   Rotatory strength, velocity gauge (1.0e-40 cgs): 0.000000

 Norm of one-particle transition density matrix:
   A->B: 0.704960;   B->A: 0.704537
   ||gamma^AB||*||gamma^BA||: 0.496671

 ------------------------------------------------------------------------------
 State A: eomee_mp2/rhfref/singlets: 2/B2
 State B: eomee_mp2/rhfref/singlets: 3/B2
 Energy GAP = 0.017970 a.u. = 0.488993 eV
 Transition dipole moment (a.u.):
   A->B: 3.637890 (X 0.000000, Y 0.000000, Z 3.637890)
   B->A: 3.638416 (X 0.000000, Y 0.000000, Z 3.638416)
 Oscillator strength (a.u.): 0.158571
 Transition angular momentum against gauge origin (a.u.):
   A->B:  (X 0.000000i, Y 0.000000i, Z 0.000000i)
   B->A:  (X 0.000000i, Y 0.000000i, Z 0.000000i)

 Electronic circular dichroism (ECD):
 Transition dipole moment/angular momentum:
   A->B->A:  (X 0.000000, Y 0.000000, Z 0.000000)
   Rotatory strength, length gauge (a.u.): -0.000000
   Rotatory strength, length gauge (1.0e-40 cgs): -0.000000
 Transition linear momentum/angular momentum:
   A->B->A:  (X 0.000000, Y 0.000000, Z 0.000000)
   Rotatory strength, velocity gauge (a.u.): -0.000000
   Rotatory strength, velocity gauge (1.0e-40 cgs): -0.000000

 Norm of one-particle transition density matrix:
   A->B: 0.706659;   B->A: 0.706586
   ||gamma^AB||*||gamma^BA||: 0.499316

 ------------------------------------------------------------------------------
 State A: eomee_mp2/rhfref/singlets: 2/B2
 State B: eomee_mp2/rhfref/singlets: 4/B2
 Energy GAP = 0.025487 a.u. = 0.693543 eV
 Transition dipole moment (a.u.):
   A->B: 0.029067 (X 0.000000, Y 0.000000, Z 0.029067)
   B->A: 0.029630 (X 0.000000, Y 0.000000, Z 0.029630)
 Oscillator strength (a.u.): 0.000015
 Transition angular momentum against gauge origin (a.u.):
   A->B:  (X 0.000000i, Y 0.000000i, Z 0.000000i)
   B->A:  (X 0.000000i, Y 0.000000i, Z 0.000000i)

 Electronic circular dichroism (ECD):
 Transition dipole moment/angular momentum:
   A->B->A:  (X 0.000000, Y 0.000000, Z 0.000000)
   Rotatory strength, length gauge (a.u.): 0.000000
   Rotatory strength, length gauge (1.0e-40 cgs): 0.000000
 Transition linear momentum/angular momentum:
   A->B->A:  (X 0.000000, Y 0.000000, Z 0.000000)
   Rotatory strength, velocity gauge (a.u.): 0.000000
   Rotatory strength, velocity gauge (1.0e-40 cgs): 0.000000

 Norm of one-particle transition density matrix:
   A->B: 0.706560;   B->A: 0.706495
   ||gamma^AB||*||gamma^BA||: 0.499181

 ------------------------------------------------------------------------------
 State A: eomee_mp2/rhfref/singlets: 2/B2
 State B: eomee_mp2/rhfref/singlets: 5/B2
 Energy GAP = 0.058774 a.u. = 1.599312 eV
 Transition dipole moment (a.u.):
   A->B: 0.169143 (X 0.000000, Y 0.000000, Z -0.169143)
   B->A: 0.171060 (X 0.000000, Y 0.000000, Z -0.171060)
 Oscillator strength (a.u.): 0.001134
 Transition angular momentum against gauge origin (a.u.):
   A->B:  (X 0.000000i, Y 0.000000i, Z 0.000000i)
   B->A:  (X 0.000000i, Y 0.000000i, Z 0.000000i)

 Electronic circular dichroism (ECD):
 Transition dipole moment/angular momentum:
   A->B->A:  (X 0.000000, Y 0.000000, Z 0.000000)
   Rotatory strength, length gauge (a.u.): -0.000000
   Rotatory strength, length gauge (1.0e-40 cgs): -0.000000
 Transition linear momentum/angular momentum:
   A->B->A:  (X 0.000000, Y 0.000000, Z 0.000000)
   Rotatory strength, velocity gauge (a.u.): -0.000000
   Rotatory strength, velocity gauge (1.0e-40 cgs): -0.000000

 Norm of one-particle transition density matrix:
   A->B: 0.701234;   B->A: 0.700312
   ||gamma^AB||*||gamma^BA||: 0.491082

 ------------------------------------------------------------------------------
 State A: eomee_mp2/rhfref/singlets: 2/B2
 State B: eomee_mp2/rhfref/singlets: 6/B2
 Energy GAP = 0.059354 a.u. = 1.615113 eV
 Transition dipole moment (a.u.):
   A->B: 1.031984 (X 0.000000, Y 0.000000, Z 1.031984)
   B->A: 1.032421 (X 0.000000, Y 0.000000, Z 1.032421)
 Oscillator strength (a.u.): 0.042159
 Transition angular momentum against gauge origin (a.u.):
   A->B:  (X 0.000000i, Y 0.000000i, Z 0.000000i)
   B->A:  (X 0.000000i, Y 0.000000i, Z 0.000000i)

 Electronic circular dichroism (ECD):
 Transition dipole moment/angular momentum:
   A->B->A:  (X 0.000000, Y 0.000000, Z 0.000000)
   Rotatory strength, length gauge (a.u.): -0.000000
   Rotatory strength, length gauge (1.0e-40 cgs): -0.000000
 Transition linear momentum/angular momentum:
   A->B->A:  (X 0.000000, Y 0.000000, Z 0.000000)
   Rotatory strength, velocity gauge (a.u.): -0.000000
   Rotatory strength, velocity gauge (1.0e-40 cgs): -0.000000

 Norm of one-particle transition density matrix:
   A->B: 0.705856;   B->A: 0.705647
   ||gamma^AB||*||gamma^BA||: 0.498085

 ------------------------------------------------------------------------------
 State A: eomee_mp2/rhfref/singlets: 2/B2
 State B: eomee_mp2/rhfref/singlets: 7/B2
 Energy GAP = 0.089767 a.u. = 2.442684 eV
 Transition dipole moment (a.u.):
   A->B: 0.001581 (X 0.000000, Y 0.000000, Z 0.001581)
   B->A: 0.001752 (X 0.000000, Y 0.000000, Z 0.001752)
 Oscillator strength (a.u.): 0.000000
 Transition angular momentum against gauge origin (a.u.):
   A->B:  (X 0.000000i, Y 0.000000i, Z 0.000000i)
   B->A:  (X 0.000000i, Y 0.000000i, Z 0.000000i)

 Electronic circular dichroism (ECD):
 Transition dipole moment/angular momentum:
   A->B->A:  (X 0.000000, Y 0.000000, Z 0.000000)
   Rotatory strength, length gauge (a.u.): -0.000000
   Rotatory strength, length gauge (1.0e-40 cgs): -0.000000
 Transition linear momentum/angular momentum:
   A->B->A:  (X 0.000000, Y 0.000000, Z 0.000000)
   Rotatory strength, velocity gauge (a.u.): 0.000000
   Rotatory strength, velocity gauge (1.0e-40 cgs): 0.000000

 Norm of one-particle transition density matrix:
   A->B: 0.697298;   B->A: 0.695550
   ||gamma^AB||*||gamma^BA||: 0.485006

 ------------------------------------------------------------------------------
 State A: eomee_mp2/rhfref/singlets: 2/B2
 State B: eomee_mp2/rhfref/singlets: 8/B2
 Energy GAP = 0.131707 a.u. = 3.583932 eV
 Transition dipole moment (a.u.):
   A->B: 0.621086 (X 0.000000, Y 0.000000, Z 0.621086)
   B->A: 0.621000 (X 0.000000, Y 0.000000, Z 0.621000)
 Oscillator strength (a.u.): 0.033866
 Transition angular momentum against gauge origin (a.u.):
   A->B:  (X 0.000000i, Y 0.000000i, Z 0.000000i)
   B->A:  (X 0.000000i, Y 0.000000i, Z 0.000000i)

 Electronic circular dichroism (ECD):
 Transition dipole moment/angular momentum:
   A->B->A:  (X 0.000000, Y 0.000000, Z 0.000000)
   Rotatory strength, length gauge (a.u.): -0.000000
   Rotatory strength, length gauge (1.0e-40 cgs): -0.000000
 Transition linear momentum/angular momentum:
   A->B->A:  (X 0.000000, Y 0.000000, Z 0.000000)
   Rotatory strength, velocity gauge (a.u.): -0.000000
   Rotatory strength, velocity gauge (1.0e-40 cgs): -0.000000

 Norm of one-particle transition density matrix:
   A->B: 0.704896;   B->A: 0.704516
   ||gamma^AB||*||gamma^BA||: 0.496611

 ------------------------------------------------------------------------------
 State A: eomee_mp2/rhfref/singlets: 2/B2
 State B: eomee_mp2/rhfref/singlets: 9/B2
 Energy GAP = 0.155026 a.u. = 4.218478 eV
 Transition dipole moment (a.u.):
   A->B: 0.003253 (X 0.000000, Y 0.000000, Z 0.003253)
   B->A: 0.003449 (X 0.000000, Y 0.000000, Z 0.003449)
 Oscillator strength (a.u.): 0.000001
 Transition angular momentum against gauge origin (a.u.):
   A->B:  (X 0.000000i, Y 0.000000i, Z 0.000000i)
   B->A:  (X 0.000000i, Y 0.000000i, Z 0.000000i)

 Electronic circular dichroism (ECD):
 Transition dipole moment/angular momentum:
   A->B->A:  (X 0.000000, Y 0.000000, Z 0.000000)
   Rotatory strength, length gauge (a.u.): -0.000000
   Rotatory strength, length gauge (1.0e-40 cgs): -0.000000
 Transition linear momentum/angular momentum:
   A->B->A:  (X 0.000000, Y 0.000000, Z 0.000000)
   Rotatory strength, velocity gauge (a.u.): -0.000000
   Rotatory strength, velocity gauge (1.0e-40 cgs): -0.000000

 Norm of one-particle transition density matrix:
   A->B: 0.701007;   B->A: 0.699816
   ||gamma^AB||*||gamma^BA||: 0.490576

 ------------------------------------------------------------------------------
 State A: eomee_mp2/rhfref/singlets: 2/B2
 State B: eomee_mp2/rhfref/singlets: 10/B2
 Energy GAP = 0.177045 a.u. = 4.817643 eV
 Transition dipole moment (a.u.):
   A->B: 0.398816 (X 0.000000, Y 0.000000, Z 0.398816)
   B->A: 0.398615 (X 0.000000, Y 0.000000, Z 0.398615)
 Oscillator strength (a.u.): 0.018764
 Transition angular momentum against gauge origin (a.u.):
   A->B:  (X 0.000000i, Y 0.000000i, Z 0.000000i)
   B->A:  (X 0.000000i, Y 0.000000i, Z 0.000000i)

 Electronic circular dichroism (ECD):
 Transition dipole moment/angular momentum:
   A->B->A:  (X 0.000000, Y 0.000000, Z 0.000000)
   Rotatory strength, length gauge (a.u.): 0.000000
   Rotatory strength, length gauge (1.0e-40 cgs): 0.000000
 Transition linear momentum/angular momentum:
   A->B->A:  (X 0.000000, Y 0.000000, Z 0.000000)
   Rotatory strength, velocity gauge (a.u.): 0.000000
   Rotatory strength, velocity gauge (1.0e-40 cgs): 0.000000

 Norm of one-particle transition density matrix:
   A->B: 0.705022;   B->A: 0.704589
   ||gamma^AB||*||gamma^BA||: 0.496751

 ------------------------------------------------------------------------------
 State A: eomee_mp2/rhfref/singlets: 3/B2
 State B: eomee_mp2/rhfref/singlets: 4/B2
 Energy GAP = 0.007517 a.u. = 0.204550 eV
 Transition dipole moment (a.u.):
   A->B: 6.430812 (X 0.000000, Y 0.000000, Z -6.430812)
   B->A: 6.431784 (X 0.000000, Y 0.000000, Z -6.431784)
 Oscillator strength (a.u.): 0.207278
 Transition angular momentum against gauge origin (a.u.):
   A->B:  (X 0.000000i, Y 0.000000i, Z 0.000000i)
   B->A:  (X 0.000000i, Y 0.000000i, Z 0.000000i)

 Electronic circular dichroism (ECD):
 Transition dipole moment/angular momentum:
   A->B->A:  (X 0.000000, Y 0.000000, Z 0.000000)
   Rotatory strength, length gauge (a.u.): 0.000000
   Rotatory strength, length gauge (1.0e-40 cgs): 0.000000
 Transition linear momentum/angular momentum:
   A->B->A:  (X 0.000000, Y 0.000000, Z 0.000000)
   Rotatory strength, velocity gauge (a.u.): 0.000000
   Rotatory strength, velocity gauge (1.0e-40 cgs): 0.000000

 Norm of one-particle transition density matrix:
   A->B: 0.706306;   B->A: 0.706322
   ||gamma^AB||*||gamma^BA||: 0.498879

 ------------------------------------------------------------------------------
 State A: eomee_mp2/rhfref/singlets: 3/B2
 State B: eomee_mp2/rhfref/singlets: 5/B2
 Energy GAP = 0.040803 a.u. = 1.110318 eV
 Transition dipole moment (a.u.):
   A->B: 0.521056 (X 0.000000, Y 0.000000, Z -0.521056)
   B->A: 0.524276 (X 0.000000, Y 0.000000, Z -0.524276)
 Oscillator strength (a.u.): 0.007431
 Transition angular momentum against gauge origin (a.u.):
   A->B:  (X 0.000000i, Y 0.000000i, Z 0.000000i)
   B->A:  (X 0.000000i, Y 0.000000i, Z 0.000000i)

 Electronic circular dichroism (ECD):
 Transition dipole moment/angular momentum:
   A->B->A:  (X 0.000000, Y 0.000000, Z 0.000000)
   Rotatory strength, length gauge (a.u.): -0.000000
   Rotatory strength, length gauge (1.0e-40 cgs): -0.000000
 Transition linear momentum/angular momentum:
   A->B->A:  (X 0.000000, Y 0.000000, Z 0.000000)
   Rotatory strength, velocity gauge (a.u.): -0.000000
   Rotatory strength, velocity gauge (1.0e-40 cgs): -0.000000

 Norm of one-particle transition density matrix:
   A->B: 0.701016;   B->A: 0.700193
   ||gamma^AB||*||gamma^BA||: 0.490846

 ------------------------------------------------------------------------------
 State A: eomee_mp2/rhfref/singlets: 3/B2
 State B: eomee_mp2/rhfref/singlets: 6/B2
 Energy GAP = 0.041384 a.u. = 1.126119 eV
 Transition dipole moment (a.u.):
   A->B: 0.053974 (X 0.000000, Y 0.000000, Z -0.053974)
   B->A: 0.053170 (X 0.000000, Y 0.000000, Z -0.053170)
 Oscillator strength (a.u.): 0.000079
 Transition angular momentum against gauge origin (a.u.):
   A->B:  (X 0.000000i, Y 0.000000i, Z 0.000000i)
   B->A:  (X 0.000000i, Y 0.000000i, Z 0.000000i)

 Electronic circular dichroism (ECD):
 Transition dipole moment/angular momentum:
   A->B->A:  (X 0.000000, Y 0.000000, Z 0.000000)
   Rotatory strength, length gauge (a.u.): 0.000000
   Rotatory strength, length gauge (1.0e-40 cgs): 0.000000
 Transition linear momentum/angular momentum:
   A->B->A:  (X 0.000000, Y 0.000000, Z 0.000000)
   Rotatory strength, velocity gauge (a.u.): 0.000000
   Rotatory strength, velocity gauge (1.0e-40 cgs): 0.000000

 Norm of one-particle transition density matrix:
   A->B: 0.705474;   B->A: 0.705339
   ||gamma^AB||*||gamma^BA||: 0.497598

 ------------------------------------------------------------------------------
 State A: eomee_mp2/rhfref/singlets: 3/B2
 State B: eomee_mp2/rhfref/singlets: 7/B2
 Energy GAP = 0.071797 a.u. = 1.953690 eV
 Transition dipole moment (a.u.):
   A->B: 0.777269 (X 0.000000, Y 0.000000, Z -0.777269)
   B->A: 0.784769 (X 0.000000, Y 0.000000, Z -0.784769)
 Oscillator strength (a.u.): 0.029196
 Transition angular momentum against gauge origin (a.u.):
   A->B:  (X 0.000000i, Y 0.000000i, Z 0.000000i)
   B->A:  (X 0.000000i, Y 0.000000i, Z 0.000000i)

 Electronic circular dichroism (ECD):
 Transition dipole moment/angular momentum:
   A->B->A:  (X 0.000000, Y 0.000000, Z 0.000000)
   Rotatory strength, length gauge (a.u.): -0.000000
   Rotatory strength, length gauge (1.0e-40 cgs): -0.000000
 Transition linear momentum/angular momentum:
   A->B->A:  (X 0.000000, Y 0.000000, Z 0.000000)
   Rotatory strength, velocity gauge (a.u.): -0.000000
   Rotatory strength, velocity gauge (1.0e-40 cgs): -0.000000

 Norm of one-particle transition density matrix:
   A->B: 0.697055;   B->A: 0.695370
   ||gamma^AB||*||gamma^BA||: 0.484712

 ------------------------------------------------------------------------------
 State A: eomee_mp2/rhfref/singlets: 3/B2
 State B: eomee_mp2/rhfref/singlets: 8/B2
 Energy GAP = 0.113737 a.u. = 3.094939 eV
 Transition dipole moment (a.u.):
   A->B: 0.004050 (X 0.000000, Y 0.000000, Z 0.004050)
   B->A: 0.004642 (X 0.000000, Y 0.000000, Z 0.004642)
 Oscillator strength (a.u.): 0.000001
 Transition angular momentum against gauge origin (a.u.):
   A->B:  (X 0.000000i, Y 0.000000i, Z 0.000000i)
   B->A:  (X 0.000000i, Y 0.000000i, Z 0.000000i)

 Electronic circular dichroism (ECD):
 Transition dipole moment/angular momentum:
   A->B->A:  (X 0.000000, Y 0.000000, Z 0.000000)
   Rotatory strength, length gauge (a.u.): -0.000000
   Rotatory strength, length gauge (1.0e-40 cgs): -0.000000
 Transition linear momentum/angular momentum:
   A->B->A:  (X 0.000000, Y 0.000000, Z 0.000000)
   Rotatory strength, velocity gauge (a.u.): -0.000000
   Rotatory strength, velocity gauge (1.0e-40 cgs): -0.000000

 Norm of one-particle transition density matrix:
   A->B: 0.704547;   B->A: 0.704250
   ||gamma^AB||*||gamma^BA||: 0.496177

 ------------------------------------------------------------------------------
 State A: eomee_mp2/rhfref/singlets: 3/B2
 State B: eomee_mp2/rhfref/singlets: 9/B2
 Energy GAP = 0.137056 a.u. = 3.729485 eV
 Transition dipole moment (a.u.):
   A->B: 0.355179 (X 0.000000, Y 0.000000, Z 0.355179)
   B->A: 0.355931 (X 0.000000, Y 0.000000, Z 0.355931)
 Oscillator strength (a.u.): 0.011551
 Transition angular momentum against gauge origin (a.u.):
   A->B:  (X 0.000000i, Y 0.000000i, Z 0.000000i)
   B->A:  (X 0.000000i, Y 0.000000i, Z 0.000000i)

 Electronic circular dichroism (ECD):
 Transition dipole moment/angular momentum:
   A->B->A:  (X 0.000000, Y 0.000000, Z 0.000000)
   Rotatory strength, length gauge (a.u.): 0.000000
   Rotatory strength, length gauge (1.0e-40 cgs): 0.000000
 Transition linear momentum/angular momentum:
   A->B->A:  (X 0.000000, Y 0.000000, Z 0.000000)
   Rotatory strength, velocity gauge (a.u.): -0.000000
   Rotatory strength, velocity gauge (1.0e-40 cgs): -0.000000

 Norm of one-particle transition density matrix:
   A->B: 0.700721;   B->A: 0.699602
   ||gamma^AB||*||gamma^BA||: 0.490226

 ------------------------------------------------------------------------------
 State A: eomee_mp2/rhfref/singlets: 3/B2
 State B: eomee_mp2/rhfref/singlets: 10/B2
 Energy GAP = 0.159075 a.u. = 4.328649 eV
 Transition dipole moment (a.u.):
   A->B: 0.017653 (X 0.000000, Y 0.000000, Z -0.017653)
   B->A: 0.017832 (X 0.000000, Y 0.000000, Z -0.017832)
 Oscillator strength (a.u.): 0.000033
 Transition angular momentum against gauge origin (a.u.):
   A->B:  (X 0.000000i, Y 0.000000i, Z 0.000000i)
   B->A:  (X 0.000000i, Y 0.000000i, Z 0.000000i)

 Electronic circular dichroism (ECD):
 Transition dipole moment/angular momentum:
   A->B->A:  (X 0.000000, Y 0.000000, Z 0.000000)
   Rotatory strength, length gauge (a.u.): -0.000000
   Rotatory strength, length gauge (1.0e-40 cgs): -0.000000
 Transition linear momentum/angular momentum:
   A->B->A:  (X 0.000000, Y 0.000000, Z 0.000000)
   Rotatory strength, velocity gauge (a.u.): -0.000000
   Rotatory strength, velocity gauge (1.0e-40 cgs): -0.000000

 Norm of one-particle transition density matrix:
   A->B: 0.704604;   B->A: 0.704248
   ||gamma^AB||*||gamma^BA||: 0.496215

 ------------------------------------------------------------------------------
 State A: eomee_mp2/rhfref/singlets: 4/B2
 State B: eomee_mp2/rhfref/singlets: 5/B2
 Energy GAP = 0.033286 a.u. = 0.905769 eV
 Transition dipole moment (a.u.):
   A->B: 0.542013 (X 0.000000, Y 0.000000, Z 0.542013)
   B->A: 0.547676 (X 0.000000, Y 0.000000, Z 0.547676)
 Oscillator strength (a.u.): 0.006587
 Transition angular momentum against gauge origin (a.u.):
   A->B:  (X 0.000000i, Y 0.000000i, Z 0.000000i)
   B->A:  (X 0.000000i, Y 0.000000i, Z 0.000000i)

 Electronic circular dichroism (ECD):
 Transition dipole moment/angular momentum:
   A->B->A:  (X 0.000000, Y 0.000000, Z 0.000000)
   Rotatory strength, length gauge (a.u.): -0.000000
   Rotatory strength, length gauge (1.0e-40 cgs): -0.000000
 Transition linear momentum/angular momentum:
   A->B->A:  (X 0.000000, Y 0.000000, Z 0.000000)
   Rotatory strength, velocity gauge (a.u.): -0.000000
   Rotatory strength, velocity gauge (1.0e-40 cgs): -0.000000

 Norm of one-particle transition density matrix:
   A->B: 0.701091;   B->A: 0.700245
   ||gamma^AB||*||gamma^BA||: 0.490936

 ------------------------------------------------------------------------------
 State A: eomee_mp2/rhfref/singlets: 4/B2
 State B: eomee_mp2/rhfref/singlets: 6/B2
 Energy GAP = 0.033867 a.u. = 0.921570 eV
 Transition dipole moment (a.u.):
   A->B: 3.408281 (X 0.000000, Y 0.000000, Z -3.408281)
   B->A: 3.408696 (X 0.000000, Y 0.000000, Z -3.408696)
 Oscillator strength (a.u.): 0.262307
 Transition angular momentum against gauge origin (a.u.):
   A->B:  (X 0.000000i, Y 0.000000i, Z 0.000000i)
   B->A:  (X 0.000000i, Y 0.000000i, Z 0.000000i)

 Electronic circular dichroism (ECD):
 Transition dipole moment/angular momentum:
   A->B->A:  (X 0.000000, Y 0.000000, Z 0.000000)
   Rotatory strength, length gauge (a.u.): -0.000000
   Rotatory strength, length gauge (1.0e-40 cgs): -0.000000
 Transition linear momentum/angular momentum:
   A->B->A:  (X 0.000000, Y 0.000000, Z 0.000000)
   Rotatory strength, velocity gauge (a.u.): -0.000000
   Rotatory strength, velocity gauge (1.0e-40 cgs): -0.000000

 Norm of one-particle transition density matrix:
   A->B: 0.705406;   B->A: 0.705259
   ||gamma^AB||*||gamma^BA||: 0.497494

 ------------------------------------------------------------------------------
 State A: eomee_mp2/rhfref/singlets: 4/B2
 State B: eomee_mp2/rhfref/singlets: 7/B2
 Energy GAP = 0.064280 a.u. = 1.749140 eV
 Transition dipole moment (a.u.):
   A->B: 0.002625 (X 0.000000, Y 0.000000, Z -0.002625)
   B->A: 0.002810 (X 0.000000, Y 0.000000, Z -0.002810)
 Oscillator strength (a.u.): 0.000000
 Transition angular momentum against gauge origin (a.u.):
   A->B:  (X 0.000000i, Y 0.000000i, Z 0.000000i)
   B->A:  (X 0.000000i, Y 0.000000i, Z 0.000000i)

 Electronic circular dichroism (ECD):
 Transition dipole moment/angular momentum:
   A->B->A:  (X 0.000000, Y 0.000000, Z 0.000000)
   Rotatory strength, length gauge (a.u.): 0.000000
   Rotatory strength, length gauge (1.0e-40 cgs): 0.000000
 Transition linear momentum/angular momentum:
   A->B->A:  (X 0.000000, Y 0.000000, Z 0.000000)
   Rotatory strength, velocity gauge (a.u.): -0.000000
   Rotatory strength, velocity gauge (1.0e-40 cgs): -0.000000

 Norm of one-particle transition density matrix:
   A->B: 0.697278;   B->A: 0.695622
   ||gamma^AB||*||gamma^BA||: 0.485042

 ------------------------------------------------------------------------------
 State A: eomee_mp2/rhfref/singlets: 4/B2
 State B: eomee_mp2/rhfref/singlets: 8/B2
 Energy GAP = 0.106220 a.u. = 2.890389 eV
 Transition dipole moment (a.u.):
   A->B: 1.062923 (X 0.000000, Y 0.000000, Z -1.062923)
   B->A: 1.063861 (X 0.000000, Y 0.000000, Z -1.063861)
 Oscillator strength (a.u.): 0.080076
 Transition angular momentum against gauge origin (a.u.):
   A->B:  (X 0.000000i, Y 0.000000i, Z 0.000000i)
   B->A:  (X 0.000000i, Y 0.000000i, Z 0.000000i)

 Electronic circular dichroism (ECD):
 Transition dipole moment/angular momentum:
   A->B->A:  (X 0.000000, Y 0.000000, Z 0.000000)
   Rotatory strength, length gauge (a.u.): -0.000000
   Rotatory strength, length gauge (1.0e-40 cgs): -0.000000
 Transition linear momentum/angular momentum:
   A->B->A:  (X 0.000000, Y 0.000000, Z 0.000000)
   Rotatory strength, velocity gauge (a.u.): -0.000000
   Rotatory strength, velocity gauge (1.0e-40 cgs): -0.000000

 Norm of one-particle transition density matrix:
   A->B: 0.704418;   B->A: 0.704105
   ||gamma^AB||*||gamma^BA||: 0.495984

 ------------------------------------------------------------------------------
 State A: eomee_mp2/rhfref/singlets: 4/B2
 State B: eomee_mp2/rhfref/singlets: 9/B2
 Energy GAP = 0.129539 a.u. = 3.524935 eV
 Transition dipole moment (a.u.):
   A->B: 0.015745 (X 0.000000, Y 0.000000, Z 0.015745)
   B->A: 0.015990 (X 0.000000, Y 0.000000, Z 0.015990)
 Oscillator strength (a.u.): 0.000022
 Transition angular momentum against gauge origin (a.u.):
   A->B:  (X 0.000000i, Y 0.000000i, Z 0.000000i)
   B->A:  (X 0.000000i, Y 0.000000i, Z 0.000000i)

 Electronic circular dichroism (ECD):
 Transition dipole moment/angular momentum:
   A->B->A:  (X 0.000000, Y 0.000000, Z 0.000000)
   Rotatory strength, length gauge (a.u.): -0.000000
   Rotatory strength, length gauge (1.0e-40 cgs): -0.000000
 Transition linear momentum/angular momentum:
   A->B->A:  (X 0.000000, Y 0.000000, Z 0.000000)
   Rotatory strength, velocity gauge (a.u.): 0.000000
   Rotatory strength, velocity gauge (1.0e-40 cgs): 0.000000

 Norm of one-particle transition density matrix:
   A->B: 0.700667;   B->A: 0.699555
   ||gamma^AB||*||gamma^BA||: 0.490155

 ------------------------------------------------------------------------------
 State A: eomee_mp2/rhfref/singlets: 4/B2
 State B: eomee_mp2/rhfref/singlets: 10/B2
 Energy GAP = 0.151558 a.u. = 4.124100 eV
 Transition dipole moment (a.u.):
   A->B: 1.649789 (X 0.000000, Y 0.000000, Z 1.649789)
   B->A: 1.648649 (X 0.000000, Y 0.000000, Z 1.648649)
 Oscillator strength (a.u.): 0.274817
 Transition angular momentum against gauge origin (a.u.):
   A->B:  (X 0.000000i, Y 0.000000i, Z 0.000000i)
   B->A:  (X 0.000000i, Y 0.000000i, Z 0.000000i)

 Electronic circular dichroism (ECD):
 Transition dipole moment/angular momentum:
   A->B->A:  (X 0.000000, Y 0.000000, Z 0.000000)
   Rotatory strength, length gauge (a.u.): -0.000000
   Rotatory strength, length gauge (1.0e-40 cgs): -0.000000
 Transition linear momentum/angular momentum:
   A->B->A:  (X 0.000000, Y 0.000000, Z 0.000000)
   Rotatory strength, velocity gauge (a.u.): -0.000000
   Rotatory strength, velocity gauge (1.0e-40 cgs): -0.000000

 Norm of one-particle transition density matrix:
   A->B: 0.704888;   B->A: 0.704560
   ||gamma^AB||*||gamma^BA||: 0.496636

 ------------------------------------------------------------------------------
 State A: eomee_mp2/rhfref/singlets: 5/B2
 State B: eomee_mp2/rhfref/singlets: 6/B2
 Energy GAP = 0.000581 a.u. = 0.015801 eV
 Transition dipole moment (a.u.):
   A->B: 4.476056 (X 0.000000, Y 0.000000, Z -4.476056)
   B->A: 4.458284 (X 0.000000, Y 0.000000, Z -4.458284)
 Oscillator strength (a.u.): 0.007725
 Transition angular momentum against gauge origin (a.u.):
   A->B:  (X 0.000000i, Y 0.000000i, Z 0.000000i)
   B->A:  (X 0.000000i, Y 0.000000i, Z 0.000000i)

 Electronic circular dichroism (ECD):
 Transition dipole moment/angular momentum:
   A->B->A:  (X 0.000000, Y 0.000000, Z 0.000000)
   Rotatory strength, length gauge (a.u.): 0.000000
   Rotatory strength, length gauge (1.0e-40 cgs): 0.000000
 Transition linear momentum/angular momentum:
   A->B->A:  (X 0.000000, Y 0.000000, Z 0.000000)
   Rotatory strength, velocity gauge (a.u.): -0.000000
   Rotatory strength, velocity gauge (1.0e-40 cgs): -0.000000

 Norm of one-particle transition density matrix:
   A->B: 0.699921;   B->A: 0.700562
   ||gamma^AB||*||gamma^BA||: 0.490338

 ------------------------------------------------------------------------------
 State A: eomee_mp2/rhfref/singlets: 5/B2
 State B: eomee_mp2/rhfref/singlets: 7/B2
 Energy GAP = 0.030993 a.u. = 0.843372 eV
 Transition dipole moment (a.u.):
   A->B: 0.423750 (X 0.000000, Y 0.000000, Z -0.423750)
   B->A: 0.423587 (X 0.000000, Y 0.000000, Z -0.423587)
 Oscillator strength (a.u.): 0.003709
 Transition angular momentum against gauge origin (a.u.):
   A->B:  (X 0.000000i, Y 0.000000i, Z 0.000000i)
   B->A:  (X 0.000000i, Y 0.000000i, Z 0.000000i)

 Electronic circular dichroism (ECD):
 Transition dipole moment/angular momentum:
   A->B->A:  (X 0.000000, Y 0.000000, Z 0.000000)
   Rotatory strength, length gauge (a.u.): -0.000000
   Rotatory strength, length gauge (1.0e-40 cgs): -0.000000
 Transition linear momentum/angular momentum:
   A->B->A:  (X 0.000000, Y 0.000000, Z 0.000000)
   Rotatory strength, velocity gauge (a.u.): -0.000000
   Rotatory strength, velocity gauge (1.0e-40 cgs): -0.000000

 Norm of one-particle transition density matrix:
   A->B: 0.699588;   B->A: 0.698932
   ||gamma^AB||*||gamma^BA||: 0.488964

 ------------------------------------------------------------------------------
 State A: eomee_mp2/rhfref/singlets: 5/B2
 State B: eomee_mp2/rhfref/singlets: 8/B2
 Energy GAP = 0.072933 a.u. = 1.984621 eV
 Transition dipole moment (a.u.):
   A->B: 1.980420 (X 0.000000, Y 0.000000, Z -1.980420)
   B->A: 1.968195 (X 0.000000, Y 0.000000, Z -1.968195)
 Oscillator strength (a.u.): 0.189522
 Transition angular momentum against gauge origin (a.u.):
   A->B:  (X 0.000000i, Y 0.000000i, Z 0.000000i)
   B->A:  (X 0.000000i, Y 0.000000i, Z 0.000000i)

 Electronic circular dichroism (ECD):
 Transition dipole moment/angular momentum:
   A->B->A:  (X 0.000000, Y 0.000000, Z 0.000000)
   Rotatory strength, length gauge (a.u.): 0.000000
   Rotatory strength, length gauge (1.0e-40 cgs): 0.000000
 Transition linear momentum/angular momentum:
   A->B->A:  (X 0.000000, Y 0.000000, Z 0.000000)
   Rotatory strength, velocity gauge (a.u.): 0.000000
   Rotatory strength, velocity gauge (1.0e-40 cgs): 0.000000

[...]
   Rotatory strength, length gauge (1.0e-40 cgs): 0.000000
 Transition linear momentum/angular momentum:
   A->B->A:  (X 0.000000, Y 0.000000, Z 0.000000)
   Rotatory strength, velocity gauge (a.u.): -0.000000
   Rotatory strength, velocity gauge (1.0e-40 cgs): -0.000000

 Norm of one-particle transition density matrix:
   A->B: 0.698968;   B->A: 0.699790
   ||gamma^AB||*||gamma^BA||: 0.489131


 All requested transition properties have been computed

 Transition Properties:   CPU 238.02 s  wall 42.91 s

Starting Projected CAP calculation.
Generating CAP matrix for 10 roots.
Performing Projected CAP-EOM calculation for B2 states.
Number of states: 10
Zeroth order Hamiltonian:
-7.88854118524369596e+01 0.00000000000000000e+00 0.00000000000000000e+00 0.00000000000000000e+00 0.00000000000000000e+00 0.00000000000000000e+00 0.00000000000000000e+00 0.00000000000000000e+00 0.00000000000000000e+00 0.00000000000000000e+00
0.00000000000000000e+00 -7.88802523737914925e+01 0.00000000000000000e+00 0.00000000000000000e+00 0.00000000000000000e+00 0.00000000000000000e+00 0.00000000000000000e+00 0.00000000000000000e+00 0.00000000000000000e+00 0.00000000000000000e+00
0.00000000000000000e+00 0.00000000000000000e+00 -7.88622822043601843e+01 0.00000000000000000e+00 0.00000000000000000e+00 0.00000000000000000e+00 0.00000000000000000e+00 0.00000000000000000e+00 0.00000000000000000e+00 0.00000000000000000e+00
0.00000000000000000e+00 0.00000000000000000e+00 0.00000000000000000e+00 -7.88547651502836686e+01 0.00000000000000000e+00 0.00000000000000000e+00 0.00000000000000000e+00 0.00000000000000000e+00 0.00000000000000000e+00 0.00000000000000000e+00
0.00000000000000000e+00 0.00000000000000000e+00 0.00000000000000000e+00 0.00000000000000000e+00 -7.88214787847015259e+01 0.00000000000000000e+00 0.00000000000000000e+00 0.00000000000000000e+00 0.00000000000000000e+00 0.00000000000000000e+00
0.00000000000000000e+00 0.00000000000000000e+00 0.00000000000000000e+00 0.00000000000000000e+00 0.00000000000000000e+00 -7.88208981065148180e+01 0.00000000000000000e+00 0.00000000000000000e+00 0.00000000000000000e+00 0.00000000000000000e+00
0.00000000000000000e+00 0.00000000000000000e+00 0.00000000000000000e+00 0.00000000000000000e+00 0.00000000000000000e+00 0.00000000000000000e+00 -7.87904854560687227e+01 0.00000000000000000e+00 0.00000000000000000e+00 0.00000000000000000e+00
0.00000000000000000e+00 0.00000000000000000e+00 0.00000000000000000e+00 0.00000000000000000e+00 0.00000000000000000e+00 0.00000000000000000e+00 0.00000000000000000e+00 -7.87485453633022416e+01 0.00000000000000000e+00 0.00000000000000000e+00
0.00000000000000000e+00 0.00000000000000000e+00 0.00000000000000000e+00 0.00000000000000000e+00 0.00000000000000000e+00 0.00000000000000000e+00 0.00000000000000000e+00 0.00000000000000000e+00 -7.87252262386010102e+01 0.00000000000000000e+00
0.00000000000000000e+00 0.00000000000000000e+00 0.00000000000000000e+00 0.00000000000000000e+00 0.00000000000000000e+00 0.00000000000000000e+00 0.00000000000000000e+00 0.00000000000000000e+00 0.00000000000000000e+00 -7.87032073580172806e+01
CAP matrix:
-6.70692431294930316e+01 2.50142021320887142e+00 -1.03755036314388853e+01 -4.31749132191681095e+00 2.89807314922848924e+00 -3.46541298472870025e+01 1.80207481896541011e+00 -1.42334195164095352e+01 -5.67616982167812201e-01 -1.26175453210138511e-01
2.50193545251248484e+00 -5.37007880254254957e+01 -4.39715388598198320e+00 -2.11973587818058036e+01 -2.26147198240913063e+01 -8.03370936467405272e+00 1.54492799396990783e+01 -2.45486020683864581e+00 -3.32601590346707710e+00 3.98454399518501645e-02
-1.03767722691969801e+01 -4.40110485986660915e+00 -3.98730384537010849e+01 2.62632705204033279e+00 3.91226709523492833e+00 -1.63659081160019362e+01 -7.30037337958275412e-01 1.00367088831915368e+01 4.07208820185378295e-01 -2.43755711060665778e-02
-4.32022361706253832e+00 -2.12030363412101934e+01 2.62801145201555819e+00 -4.76594277855945947e+01 -2.05583887503275378e+01 -2.65362882771652320e+00 2.73840857704360907e+00 4.97263117562819490e-01 1.09199761931455868e+01 -1.12918809342854305e-03
2.94160055850336466e+00 -2.27224331699050666e+01 3.94964950080527277e+00 -2.06616904725577299e+01 -3.32086130742556520e+01 3.08471823027939784e+00 2.56752725870207605e+01 3.77279254535460451e+00 -5.34092172607404514e+00 -5.48587266887762270e-01
-3.46700062324475127e+01 -8.01972723219005701e+00 -1.63771111380437659e+01 -2.63392372368236538e+00 3.05371094528557308e+00 -5.39447761661984373e+01 4.48895081590492673e+00 -2.56546809386008903e+01 -8.64920673037883669e-01 3.77130502740240248e+00
1.81664511619343205e+00 1.55813187094513825e+01 -7.31122313438311355e-01 2.75444336748836793e+00 2.57699229143051767e+01 4.54671221252340185e+00 -3.13216487585182222e+01 3.59688816109245968e-01 1.90648336494902289e+01 -1.12057271611975984e-01
-1.42367298563230307e+01 -2.45463228628820662e+00 1.00407734097681232e+01 4.98897772348231738e-01 3.73779520192975312e+00 -2.56629479129662279e+01 3.66843335148536398e-01 -4.04571015406338859e+01 -2.19289904107765665e-01 -7.45004278612956594e-01
-5.71821723899610834e-01 -3.34036532259909036e+00 4.05760431167770663e-01 1.09445758870204948e+01 -5.34796441446852633e+00 -8.66643512560157703e-01 1.89478757871450938e+01 -2.16089948449609853e-01 -3.08952916544894656e+01 1.13440598850056612e-01
-1.22677722034588002e-01 4.85325427949049384e-02 -2.69835451316643403e-02 3.77483302728854209e-03 -5.34236572831917167e-01 3.77551936418455147e+00 -1.24163650036356266e-01 -7.43815673864040794e-01 1.31883033985763565e-01 -8.10145946044211129e+00
Trajectory will be saved to B2_traj.out
Done with B2 states.
 Trajectory ran in:   CPU 0.01 s  wall 0.01 s
Total Projected CAP Hamiltonian:
Number of states: 10
Zeroth order Hamiltonian:
-7.88854118524369596e+01 0.00000000000000000e+00 0.00000000000000000e+00 0.00000000000000000e+00 0.00000000000000000e+00 0.00000000000000000e+00 0.00000000000000000e+00 0.00000000000000000e+00 0.00000000000000000e+00 0.00000000000000000e+00
0.00000000000000000e+00 -7.88802523737914925e+01 0.00000000000000000e+00 0.00000000000000000e+00 0.00000000000000000e+00 0.00000000000000000e+00 0.00000000000000000e+00 0.00000000000000000e+00 0.00000000000000000e+00 0.00000000000000000e+00
0.00000000000000000e+00 0.00000000000000000e+00 -7.88622822043601843e+01 0.00000000000000000e+00 0.00000000000000000e+00 0.00000000000000000e+00 0.00000000000000000e+00 0.00000000000000000e+00 0.00000000000000000e+00 0.00000000000000000e+00
0.00000000000000000e+00 0.00000000000000000e+00 0.00000000000000000e+00 -7.88547651502836686e+01 0.00000000000000000e+00 0.00000000000000000e+00 0.00000000000000000e+00 0.00000000000000000e+00 0.00000000000000000e+00 0.00000000000000000e+00
0.00000000000000000e+00 0.00000000000000000e+00 0.00000000000000000e+00 0.00000000000000000e+00 -7.88214787847015259e+01 0.00000000000000000e+00 0.00000000000000000e+00 0.00000000000000000e+00 0.00000000000000000e+00 0.00000000000000000e+00
0.00000000000000000e+00 0.00000000000000000e+00 0.00000000000000000e+00 0.00000000000000000e+00 0.00000000000000000e+00 -7.88208981065148180e+01 0.00000000000000000e+00 0.00000000000000000e+00 0.00000000000000000e+00 0.00000000000000000e+00
0.00000000000000000e+00 0.00000000000000000e+00 0.00000000000000000e+00 0.00000000000000000e+00 0.00000000000000000e+00 0.00000000000000000e+00 -7.87904854560687227e+01 0.00000000000000000e+00 0.00000000000000000e+00 0.00000000000000000e+00
0.00000000000000000e+00 0.00000000000000000e+00 0.00000000000000000e+00 0.00000000000000000e+00 0.00000000000000000e+00 0.00000000000000000e+00 0.00000000000000000e+00 -7.87485453633022416e+01 0.00000000000000000e+00 0.00000000000000000e+00
0.00000000000000000e+00 0.00000000000000000e+00 0.00000000000000000e+00 0.00000000000000000e+00 0.00000000000000000e+00 0.00000000000000000e+00 0.00000000000000000e+00 0.00000000000000000e+00 -7.87252262386010102e+01 0.00000000000000000e+00
0.00000000000000000e+00 0.00000000000000000e+00 0.00000000000000000e+00 0.00000000000000000e+00 0.00000000000000000e+00 0.00000000000000000e+00 0.00000000000000000e+00 0.00000000000000000e+00 0.00000000000000000e+00 -7.87032073580172806e+01
CAP matrix:
-6.70692431294930316e+01 2.50142021320887142e+00 -1.03755036314388853e+01 -4.31749132191681095e+00 2.89807314922848924e+00 -3.46541298472870025e+01 1.80207481896541011e+00 -1.42334195164095352e+01 -5.67616982167812201e-01 -1.26175453210138511e-01
2.50193545251248484e+00 -5.37007880254254957e+01 -4.39715388598198320e+00 -2.11973587818058036e+01 -2.26147198240913063e+01 -8.03370936467405272e+00 1.54492799396990783e+01 -2.45486020683864581e+00 -3.32601590346707710e+00 3.98454399518501645e-02
-1.03767722691969801e+01 -4.40110485986660915e+00 -3.98730384537010849e+01 2.62632705204033279e+00 3.91226709523492833e+00 -1.63659081160019362e+01 -7.30037337958275412e-01 1.00367088831915368e+01 4.07208820185378295e-01 -2.43755711060665778e-02
-4.32022361706253832e+00 -2.12030363412101934e+01 2.62801145201555819e+00 -4.76594277855945947e+01 -2.05583887503275378e+01 -2.65362882771652320e+00 2.73840857704360907e+00 4.97263117562819490e-01 1.09199761931455868e+01 -1.12918809342854305e-03
2.94160055850336466e+00 -2.27224331699050666e+01 3.94964950080527277e+00 -2.06616904725577299e+01 -3.32086130742556520e+01 3.08471823027939784e+00 2.56752725870207605e+01 3.77279254535460451e+00 -5.34092172607404514e+00 -5.48587266887762270e-01
-3.46700062324475127e+01 -8.01972723219005701e+00 -1.63771111380437659e+01 -2.63392372368236538e+00 3.05371094528557308e+00 -5.39447761661984373e+01 4.48895081590492673e+00 -2.56546809386008903e+01 -8.64920673037883669e-01 3.77130502740240248e+00
1.81664511619343205e+00 1.55813187094513825e+01 -7.31122313438311355e-01 2.75444336748836793e+00 2.57699229143051767e+01 4.54671221252340185e+00 -3.13216487585182222e+01 3.59688816109245968e-01 1.90648336494902289e+01 -1.12057271611975984e-01
-1.42367298563230307e+01 -2.45463228628820662e+00 1.00407734097681232e+01 4.98897772348231738e-01 3.73779520192975312e+00 -2.56629479129662279e+01 3.66843335148536398e-01 -4.04571015406338859e+01 -2.19289904107765665e-01 -7.45004278612956594e-01
-5.71821723899610834e-01 -3.34036532259909036e+00 4.05760431167770663e-01 1.09445758870204948e+01 -5.34796441446852633e+00 -8.66643512560157703e-01 1.89478757871450938e+01 -2.16089948449609853e-01 -3.08952916544894656e+01 1.13440598850056612e-01
-1.22677722034588002e-01 4.85325427949049384e-02 -2.69835451316643403e-02 3.77483302728854209e-03 -5.34236572831917167e-01 3.77551936418455147e+00 -1.24163650036356266e-01 -7.43815673864040794e-01 1.31883033985763565e-01 -8.10145946044211129e+00
 Total ccman2 time:   CPU 1450.68 s  wall 214.04 s

 
 --------------------------------------------------------------
             Orbital Energies (a.u.) and Symmetries
 --------------------------------------------------------------
 
 Alpha MOs, Restricted
 -- Occupied --                  
-11.177 -11.175  -0.989  -0.730  -0.610  -0.517  -0.465  -0.327
  1 A1    2 A1    3 A1    4 A1    1 B1    5 A1    2 B1    1 B2                 
 -0.031
  6 A1                                                                         
 -- Virtual --                   
  0.044   0.045   0.049   0.064   0.067   0.067   0.072   0.074
  3 B1    2 B2    7 A1    8 A1    4 B1    3 B2    5 B1    4 B2                 
  0.093   0.094   0.095   0.100   0.115   0.115   0.118   0.130
  9 A1    6 B1    5 B2   10 A1   11 A1    7 B1    6 B2   12 A1                 
  0.136   0.137   0.155   0.177   0.180   0.186   0.188   0.190
  7 B2    8 B1   13 A1    8 B2   14 A1    9 B1   15 A1    1 A2                 
  0.201   0.207   0.216   0.225   0.237   0.237   0.237   0.242
  9 B2   10 B1   16 A1   17 A1   18 A1   10 B2   11 B1    2 A2                 
  0.251   0.283   0.295   0.306   0.310   0.321   0.346   0.350
 11 B2   19 A1   12 B1   20 A1   12 B2   13 B1   21 A1   13 B2                 
  0.351   0.378   0.403   0.408   0.425   0.441   0.454   0.485
 14 B1   22 A1   14 B2   23 A1   15 B1    3 A2   24 A1   25 A1                 
  0.492   0.525   0.538   0.544   0.546   0.560   0.625   0.641
 16 B1   17 B1   26 A1   27 A1    4 A2   15 B2   28 A1   18 B1                 
  0.687   0.710   0.746   0.759   0.810   0.815   0.819   0.842
 16 B2   29 A1   19 B1   30 A1   17 B2   31 A1   20 B1   21 B1                 
  0.862   0.886   0.916   0.923   1.030   1.056   1.073   1.113
 32 A1   33 A1   18 B2   34 A1   35 A1   22 B1    5 A2   19 B2                 
  1.113   1.116   1.133   1.191   1.194   1.203   1.254   1.256
 23 B1   36 A1   20 B2   37 A1    6 A2   38 A1   21 B2   24 B1                 
  1.281   1.313   1.331   1.427   1.474   1.557   1.572   1.604
 22 B2    7 A2   25 B1   39 A1   40 A1   23 B2   26 B1   27 B1                 
  1.675   1.715   1.734   1.786   1.915   2.055   2.081   2.153
 41 A1   42 A1    8 A2   28 B1   43 A1   44 A1   45 A1   29 B1                 
  2.630   2.787   2.797   2.812   2.832   2.853   2.918   2.951
 24 B2   46 A1   30 B1   47 A1   25 B2   31 B1   48 A1   32 B1                 
  2.970   3.046   3.048   3.121   3.156   3.187   3.215   3.280
 26 B2    9 A2   49 A1   33 B1   27 B2   34 B1   50 A1   10 A2                 
  3.317   3.318   3.342   3.513   3.519   3.534   3.557   3.566
 28 B2   11 A2   51 A1   52 A1   35 B1   12 A2   29 B2   36 B1                 
  3.582   3.606   3.667   3.696   3.713   3.838   3.838   3.838
 53 A1   54 A1   30 B2   13 A2   55 A1   37 B1   31 B2   56 A1                 
  3.838   3.838   3.849   3.875   4.031   4.059   4.076   4.081
 14 A2   57 A1   38 B1   39 B1   32 B2   58 A1   40 B1   41 B1                 
  4.112   4.117   4.169   4.273   4.278   4.278   4.280   4.339
 33 B2   59 A1   15 A2   60 A1   34 B2   42 B1   61 A1   62 A1                 
  4.350   4.401   4.405   4.419   4.647   4.667   4.717   4.756
 16 A2   43 B1   35 B2   36 B2   63 A1   44 B1   17 A2   64 A1                 
  4.848   4.907   4.998   5.101   5.140   5.216   5.275   5.365
 65 A1   37 B2   38 B2   66 A1   45 B1   46 B1   18 A2   67 A1                 
  5.417   5.478   5.534   5.593   5.728   5.775   6.162   6.238
 68 A1   19 A2   47 B1   39 B2   48 B1   69 A1   49 B1   70 A1                 
  6.370   6.717   6.948  12.978  15.421
 50 B1   71 A1   51 B1   72 A1   73 A1                                         
 
 Beta MOs, Restricted
 -- Occupied --                  
-11.177 -11.175  -0.989  -0.730  -0.610  -0.517  -0.465  -0.327
  1 A1    2 A1    3 A1    4 A1    1 B1    5 A1    2 B1    1 B2                 
 -0.031
  6 A1                                                                         
 -- Virtual --                   
  0.044   0.045   0.049   0.064   0.067   0.067   0.072   0.074
  3 B1    2 B2    7 A1    8 A1    4 B1    3 B2    5 B1    4 B2                 
  0.093   0.094   0.095   0.100   0.115   0.115   0.118   0.130
  9 A1    6 B1    5 B2   10 A1   11 A1    7 B1    6 B2   12 A1                 
  0.136   0.137   0.155   0.177   0.180   0.186   0.188   0.190
  7 B2    8 B1   13 A1    8 B2   14 A1    9 B1   15 A1    1 A2                 
  0.201   0.207   0.216   0.225   0.237   0.237   0.237   0.242
  9 B2   10 B1   16 A1   17 A1   18 A1   10 B2   11 B1    2 A2                 
  0.251   0.283   0.295   0.306   0.310   0.321   0.346   0.350
 11 B2   19 A1   12 B1   20 A1   12 B2   13 B1   21 A1   13 B2                 
  0.351   0.378   0.403   0.408   0.425   0.441   0.454   0.485
 14 B1   22 A1   14 B2   23 A1   15 B1    3 A2   24 A1   25 A1                 
  0.492   0.525   0.538   0.544   0.546   0.560   0.625   0.641
 16 B1   17 B1   26 A1   27 A1    4 A2   15 B2   28 A1   18 B1                 
  0.687   0.710   0.746   0.759   0.810   0.815   0.819   0.842
 16 B2   29 A1   19 B1   30 A1   17 B2   31 A1   20 B1   21 B1                 
  0.862   0.886   0.916   0.923   1.030   1.056   1.073   1.113
 32 A1   33 A1   18 B2   34 A1   35 A1   22 B1    5 A2   19 B2                 
  1.113   1.116   1.133   1.191   1.194   1.203   1.254   1.256
 23 B1   36 A1   20 B2   37 A1    6 A2   38 A1   21 B2   24 B1                 
  1.281   1.313   1.331   1.427   1.474   1.557   1.572   1.604
 22 B2    7 A2   25 B1   39 A1   40 A1   23 B2   26 B1   27 B1                 
  1.675   1.715   1.734   1.786   1.915   2.055   2.081   2.153
 41 A1   42 A1    8 A2   28 B1   43 A1   44 A1   45 A1   29 B1                 
  2.630   2.787   2.797   2.812   2.832   2.853   2.918   2.951
 24 B2   46 A1   30 B1   47 A1   25 B2   31 B1   48 A1   32 B1                 
  2.970   3.046   3.048   3.121   3.156   3.187   3.215   3.280
 26 B2    9 A2   49 A1   33 B1   27 B2   34 B1   50 A1   10 A2                 
  3.317   3.318   3.342   3.513   3.519   3.534   3.557   3.566
 28 B2   11 A2   51 A1   52 A1   35 B1   12 A2   29 B2   36 B1                 
  3.582   3.606   3.667   3.696   3.713   3.838   3.838   3.838
 53 A1   54 A1   30 B2   13 A2   55 A1   37 B1   31 B2   56 A1                 
  3.838   3.838   3.849   3.875   4.031   4.059   4.076   4.081
 14 A2   57 A1   38 B1   39 B1   32 B2   58 A1   40 B1   41 B1                 
  4.112   4.117   4.169   4.273   4.278   4.278   4.280   4.339
 33 B2   59 A1   15 A2   60 A1   34 B2   42 B1   61 A1   62 A1                 
  4.350   4.401   4.405   4.419   4.647   4.667   4.717   4.756
 16 A2   43 B1   35 B2   36 B2   63 A1   44 B1   17 A2   64 A1                 
  4.848   4.907   4.998   5.101   5.140   5.216   5.275   5.365
 65 A1   37 B2   38 B2   66 A1   45 B1   46 B1   18 A2   67 A1                 
  5.417   5.478   5.534   5.593   5.728   5.775   6.162   6.238
 68 A1   19 A2   47 B1   39 B2   48 B1   69 A1   49 B1   70 A1                 
  6.370   6.717   6.948  12.978  15.421
 50 B1   71 A1   51 B1   72 A1   73 A1                                         
 --------------------------------------------------------------
 
          Ground-State Mulliken Net Atomic Charges

     Atom                 Charge (a.u.)
  ----------------------------------------
      1 C                    -0.122063
      2 C                    -0.781527
      3 H                     0.169417
      4 H                     0.180730
      5 H                     0.169417
      6 H                     0.180730
      7 H                    -0.796704
  ----------------------------------------
  Sum of atomic charges =    -1.000000

 -----------------------------------------------------------------
                    Cartesian Multipole Moments
 -----------------------------------------------------------------
    Charge (ESU x 10^10)
                -4.8032
    Dipole Moment (Debye)
         X      -0.0000      Y      -0.0000      Z      44.9532
       Tot      44.9532
    Quadrupole Moments (Debye-Ang)
        XX     -28.5959     XY      -0.0000     YY     -32.7946
        XZ      -0.0000     YZ      -0.0000     ZZ    -475.1639
    Octopole Moments (Debye-Ang^2)
       XXX      -0.0000    XXY      -0.0000    XYY      -0.0000
       YYY      -0.0000    XXZ      77.1128    XYZ       0.0000
       YYZ      74.5054    XZZ      -0.0000    YZZ      -0.0000
       ZZZ    4625.1419
    Hexadecapole Moments (Debye-Ang^3)
      XXXX    -657.4216   XXXY       0.0000   XXYY    -219.2224
      XYYY       0.0000   YYYY    -652.0619   XXXZ      -0.0000
      XXYZ      -0.0000   XYYZ      -0.0000   YYYZ      -0.0000
      XXZZ   -1046.9026   XYZZ       0.0000   YYZZ   -1050.8491
      XZZZ       0.0000   YZZZ      -0.0000   ZZZZ  -48425.5282
 -----------------------------------------------------------------
 Total job time:  247.50s(wall), 1551.87s(cpu) 
 Thu Apr 28 19:08:56 2022

        *************************************************************
        *                                                           *
        *  Thank you very much for using Q-Chem.  Have a nice day.  *
        *                                                           *
        *************************************************************


