/src/tsommerfeld/qchem/exe/qcprog.exe .input0.972222.15882.qcin.1 /src/jdavis/qchem.scratch/qchem15882/

                  Welcome to Q-Chem
     A Quantum Leap Into The Future Of Chemistry


 Q-Chem 5.4 (devel), Q-Chem, Inc., Pleasanton, CA (2021)

 E. Epifanovsky,  A. T. B. Gilbert,  Xintian Feng,  Joonho Lee,  Yuezhi Mao,  
 N. Mardirossian,  P. Pokhilko,  A. White,  M. Wormit,  M. P. Coons,  
 A. L. Dempwolff,  Zhengting Gan,  D. Hait,  P. R. Horn,  L. D. Jacobson,  
 I. Kaliman,  J. Kussmann,  A. W. Lange,  Ka Un Lao,  D. S. Levine,  Jie Liu,  
 S. C. McKenzie,  A. F. Morrison,  K. Nanda,  F. Plasser,  D. R. Rehn,  
 M. L. Vidal,  Zhi-Qiang You,  Ying Zhu,  B. Alam,  B. Albrecht,  
 A. Aldossary,  E. Alguire,  J. H. Andersen,  D. Barton,  K. Begam,  A. Behn,  
 Y. A. Bernard,  E. J. Berquist,  H. Burton,  A. Carreras,  K. Carter-Fenk,  
 R. Chakraborty,  A. D. Chien,  K. D. Closser,  V. Cofer-Shabica,  
 S. Dasgupta,  Jia Deng,  M. de Wergifosse,  M. Diedenhofen,  Hainam Do,  
 S. Ehlert,  Po-Tung Fang,  S. Fatehi,  Qingguo Feng,  T. Friedhoff,  
 J. Gayvert,  Qinghui Ge,  G. Gidofalvi,  M. Goldey,  J. Gomes,  
 C. Gonzalez-Espinoza,  S. Gulania,  A. Gunina,  M. W. D. Hanson-Heine,  
 P. H. P. Harbach,  A. W. Hauser,  M. F. Herbst,  M. Hernandez Vera,  
 M. Hodecker,  Z. C. Holden,  S. Houck,  Xunkun Huang,  Kerwin Hui,  
 B. C. Huynh,  M. Ivanov,  Hyunjun Ji,  Hanjie Jiang,  B. Kaduk,  S. Kaehler,  
 K. Khistyaev,  Jaehoon Kim,  P. Klunzinger,  Z. Koczor-Benda,  
 Joong Hoon Koh,  D. Kosenkov,  L. Koulias,  T. Kowalczyk,  C. M. Krauter,  
 K. Kue,  A. Kunitsa,  T. Kus,  A. Landau,  K. V. Lawler,  D. Lefrancois,  
 S. Lehtola,  Rain Li,  Yi-Pei Li,  Jiashu Liang,  M. Liebenthal,  
 Hung-Hsuan Lin,  You-Sheng Lin,  Fenglai Liu,  Kuan-Yu Liu,  
 M. Loipersberger,  A. Luenser,  A. Manjanath,  P. Manohar,  E. Mansoor,  
 S. F. Manzer,  Shan-Ping Mao,  A. V. Marenich,  T. Markovich,  S. Mason,  
 S. A. Maurer,  P. F. McLaughlin,  M. F. S. J. Menger,  J.-M. Mewes,  
 S. A. Mewes,  P. Morgante,  J. W. Mullinax,  K. J. Oosterbaan,  G. Paran,  
 Alexander C. Paul,  Suranjan K. Paul,  F. Pavosevic,  Zheng Pei,  S. Prager,  
 E. I. Proynov,  E. Ramos,  B. Rana,  A. E. Rask,  A. Rettig,  R. M. Richard,  
 F. Rob,  E. Rossomme,  T. Scheele,  M. Scheurer,  M. Schneider,  
 N. Sergueev,  S. M. Sharada,  W. Skomorowski,  D. W. Small,  C. J. Stein,  
 Yu-Chuan Su,  E. J. Sundstrom,  Zhen Tao,  J. Thirman,  T. Tsuchimochi,  
 N. M. Tubman,  S. P. Veccham,  O. Vydrov,  J. Wenzel,  J. Witte,  A. Yamada,  
 Kun Yao,  S. Yeganeh,  S. R. Yost,  A. Zech,  Igor Ying Zhang,  Xing Zhang,  
 Yu Zhang,  D. Zuev,  A. Aspuru-Guzik,  A. T. Bell,  N. A. Besley,  
 K. B. Bravaya,  B. R. Brooks,  D. Casanova,  Jeng-Da Chai,  S. Coriani,  
 C. J. Cramer,  A. E. DePrince, III,  R. A. DiStasio Jr.,  A. Dreuw,  
 B. D. Dunietz,  T. R. Furlani,  W. A. Goddard III,  S. Grimme,  
 S. Hammes-Schiffer,  T. Head-Gordon,  W. J. Hehre,  Chao-Ping Hsu,  
 T.-C. Jagau,  Yousung Jung,  A. Klamt,  Jing Kong,  D. S. Lambrecht,  
 WanZhen Liang,  N. J. Mayhall,  C. W. McCurdy,  J. B. Neaton,  
 C. Ochsenfeld,  J. A. Parkhill,  R. Peverati,  V. A. Rassolov,  Yihan Shao,  
 L. V. Slipchenko,  T. Stauch,  R. P. Steele,  J. E. Subotnik,  
 A. J. W. Thom,  A. Tkatchenko,  D. G. Truhlar,  T. Van Voorhis,  
 T. A. Wesolowski,  K. B. Whaley,  H. L. Woodcock III,  P. M. Zimmerman,  
 S. Faraji,  P. M. W. Gill,  M. Head-Gordon,  J. M. Herbert,  A. I. Krylov

 Additional authors for Version 5.4.1: 
 S. Kotaru,  Shaozhi Li,  Xiangyuan Li,  F. Matz,  A. Molle,  Haisheng Ren,  
 Yingli Su,  Hung-Yi Tsai,  C. Utku,  Fang Wang

 Contributors to earlier versions of Q-Chem not listed above: 
 R. D. Adamson,  B. Austin,  R. Baer,  J. Baker,  G. J. O. Beran,  
 K. Brandhorst,  S. T. Brown,  E. F. C. Byrd,  A. K. Chakraborty,  
 G. K. L. Chan,  Chun-Min Chang,  Yunqing Chen,  C.-L. Cheng,  
 Siu Hung Chien,  D. M. Chipman,  D. L. Crittenden,  H. Dachsel,  
 R. J. Doerksen,  A. D. Dutoi,  R. G. Edgar,  J. Fosso-Tande,  
 L. Fusti-Molnar,  D. Ghosh,  A. Ghysels,  A. Golubeva-Zadorozhnaya,  
 J. Gonthier,  M. S. Gordon,  S. R. Gwaltney,  G. Hawkins,  J. E. Herr,  
 A. Heyden,  S. Hirata,  E. G. Hohenstein,  G. Kedziora,  F. J. Keil,  
 C. Kelley,  Jihan Kim,  R. A. King,  R. Z. Khaliullin,  P. P. Korambath,  
 W. Kurlancheek,  A. Laurent,  A. M. Lee,  M. S. Lee,  S. V. Levchenko,  
 Ching Yeh Lin,  D. Liotard,  E. Livshits,  R. C. Lochan,  I. Lotan,  
 L. A. Martinez-Martinez,  P. E. Maslen,  N. Nair,  D. P. O'Neill,  
 D. Neuhauser,  E. Neuscamman,  C. M. Oana,  R. Olivares-Amaya,  R. Olson,  
 T. M. Perrine,  B. Peters,  P. A. Pieniazek,  A. Prociuk,  Y. M. Rhee,  
 J. Ritchie,  M. A. Rohrdanz,  E. Rosta,  N. J. Russ,  H. F. Schaefer III,  
 M. W. Schmidt,  N. E. Schultz,  S. Sharma,  N. Shenvi,  C. D. Sherrill,  
 A. C. Simmonett,  A. Sodt,  T. Stein,  D. Stuck,  K. S. Thanthiriwatte,  
 V. Vanovschi,  L. Vogt,  Tao Wang,  A. Warshel,  M. A. Watson,  
 C. F. Williams,  Q. Wu,  X. Xu,  Jun Yang,  W. Zhang,  Yan Zhao

 Please cite Q-Chem as follows:
 Y. Shao et al., Mol. Phys. 113, 184-215 (2015)
 DOI: 10.1080/00268976.2014.952696

 Q-Chem 5.4.1 for Intel X86 EM64T Linux

 Parts of Q-Chem use Armadillo 9.900.5 (Nocturnal Misbehaviour).
 http://arma.sourceforge.net/

 Q-Chem begins on Thu Feb 17 15:17:50 2022  

 Host: node01
0

     Scratch files written to /src/jdavis/qchem.scratch/qchem15882//
 Processing $rem in /src/tsommerfeld/qchem/config/preferences:
 Processing $rem in /home/jdavis/.qchemrc:

 Checking the input file for inconsistencies... 	...done.

--------------------------------------------------------------
User input:
--------------------------------------------------------------
$molecule
-1 1
C        -0.6645000000    0.0000000000   -0.2082049804
C         0.6645000000    0.0000000000   -0.2082049804
H        -1.1590800000    0.0000000000    0.7541440196
H         1.1590800000    0.0000000000    0.7541440196
H        -1.1590800000    0.0000000000   -1.1705529804
H         1.1590800000    0.0000000000   -1.1705529804
H         0.0000000000    0.0000000000    9.792
$end

$rem
   METHOD adc(2)
   BASIS gen
   PURECART 11
   EE_STATES [0,10,0,0]
   scf_convergence 8
   ADC_DAVIDSON_MAXITER 120
   ADC_DAVIDSON_MAXSUBSPACE 200
   adc_nguess_singles 100
   THRESH 14
   S2THRESH 14
   adc_davidson_conv 5
   adc_davidson_thresh 14
   THREADS 10
   MEM_TOTAL 95000
   STATE_ANALYSIS TRUE
$end
$basis
C 1
S   9   1.00
      6.665000D+03           6.920000D-04
      1.000000D+03           5.329000D-03
      2.280000D+02           2.707700D-02
      6.471000D+01           1.017180D-01
      2.106000D+01           2.747400D-01
      7.495000D+00           4.485640D-01
      2.797000D+00           2.850740D-01
      5.215000D-01           1.520400D-02
      1.596000D-01          -3.191000D-03
S   9   1.00
      6.665000D+03          -1.460000D-04
      1.000000D+03          -1.154000D-03
      2.280000D+02          -5.725000D-03
      6.471000D+01          -2.331200D-02
      2.106000D+01          -6.395500D-02
      7.495000D+00          -1.499810D-01
      2.797000D+00          -1.272620D-01
      5.215000D-01           5.445290D-01
      1.596000D-01           5.804960D-01
S   1   1.00
      1.596000D-01           1.000000D+00
S   1   1.00
      0.0469000              1.0000000
P   4   1.00
      9.439000D+00           3.810900D-02
      2.002000D+00           2.094800D-01
      5.456000D-01           5.085570D-01
      1.517000D-01           4.688420D-01
P   1   1.00
      1.517000D-01           1.000000D+00
P   1   1.00
      0.0421389      1.0000000
P   1   1.00
      0.0210694      1.0000000
D   1   1.00
      5.500000D-01           1.0000000
****
C 2
S   9   1.00
      6.665000D+03           6.920000D-04
      1.000000D+03           5.329000D-03
      2.280000D+02           2.707700D-02
      6.471000D+01           1.017180D-01
      2.106000D+01           2.747400D-01
      7.495000D+00           4.485640D-01
      2.797000D+00           2.850740D-01
      5.215000D-01           1.520400D-02
      1.596000D-01          -3.191000D-03
S   9   1.00
      6.665000D+03          -1.460000D-04
      1.000000D+03          -1.154000D-03
      2.280000D+02          -5.725000D-03
      6.471000D+01          -2.331200D-02
      2.106000D+01          -6.395500D-02
      7.495000D+00          -1.499810D-01
      2.797000D+00          -1.272620D-01
      5.215000D-01           5.445290D-01
      1.596000D-01           5.804960D-01
S   1   1.00
      1.596000D-01           1.000000D+00
S   1   1.00
      0.0469000              1.0000000
P   4   1.00
      9.439000D+00           3.810900D-02
      2.002000D+00           2.094800D-01
      5.456000D-01           5.085570D-01
      1.517000D-01           4.688420D-01
P   1   1.00
      1.517000D-01           1.000000D+00
P   1   1.00
      0.0421389      1.0000000
P   1   1.00
      0.0210694      1.0000000
D   1   1.00
      5.500000D-01           1.0000000
****
H 3
cc-pVDZ
****
H 4
cc-pVDZ
****
H 5
cc-pVDZ
****
H 6
cc-pVDZ
****
H 7
aug-cc-pVDZ
****
$end
--------------------------------------------------------------
 ----------------------------------------------------------------
             Standard Nuclear Orientation (Angstroms)
    I     Atom           X                Y                Z
 ----------------------------------------------------------------
    1      C      -0.6645000000    -0.0000000000    -0.5882474694
    2      C       0.6645000000     0.0000000000    -0.5882474694
    3      H      -1.1590800000    -0.0000000000     0.3741015306
    4      H       1.1590800000     0.0000000000     0.3741015306
    5      H      -1.1590800000    -0.0000000000    -1.5505954694
    6      H       1.1590800000     0.0000000000    -1.5505954694
    7      H       0.0000000000     0.0000000000     9.4119575110
 ----------------------------------------------------------------
 Molecular Point Group                 C2v   NOp =  4
 Largest Abelian Subgroup              C2v   NOp =  4
 Nuclear Repulsion Energy =          34.43497767 hartrees
 There are        9 alpha and        9 beta electrons
 Requested basis set is non-standard
 There are 33 shells and 67 basis functions
 Total memory of 95000 MB is distributed as follows: 
   MEM_STATIC is set to 192 MB
   QALLOC/CCMAN JOB total memory use is  94808 MB
 Warning: actual memory use might exceed 95000 MB

 Total QAlloc Memory Limit  95000 MB
 Mega-Array Size       188 MB
 MEM_STATIC part       192 MB

                       Distance Matrix (Angstroms)
             C (  1)   C (  2)   H (  3)   H (  4)   H (  5)   H (  6)
   C (  2)  1.329000
   H (  3)  1.082000  2.061931
   H (  4)  2.061931  1.082000  2.318160
   H (  5)  1.082000  2.061931  1.924697  3.013026
   H (  6)  2.061931  1.082000  3.013026  1.924697  2.318160
   H (  7) 10.022258 10.022258  9.111877  9.111877 11.023658 11.023658

 
 A cutoff of  1.0D-14 yielded    505 shell pairs
 There are      2121 function pairs (      2258 Cartesian)
 Smallest overlap matrix eigenvalue = 2.32E-04

 Scale SEOQF with 1.000000e-01/1.000000e-01/1.000000e-02

 Standard Electronic Orientation quadrupole field applied
 Nucleus-field energy     =    -0.0000000007 hartrees
 ================ Generating on-the-fly SAD Guess ================
Attempting to make child job directory: /src/jdavis/qchem.scratch/qchem15882//Frg1/
Attempting to make child job directory: /src/jdavis/qchem.scratch/qchem15882//Frg2/
Creating input file /src/jdavis/qchem.scratch/qchem15882/Frg1.input
using default PutDataFrgm: nothing
calling putenv with: QCSCRATCH=/src/jdavis/qchem.scratch/qchem15882/ 
Spawning Job For Fragment 0
Done Job For Fragment 0
calling putenv with: QCSCRATCH=/src/jdavis/qchem.scratch 
calling putenv with: QCTHREADS=1 
Creating input file /src/jdavis/qchem.scratch/qchem15882/Frg2.input
using default PutDataFrgm: nothing
calling putenv with: QCSCRATCH=/src/jdavis/qchem.scratch/qchem15882/ 
Spawning Job For Fragment 1
Done Job For Fragment 1
calling putenv with: QCSCRATCH=/src/jdavis/qchem.scratch 
calling putenv with: QCTHREADS=1 
 Time for running child jobs:  CPU 1.77 s  wall 53.09 s
 ============= Method Specific SAD Guess Constructed =============
 Guess from on-the-fly superposition of atomic densities
 Warning: Energy on first SCF cycle will be non-variational
 A restricted Hartree-Fock SCF calculation will be
 performed using Pulay DIIS extrapolation
 SCF converges when DIIS error is below 1.0E-08
 using 10 threads for integral computing
 -------------------------------------------------------
 OpenMP Integral computing Module                
 Release: version 1.0, May 2013, Q-Chem Inc. Pittsburgh 
 -------------------------------------------------------
 ---------------------------------------
  Cycle       Energy         DIIS Error
 ---------------------------------------
    1     -78.7999336729      7.36E-02
    2     -78.4467020915      6.49E-03
    3     -78.4848401170      1.48E-03
    4     -78.4867877550      4.77E-04
    5     -78.4869675254      7.45E-05
    6     -78.4869800823      1.46E-05
    7     -78.4869821842      5.94E-06
    8     -78.4869830206      2.61E-06
    9     -78.4869832603      7.44E-07
   10     -78.4869832776      1.13E-07
   11     -78.4869832778      1.36E-08
   12     -78.4869832778      1.80E-09 Convergence criterion met
 ---------------------------------------
 SCF time:  CPU 10.23 s  wall 1.03 s
 SCF   energy in the final basis set = -78.48698328
 Total energy in the final basis set = -78.48698328
================================================================================
|                                                                              |
|                                 A D C  M A N                                 |
|                                                                              |
 ------------------------------------------------------------------------------ 
|                                                                              |
| Components:                                                                  |
|                                                                              |
| - libvmm - 1.3-trunk                                                         |
|   Authors:                                                                   |
|   Evgeny Epifanovsky, Ilya Kaliman                                           |
|                                                                              |
| - libtensor - 2.5-trunk                                                      |
|   Authors:                                                                   |
|   Evgeny Epifanovsky, Michael Wormit, Dmitry Zuev, Sam Manzer,               |
|   Ilya Kaliman                                                               |
|                                                                              |
| - libwfa - 1.1-trunk                                                         |
|   Authors:                                                                   |
|   Felix Plasser, Stefanie Mewes (Baeppler), Benjamin Thomitzni,              |
|   Michael Wormit, Feng Chen, Anna I. Krylov, Pavel Pokhilko                  |
|                                                                              |
| - libadc - 1.1-trunk                                                         |
|   Authors:                                                                   |
|   Michael Wormit, Adrian L. Dempwolff, Philipp H. P. Harbach,                |
|   Caroline Krauter, Dirk Rehn, Matthias Schneider, Jan Wenzel                |
|                                                                              |
| - adcman - 2.6-trunk                                                         |
|   Authors:                                                                   |
|   Michael Wormit, Adrian L. Dempwolff, Philipp H. P. Harbach,                |
|   Caroline Krauter, Daniel Lefrancois, Jan-Michael Mewes, Dirk Rehn,         |
|   Matthias Schneider, Jan Wenzel, Andreas Dreuw                              |
|                                                                              |
| Authors of earlier versions of ADCMAN:                                       |
| Andreas Dreuw, Jan Hendrik Starcke, Dirk Rehn, Michael Wormit                |
|                                                                              |
================================================================================

 
 Alpha MOs, Restricted
 -- Occupied --                  
-11.184 -11.182  -0.989  -0.729  -0.607  -0.514  -0.462  -0.324
  1 A1    1 B1    2 A1    2 B1    3 A1    4 A1    3 B1    1 B2                 
  0.020
  5 A1                                                                         
 -- Virtual --                   
  0.087   0.099   0.100   0.111   0.115   0.118   0.154   0.184
  4 B1    2 B2    6 A1    1 A2    7 A1    5 B1    8 A1    2 A2                 
  0.194   0.230   0.246   0.251   0.262   0.319   0.327   0.328
  6 B1    9 A1    7 B1    3 B2   10 A1   11 A1    3 A2    8 B1                 
  0.394   0.402   0.528   0.563   0.753   0.839   0.914   0.936
 12 A1    9 B1   10 B1   11 B1   13 A1   14 A1   15 A1    4 B2                 
  0.950   0.986   0.991   1.031   1.055   1.081   1.106   1.167
 16 A1   12 B1    4 A2   13 B1   17 A1   18 A1   14 B1    5 B2                 
  1.337   1.338   1.388   1.399   1.660   1.668   1.752   1.904
  6 B2    5 A2   15 B1   16 B1   19 A1   17 B1   20 A1    6 A2                 
  1.964   1.964   1.964   1.966   1.992   2.042   2.070   2.098
 18 B1    7 B2   21 A1   19 B1    8 B2   22 A1    9 B2   23 A1                 
  2.224   2.343   2.465   2.496   2.605   2.625   2.852   2.855
  7 A2   20 B1    8 A2   24 A1   21 B1   22 B1   25 A1   26 A1                 
  3.313   3.394
 23 B1   24 B1                                                                 
 
 Beta MOs, Restricted
 -- Occupied --                  
-11.184 -11.182  -0.989  -0.729  -0.607  -0.514  -0.462  -0.324
  1 A1    1 B1    2 A1    2 B1    3 A1    4 A1    3 B1    1 B2                 
  0.020
  5 A1                                                                         
 -- Virtual --                   
  0.087   0.099   0.100   0.111   0.115   0.118   0.154   0.184
  4 B1    2 B2    6 A1    1 A2    7 A1    5 B1    8 A1    2 A2                 
  0.194   0.230   0.246   0.251   0.262   0.319   0.327   0.328
  6 B1    9 A1    7 B1    3 B2   10 A1   11 A1    3 A2    8 B1                 
  0.394   0.402   0.528   0.563   0.753   0.839   0.914   0.936
 12 A1    9 B1   10 B1   11 B1   13 A1   14 A1   15 A1    4 B2                 
  0.950   0.986   0.991   1.031   1.055   1.081   1.106   1.167
 16 A1   12 B1    4 A2   13 B1   17 A1   18 A1   14 B1    5 B2                 
  1.337   1.338   1.388   1.399   1.660   1.668   1.752   1.904
  6 B2    5 A2   15 B1   16 B1   19 A1   17 B1   20 A1    6 A2                 
  1.964   1.964   1.964   1.966   1.992   2.042   2.070   2.098
 18 B1    7 B2   21 A1   19 B1    8 B2   22 A1    9 B2   23 A1                 
  2.224   2.343   2.465   2.496   2.605   2.625   2.852   2.855
  7 A2   20 B1    8 A2   24 A1   21 B1   22 B1   25 A1   26 A1                 
  3.313   3.394
 23 B1   24 B1                                                                 

--------------------------------------------------------------------------------
                                   HF Summary                                   
--------------------------------------------------------------------------------
  Energy:                                                  -78.4869832778 a.u.
  Dip. moment [a.u.]:                  [   0.000000,   -0.000000,  -17.596427]
  Total dipole [Debye]:                                              44.725665
  <r^2> [a.u.]:                        [  50.807014,   15.047595,  675.717715]
  Total <r^2> [a.u.]:                                               741.572324
--------------------------------------------------------------------------------

--------------------------------------------------------------------------------
                                 MP(2) Summary                                  
--------------------------------------------------------------------------------
  MP energy contribution:                                   -0.2978183724 a.u.
  Total energy:                                            -78.7848016501 a.u.
  Dip. moment [a.u.]:                  [   0.000000,    0.000000,  -17.566740]
  Total dipole [Debye]:                                              44.650207
  <r^2> [a.u.]:                        [  50.897767,   14.881145,  675.294353]
  Total <r^2> [a.u.]:                                               741.073265

  Density matrix analysis:
  ------------------------
  NOs
    Occupation of frontier NOs:
       0.0446   1.9372
    Number of electrons: 18.000000
    Number of unpaired electrons: n_u =  0.43223, n_u,nl =  0.04669
    NO participation ratio (PR_NO): 15.359241
  
  
  Mulliken Population Analysis
  Atom      Charge (e)              h+              e-           Del q
  --------------------------------------------------------------------
   1 C       -0.174987        0.088900       -0.103962       -0.015062
   2 C       -0.174987        0.088900       -0.103962       -0.015062
   3 H        0.095545        0.017522       -0.010410        0.007112
   4 H        0.095545        0.017522       -0.010410        0.007112
   5 H        0.074819        0.017834       -0.010675        0.007159
   6 H        0.074819        0.017834       -0.010675        0.007159
   7 H       -0.990756        0.023684       -0.022103        0.001581
  --------------------------------------------------------------------
  Sum:       -1.000000        0.272198       -0.272198       -0.000000
  
  Multipole moment analysis of the density matrix
    Molecular charge:                      -1.000000
    Number of electrons:                   18.000000
      Center of electronic charge [Ang]: [ -0.000000,  -0.000000,   0.516440]
    Total nuclear charge:                  17.000000
      Center of nuclear charge [Ang]:    [  0.000000,   0.000000,  -0.000000]
    Dipole moment [D]:                     44.650194
      Cartesian components [D]:          [  0.000000,   0.000000, -44.650194]
    RMS size of the density [Ang]:         3.355931
      Cartesian components [Ang]:        [  0.889845,   0.481153,   3.199834]
  
  Exciton analysis of the difference density matrix
    <r_h> [Ang]:                  [ -0.000000,  -0.000000,   0.276145]
    <r_e> [Ang]:                  [ -0.000000,  -0.000000,   0.218430]
    |<r_e - r_h>| [Ang]:            0.057715
    Hole size [Ang]:                3.186356
      Cartesian components [Ang]: [  0.975058,   0.776558,   2.932419]
    Electron size [Ang]:            3.109340
      Cartesian components [Ang]: [  1.021813,   0.657118,   2.862182]
--------------------------------------------------------------------------------
Less singles guess vectors found than requested: 85 (found), 100 (requested).
Adjusting number of doubles guess vectors to 15.
  Starting Davidson for singlet states of irrep A2 ... 
--------------------------------------------------------------------------------
   It NVec Conv  Avg. Norm  Max. Norm  Conv. states           Remark
--------------------------------------------------------------------------------
       100    0  3.244e-02  2.842e-01  0.0514 n n n n n n n n Guess.
    1  110    1  2.592e-03  2.064e-02  0.0319 n n y n n n n n 
    2  120    4  1.008e-04  9.576e-04  0.0319 n n y n y n n y 
    3  130    9  5.170e-06  5.072e-05  0.0319 y y y y y y n y 
    4  140   10  1.308e-07  1.295e-06  0.0319 y y y y y y y y Converged.
--------------------------------------------------------------------------------
  Davidson Summary: 
 ------------------------------------------------------------
  State  0: excitation energy =   0.0319 a.u.   (converged)
  State  1: excitation energy =   0.0746 a.u.   (converged)
  State  2: excitation energy =   0.1460 a.u.   (converged)
  State  3: excitation energy =   0.1750 a.u.   (converged)
  State  4: excitation energy =   0.1771 a.u.   (converged)
  State  5: excitation energy =   0.1857 a.u.   (converged)
  State  6: excitation energy =   0.2135 a.u.   (converged)
  State  7: excitation energy =   0.2250 a.u.   (converged)
  State  8: excitation energy =   0.2482 a.u.   (converged)
  State  9: excitation energy =   0.2524 a.u.   (converged)
 ------------------------------------------------------------


--------------------------------------------------------------------------------
                   State-averaged natural transition orbitals
--------------------------------------------------------------------------------
--------------------------------------------------------------------------------

--------------------------------------------------------------------------------
                             Excited State Summary
--------------------------------------------------------------------------------
--------------------------------------------------------------------------------

  Excited state 1 (singlet, A2)                                    [converged]
  ----------------------------------------------------------------------------
  Term symbol:  1 (1) A2                                    R^2 =  3.46961e-08

  Total energy:                                            -78.7528976703 a.u.
  Excitation energy:                                               0.868151 eV

  Osc. strength:                                                      0.000000
  Trans. dip. moment [a.u.]:           [   0.000000,    0.000000,   -0.000000]
  <i|r^2|0> [a.u.]:                    [  -0.000000,   -0.000000,    0.000000]

  Dip. moment [a.u.]:                  [  -0.000000,    0.000000,    1.513262]
  Total dipole [Debye]:                                               3.846330
  <r^2> [a.u.]:                        [  88.339514,   51.488449,  368.353218]
  Total <r^2> [a.u.]:                                               508.181182

  V1^2 = 0.9414, V2^2 = 0.0586

  Important amplitudes:
      occ i      occ j       vir a       vir b          v   
    ---------------------------------------------------------
     5 (A1) A               1 (A2) A                 -0.6768
     5 (A1) A               2 (A2) A                  0.1085
    ---------------------------------------------------------

  Density matrix analysis:
  ------------------------
  NOs
    Occupation of frontier NOs:
       0.9969   0.9990
    Number of electrons: 18.000000
    Number of unpaired electrons: n_u =  2.41241, n_u,nl =  2.04636
    NO participation ratio (PR_NO):  2.904202
  
  
  Mulliken Population Analysis
  Atom      Charge (e)              h+              e-           Del q
  --------------------------------------------------------------------
   1 C       -0.662614        0.050803       -0.538430       -0.487628
   2 C       -0.662614        0.050803       -0.538430       -0.487628
   3 H        0.080417        0.001379       -0.016507       -0.015128
   4 H        0.080417        0.001379       -0.016507       -0.015128
   5 H        0.072401        0.002077       -0.004495       -0.002418
   6 H        0.072401        0.002077       -0.004495       -0.002418
   7 H        0.019592        1.036717       -0.026369        1.010348
  --------------------------------------------------------------------
  Sum:       -1.000000        1.145235       -1.145235        0.000000
  
  Multipole moment analysis of the density matrix
    Molecular charge:                      -1.000000
    Number of electrons:                   18.000000
      Center of electronic charge [Ang]: [  0.000000,  -0.000000,  -0.044488]
    Total nuclear charge:                  17.000000
      Center of nuclear charge [Ang]:    [  0.000000,   0.000000,  -0.000000]
    Dipole moment [D]:                     3.846329
      Cartesian components [D]:          [ -0.000000,   0.000000,   3.846329]
    RMS size of the density [Ang]:         2.811382
      Cartesian components [Ang]:        [  1.172310,   0.894993,   2.393438]
  
  Exciton analysis of the difference density matrix
    <r_h> [Ang]:                  [ -0.000000,  -0.000000,   8.480076]
    <r_e> [Ang]:                  [  0.000000,  -0.000000,  -0.336198]
    |<r_e - r_h>| [Ang]:            8.816273
    Hole size [Ang]:                3.325330
      Cartesian components [Ang]: [  0.871437,   0.848760,   3.094838]
    Electron size [Ang]:            5.090243
      Cartesian components [Ang]: [  3.148733,   3.109899,   2.514871]

  Transition density matrix analysis:
  -----------------------------------
  
  CT numbers (Mulliken)
    omega =     0.9341
    <Phe> =     0.0006
  
  Exciton analysis of the transition density matrix
    Trans. dipole moment [D]:             0.000000
      Cartesian components [D]:         [  0.000000,   0.000000,  -0.000000]
    <r_h> [Ang]:                        [  0.000000,   0.000000,   9.366537]
    <r_e> [Ang]:                        [  0.000000,  -0.000000,  -0.588230]
    |<r_e - r_h>| [Ang]:                  9.954768
    Hole size [Ang]:                      1.335586
      Cartesian components [Ang]:       [  0.659584,   0.657859,   0.957058]
    Electron size [Ang]:                  5.019049
      Cartesian components [Ang]:       [  3.305023,   3.270968,   1.889032]
    RMS electron-hole separation [Ang]:  11.228174
      Cartesian components [Ang]:       [  3.370174,   3.336463,  10.177516]
    Covariance(r_h, r_e) [Ang^2]:         0.000081
    Correlation coefficient:              0.000012
    Center-of-mass size [Ang]:            2.596864
      Cartesian components [Ang]:       [  1.685110,   1.668235,   1.058818]

  Decomposition into state-averaged NTOs
    H- 0 -> L+ 0: -0.6440 ( 82.9%)
    H- 0 -> L+ 1:  0.1797 (  6.5%)
    H- 0 -> L+ 2:  0.1415 (  4.0%)
                   omega =  93.4%
  ----------------------------------------------------------------------------


  Excited state 2 (singlet, A2)                                    [converged]
  ----------------------------------------------------------------------------
  Term symbol:  2 (1) A2                                    R^2 =  1.70637e-07

  Total energy:                                            -78.7102406849 a.u.
  Excitation energy:                                               2.028907 eV

  Osc. strength:                                                      0.000000
  Trans. dip. moment [a.u.]:           [   0.000000,    0.000000,   -0.000000]
  <i|r^2|0> [a.u.]:                    [  -0.000000,   -0.000000,    0.000000]

  Dip. moment [a.u.]:                  [   0.000000,    0.000000,    1.380576]
  Total dipole [Debye]:                                               3.509074
  <r^2> [a.u.]:                        [  66.612700,   29.118563,  363.696843]
  Total <r^2> [a.u.]:                                               459.428105

  V1^2 = 0.9236, V2^2 = 0.0764

  Important amplitudes:
      occ i      occ j       vir a       vir b          v   
    ---------------------------------------------------------
     5 (A1) A               2 (A2) A                 -0.6566
     5 (A1) A               3 (A2) A                 -0.1292
    ---------------------------------------------------------

  Density matrix analysis:
  ------------------------
  NOs
    Occupation of frontier NOs:
       0.9911   0.9976
    Number of electrons: 18.000000
    Number of unpaired electrons: n_u =  2.41334, n_u,nl =  2.04287
    NO participation ratio (PR_NO):  2.928633
  
  
  Mulliken Population Analysis
  Atom      Charge (e)              h+              e-           Del q
  --------------------------------------------------------------------
   1 C       -0.569576        0.168275       -0.562864       -0.394589
   2 C       -0.569576        0.168275       -0.562864       -0.394589
   3 H        0.036727        0.005794       -0.064612       -0.058818
   4 H        0.036727        0.005794       -0.064612       -0.058818
   5 H        0.026599        0.006368       -0.054588       -0.048220
   6 H        0.026599        0.006368       -0.054588       -0.048220
   7 H        0.012498        1.025609       -0.022355        1.003254
  --------------------------------------------------------------------
  Sum:       -1.000000        1.386483       -1.386483        0.000000
  
  Multipole moment analysis of the density matrix
    Molecular charge:                      -1.000000
    Number of electrons:                   18.000000
      Center of electronic charge [Ang]: [ -0.000000,  -0.000000,  -0.040587]
    Total nuclear charge:                  17.000000
      Center of nuclear charge [Ang]:    [  0.000000,   0.000000,  -0.000000]
    Dipole moment [D]:                     3.509073
      Cartesian components [D]:          [  0.000000,   0.000000,   3.509073]
    RMS size of the density [Ang]:         2.673152
      Cartesian components [Ang]:        [  1.017990,   0.673054,   2.378326]
  
  Exciton analysis of the difference density matrix
    <r_h> [Ang]:                  [  0.000000,  -0.000000,   6.820694]
    <r_e> [Ang]:                  [ -0.000000,  -0.000000,  -0.410902]
    |<r_e - r_h>| [Ang]:            7.231596
    Hole size [Ang]:                4.635817
      Cartesian components [Ang]: [  0.874836,   0.791759,   4.483144]
    Electron size [Ang]:            3.310568
      Cartesian components [Ang]: [  1.984764,   1.871475,   1.875675]

  Transition density matrix analysis:
  -----------------------------------
  
  CT numbers (Mulliken)
    omega =     0.9060
    <Phe> =     0.0001
  
  Exciton analysis of the transition density matrix
    Trans. dipole moment [D]:             0.000000
      Cartesian components [D]:         [  0.000000,   0.000000,  -0.000000]
    <r_h> [Ang]:                        [  0.000000,   0.000000,   9.366939]
    <r_e> [Ang]:                        [ -0.000000,  -0.000000,  -0.588121]
    |<r_e - r_h>| [Ang]:                  9.955061
    Hole size [Ang]:                      1.333396
      Cartesian components [Ang]:       [  0.659185,   0.657474,   0.954540]
    Electron size [Ang]:                  3.238664
      Cartesian components [Ang]:       [  2.156349,   2.089322,   1.214016]
    RMS electron-hole separation [Ang]:  10.553184
      Cartesian components [Ang]:       [  2.254768,   2.190324,  10.074135]
    Covariance(r_h, r_e) [Ang^2]:         0.000209
    Correlation coefficient:              0.000048
    Center-of-mass size [Ang]:            1.751236
      Cartesian components [Ang]:       [  1.127470,   1.095167,   0.772171]

  Decomposition into state-averaged NTOs
    H- 0 -> L+ 1: -0.4612 ( 42.5%)
    H- 0 -> L+ 2: -0.4318 ( 37.3%)
    H- 0 -> L+ 0: -0.2322 ( 10.8%)
                   omega =  90.6%
  ----------------------------------------------------------------------------


  Excited state 3 (singlet, A2)                                    [converged]
  ----------------------------------------------------------------------------
  Term symbol:  3 (1) A2                                    R^2 =  1.40871e-10

  Total energy:                                            -78.6388264632 a.u.
  Excitation energy:                                               3.972187 eV

  Osc. strength:                                                      0.000000
  Trans. dip. moment [a.u.]:           [  -0.000000,    0.000000,   -0.000000]
  <i|r^2|0> [a.u.]:                    [  -0.000000,    0.000000,   -0.000000]

  Dip. moment [a.u.]:                  [   0.000000,    0.000000,   23.093027]
  Total dipole [Debye]:                                              58.696631
  <r^2> [a.u.]:                        [ 121.537786,   82.933366,   91.676724]
  Total <r^2> [a.u.]:                                               296.147876

  V1^2 = 0.0000, V2^2 = 1.0000

  Important amplitudes:
      occ i      occ j       vir a       vir b          v   
    ---------------------------------------------------------
     5 (A1) A   5 (A1) B    4 (B1) A    2 (B2) B     -0.3535
     5 (A1) A               1 (A2) A                 -0.0023
    ---------------------------------------------------------

  Density matrix analysis:
  ------------------------
  NOs
    Occupation of frontier NOs:
       1.0002   1.0005
    Number of electrons: 18.000000
    Number of unpaired electrons: n_u =  2.40720, n_u,nl =  2.05011
    NO participation ratio (PR_NO):  2.880700
  
  
  Mulliken Population Analysis
  Atom      Charge (e)              h+              e-           Del q
  --------------------------------------------------------------------
   1 C       -1.165026        0.003595       -0.993634       -0.990039
   2 C       -1.165026        0.003595       -0.993634       -0.990039
   3 H        0.100946        0.000129        0.005272        0.005401
   4 H        0.100946        0.000129        0.005272        0.005401
   5 H        0.063296        0.000109       -0.011632       -0.011523
   6 H        0.063296        0.000109       -0.011632       -0.011523
   7 H        1.001567        1.992323       -0.000000        1.992323
  --------------------------------------------------------------------
  Sum:       -1.000000        1.999988       -1.999988        0.000000
  
  Multipole moment analysis of the density matrix
    Molecular charge:                      -1.000000
    Number of electrons:                   18.000000
      Center of electronic charge [Ang]: [ -0.000000,  -0.000000,  -0.678906]
    Total nuclear charge:                  17.000000
      Center of nuclear charge [Ang]:    [  0.000000,   0.000000,  -0.000000]
    Dipole moment [D]:                     58.696613
      Cartesian components [D]:          [  0.000000,   0.000000,  58.696613]
    RMS size of the density [Ang]:         2.036247
      Cartesian components [Ang]:        [  1.375056,   1.135872,   0.982504]
  
  Exciton analysis of the difference density matrix
    <r_h> [Ang]:                  [  0.000000,   0.000000,   9.377150]
    <r_e> [Ang]:                  [ -0.000000,  -0.000000,  -1.381026]
    |<r_e - r_h>| [Ang]:           10.758176
    Hole size [Ang]:                1.286431
      Cartesian components [Ang]: [  0.655569,   0.654204,   0.892833]
    Electron size [Ang]:            5.038089
      Cartesian components [Ang]: [  3.212544,   3.155364,   2.259553]

  Transition density matrix analysis:
  -----------------------------------
  
  CT numbers (Mulliken)
    omega =     0.0000
    <Phe> =     0.0078
  
  Exciton analysis of the transition density matrix
    Trans. dipole moment [D]:             0.000000
      Cartesian components [D]:         [ -0.000000,   0.000000,  -0.000000]
    <r_h> [Ang]:                        [ -0.000000,   0.000000,   9.240555]
    <r_e> [Ang]:                        [  0.000000,  -0.000000,  -0.591510]
    |<r_e - r_h>| [Ang]:                  9.832065
    Hole size [Ang]:                      1.870185
      Cartesian components [Ang]:       [  0.751506,   0.712944,   1.557093]
    Electron size [Ang]:                  5.825848
      Cartesian components [Ang]:       [  3.820115,   3.808282,   2.200957]
    RMS electron-hole separation [Ang]:  11.581553
      Cartesian components [Ang]:       [  3.906490,   3.872430,  10.191958]
    Covariance(r_h, r_e) [Ang^2]:        -0.012384
    Correlation coefficient:             -0.001137
    Center-of-mass size [Ang]:            3.058322
      Cartesian components [Ang]:       [  1.940066,   1.938227,   1.353792]

  Decomposition into state-averaged NTOs
                   omega =   0.0%
  ----------------------------------------------------------------------------


  Excited state 4 (singlet, A2)                                    [converged]
  ----------------------------------------------------------------------------
  Term symbol:  4 (1) A2                                    R^2 =  1.93811e-08

  Total energy:                                            -78.6097667924 a.u.
  Excitation energy:                                               4.762941 eV

  Osc. strength:                                                      0.000000
  Trans. dip. moment [a.u.]:           [  -0.000000,    0.000000,   -0.000000]
  <i|r^2|0> [a.u.]:                    [  -0.000000,   -0.000000,    0.000000]

  Dip. moment [a.u.]:                  [  -0.000000,   -0.000000,   20.616433]
  Total dipole [Debye]:                                              52.401757
  <r^2> [a.u.]:                        [ 113.977845,   71.057147,  110.987682]
  Total <r^2> [a.u.]:                                               296.022674

  V1^2 = 0.0324, V2^2 = 0.9676

  Important amplitudes:
      occ i      occ j       vir a       vir b          v   
    ---------------------------------------------------------
     5 (A1) A   5 (A1) B    6 (A1) A    1 (A2) B      0.3425
     5 (A1) A               1 (A2) A                 -0.1264
    ---------------------------------------------------------

  Density matrix analysis:
  ------------------------
  NOs
    Occupation of frontier NOs:
       0.9938   0.9969
    Number of electrons: 18.000000
    Number of unpaired electrons: n_u =  2.40885, n_u,nl =  2.04936
    NO participation ratio (PR_NO):  2.909656
  
  
  Mulliken Population Analysis
  Atom      Charge (e)              h+              e-           Del q
  --------------------------------------------------------------------
   1 C       -1.141083        0.001399       -0.967495       -0.966096
   2 C       -1.141083        0.001399       -0.967495       -0.966096
   3 H        0.087574       -0.000012       -0.007959       -0.007971
   4 H        0.087574       -0.000012       -0.007959       -0.007971
   5 H        0.061137        0.000141       -0.013823       -0.013682
   6 H        0.061137        0.000141       -0.013823       -0.013682
   7 H        0.984744        1.976058       -0.000559        1.975499
  --------------------------------------------------------------------
  Sum:       -1.000000        1.979114       -1.979114        0.000000
  
  Multipole moment analysis of the density matrix
    Molecular charge:                      -1.000000
    Number of electrons:                   18.000000
      Center of electronic charge [Ang]: [  0.000000,   0.000000,  -0.606097]
    Total nuclear charge:                  17.000000
      Center of nuclear charge [Ang]:    [  0.000000,   0.000000,  -0.000000]
    Dipole moment [D]:                     52.401741
      Cartesian components [D]:          [ -0.000000,  -0.000000,  52.401741]
    RMS size of the density [Ang]:         2.058619
      Cartesian components [Ang]:        [  1.331604,   1.051402,   1.165889]
  
  Exciton analysis of the difference density matrix
    <r_h> [Ang]:                  [  0.000000,  -0.000000,   9.397019]
    <r_e> [Ang]:                  [  0.000000,   0.000000,  -0.812429]
    |<r_e - r_h>| [Ang]:           10.209448
    Hole size [Ang]:                1.187514
      Cartesian components [Ang]: [  0.653203,   0.645068,   0.753262]
    Electron size [Ang]:            5.107161
      Cartesian components [Ang]: [  3.058102,   2.892155,   2.892499]

  Transition density matrix analysis:
  -----------------------------------
  
  CT numbers (Mulliken)
    omega =     0.0323
    <Phe> =     0.0006
  
  Exciton analysis of the transition density matrix
    Trans. dipole moment [D]:             0.000000
      Cartesian components [D]:         [ -0.000000,   0.000000,  -0.000000]
    <r_h> [Ang]:                        [  0.000000,   0.000000,   9.410356]
    <r_e> [Ang]:                        [  0.000000,  -0.000000,  -0.588224]
    |<r_e - r_h>| [Ang]:                  9.998580
    Hole size [Ang]:                      1.087657
      Cartesian components [Ang]:       [  0.622486,   0.622339,   0.638907]
    Electron size [Ang]:                  5.493561
      Cartesian components [Ang]:       [  3.611435,   3.585024,   2.069868]
    RMS electron-hole separation [Ang]:  11.460088
      Cartesian components [Ang]:       [  3.664667,   3.638635,  10.230551]
    Covariance(r_h, r_e) [Ang^2]:         0.000092
    Correlation coefficient:              0.000015
    Center-of-mass size [Ang]:            2.800107
      Cartesian components [Ang]:       [  1.832356,   1.819323,   1.083113]

  Decomposition into state-averaged NTOs
    H- 0 -> L+ 0: -0.1257 (  3.2%)
                   omega =   3.2%
  ----------------------------------------------------------------------------


  Excited state 5 (singlet, A2)                                    [converged]
  ----------------------------------------------------------------------------
  Term symbol:  5 (1) A2                                    R^2 =  4.45633e-09

  Total energy:                                            -78.6076704595 a.u.
  Excitation energy:                                               4.819985 eV

  Osc. strength:                                                      0.000000
  Trans. dip. moment [a.u.]:           [  -0.000000,    0.000000,   -0.000000]
  <i|r^2|0> [a.u.]:                    [  -0.000000,    0.000000,    0.000000]

  Dip. moment [a.u.]:                  [   0.000000,    0.000000,   17.365378]
  Total dipole [Debye]:                                              44.138396
  <r^2> [a.u.]:                        [ 114.282865,   79.001491,   98.747134]
  Total <r^2> [a.u.]:                                               292.031490

  V1^2 = 0.0005, V2^2 = 0.9995

  Important amplitudes:
      occ i      occ j       vir a       vir b          v   
    ---------------------------------------------------------
     5 (A1) A   5 (A1) B    5 (B1) A    2 (B2) B      0.3523
     5 (A1) A   5 (A1) B    6 (A1) A    1 (A2) B      0.0272
    ---------------------------------------------------------

  Density matrix analysis:
  ------------------------
  NOs
    Occupation of frontier NOs:
       0.9934   0.9937
    Number of electrons: 18.000000
    Number of unpaired electrons: n_u =  2.40867, n_u,nl =  2.05061
    NO participation ratio (PR_NO):  2.919108
  
  
  Mulliken Population Analysis
  Atom      Charge (e)              h+              e-           Del q
  --------------------------------------------------------------------
   1 C       -1.145703        0.003526       -0.974243       -0.970717
   2 C       -1.145703        0.003526       -0.974243       -0.970717
   3 H        0.071390        0.000126       -0.024282       -0.024155
   4 H        0.071390        0.000126       -0.024282       -0.024155
   5 H        0.073680        0.000107       -0.001246       -0.001139
   6 H        0.073680        0.000107       -0.001246       -0.001139
   7 H        1.001266        1.992044       -0.000023        1.992021
  --------------------------------------------------------------------
  Sum:       -1.000000        1.999563       -1.999563        0.000000
  
  Multipole moment analysis of the density matrix
    Molecular charge:                      -1.000000
    Number of electrons:                   18.000000
      Center of electronic charge [Ang]: [ -0.000000,  -0.000000,  -0.510520]
    Total nuclear charge:                  17.000000
      Center of nuclear charge [Ang]:    [  0.000000,   0.000000,  -0.000000]
    Dipole moment [D]:                     44.138383
      Cartesian components [D]:          [  0.000000,   0.000000,  44.138383]
    RMS size of the density [Ang]:         2.069431
      Cartesian components [Ang]:        [  1.333385,   1.108620,   1.129421]
  
  Exciton analysis of the difference density matrix
    <r_h> [Ang]:                  [  0.000000,   0.000000,   9.377861]
    <r_e> [Ang]:                  [ -0.000000,  -0.000000,   0.133201]
    |<r_e - r_h>| [Ang]:            9.244660
    Hole size [Ang]:                1.282970
      Cartesian components [Ang]: [  0.655356,   0.653951,   0.888183]
    Electron size [Ang]:            5.165903
      Cartesian components [Ang]: [  3.050615,   3.067145,   2.823637]

  Transition density matrix analysis:
  -----------------------------------
  
  CT numbers (Mulliken)
    omega =     0.0005
    <Phe> =     0.0008
  
  Exciton analysis of the transition density matrix
    Trans. dipole moment [D]:             0.000000
      Cartesian components [D]:         [ -0.000000,   0.000000,  -0.000000]
    <r_h> [Ang]:                        [  0.000000,   0.000000,   9.397378]
    <r_e> [Ang]:                        [  0.000000,  -0.000000,  -0.588135]
    |<r_e - r_h>| [Ang]:                  9.985513
    Hole size [Ang]:                      1.169132
      Cartesian components [Ang]:       [  0.636580,   0.634976,   0.747289]
    Electron size [Ang]:                  5.683161
      Cartesian components [Ang]:       [  3.732754,   3.711211,   2.142843]
    RMS electron-hole separation [Ang]:  11.549692
      Cartesian components [Ang]:       [  3.788922,   3.765257,  10.240230]
    Covariance(r_h, r_e) [Ang^2]:        -0.009869
    Correlation coefficient:             -0.001485
    Center-of-mass size [Ang]:            2.900235
      Cartesian components [Ang]:       [  1.892185,   1.882512,   1.134526]

  Decomposition into state-averaged NTOs
                   omega =   0.0%
  ----------------------------------------------------------------------------


  Excited state 6 (singlet, A2)                                    [converged]
  ----------------------------------------------------------------------------
  Term symbol:  6 (1) A2                                    R^2 =  1.24988e-08

  Total energy:                                            -78.5991425840 a.u.
  Excitation energy:                                               5.052040 eV

  Osc. strength:                                                      0.000000
  Trans. dip. moment [a.u.]:           [  -0.000000,    0.000000,   -0.000000]
  <i|r^2|0> [a.u.]:                    [  -0.000000,   -0.000000,    0.000000]

  Dip. moment [a.u.]:                  [  -0.000000,   -0.000000,   19.784784]
  Total dipole [Debye]:                                              50.287914
  <r^2> [a.u.]:                        [ 155.996038,   69.580762,   77.065528]
  Total <r^2> [a.u.]:                                               302.642328

  V1^2 = 0.0062, V2^2 = 0.9938

  Important amplitudes:
      occ i      occ j       vir a       vir b          v   
    ---------------------------------------------------------
     5 (A1) A   5 (A1) B    7 (A1) A    1 (A2) B     -0.3492
     5 (A1) A               1 (A2) A                 -0.0549
    ---------------------------------------------------------

  Density matrix analysis:
  ------------------------
  NOs
    Occupation of frontier NOs:
       1.0005   1.0008
    Number of electrons: 18.000000
    Number of unpaired electrons: n_u =  2.40612, n_u,nl =  2.04973
    NO participation ratio (PR_NO):  2.879880
  
  
  Mulliken Population Analysis
  Atom      Charge (e)              h+              e-           Del q
  --------------------------------------------------------------------
   1 C       -1.173207        0.003123       -1.001344       -0.998221
   2 C       -1.173207        0.003123       -1.001344       -0.998221
   3 H        0.094538        0.000084       -0.001092       -0.001007
   4 H        0.094538        0.000084       -0.001092       -0.001007
   5 H        0.079388        0.000101        0.004468        0.004569
   6 H        0.079388        0.000101        0.004468        0.004569
   7 H        0.998562        1.989409       -0.000091        1.989318
  --------------------------------------------------------------------
  Sum:       -1.000000        1.996026       -1.996026        0.000000
  
  Multipole moment analysis of the density matrix
    Molecular charge:                      -1.000000
    Number of electrons:                   18.000000
      Center of electronic charge [Ang]: [  0.000000,   0.000000,  -0.581648]
    Total nuclear charge:                  17.000000
      Center of nuclear charge [Ang]:    [  0.000000,   0.000000,  -0.000000]
    Dipole moment [D]:                     50.287899
      Cartesian components [D]:          [ -0.000000,  -0.000000,  50.287899]
    RMS size of the density [Ang]:         2.090439
      Cartesian components [Ang]:        [  1.557836,   1.040422,   0.927688]
  
  Exciton analysis of the difference density matrix
    <r_h> [Ang]:                  [  0.000000,  -0.000000,   9.381260]
    <r_e> [Ang]:                  [  0.000000,   0.000000,  -0.521203]
    |<r_e - r_h>| [Ang]:            9.902463
    Hole size [Ang]:                1.268070
      Cartesian components [Ang]: [  0.656667,   0.652056,   0.866957]
    Electron size [Ang]:            5.275944
      Cartesian components [Ang]: [  3.895608,   2.845901,   2.135573]

  Transition density matrix analysis:
  -----------------------------------
  
  CT numbers (Mulliken)
    omega =     0.0061
    <Phe> =     0.0006
  
  Exciton analysis of the transition density matrix
    Trans. dipole moment [D]:             0.000000
      Cartesian components [D]:         [ -0.000000,   0.000000,  -0.000000]
    <r_h> [Ang]:                        [  0.000000,   0.000000,   9.410252]
    <r_e> [Ang]:                        [  0.000000,  -0.000000,  -0.588236]
    |<r_e - r_h>| [Ang]:                  9.998488
    Hole size [Ang]:                      1.087187
      Cartesian components [Ang]:       [  0.621199,   0.621092,   0.640572]
    Electron size [Ang]:                  5.523413
      Cartesian components [Ang]:       [  3.630627,   3.604827,   2.081312]
    RMS electron-hole separation [Ang]:  11.474311
      Cartesian components [Ang]:       [  3.683385,   3.657937,  10.232887]
    Covariance(r_h, r_e) [Ang^2]:         0.000009
    Correlation coefficient:              0.000001
    Center-of-mass size [Ang]:            2.814697
      Cartesian components [Ang]:       [  1.841694,   1.828972,   1.088826]

  Decomposition into state-averaged NTOs
                   omega =   0.6%
  ----------------------------------------------------------------------------


  Excited state 7 (singlet, A2)                                    [converged]
  ----------------------------------------------------------------------------
  Term symbol:  7 (1) A2                                    R^2 =  1.29527e-06

  Total energy:                                            -78.5713226526 a.u.
  Excitation energy:                                               5.809059 eV

  Osc. strength:                                                      0.000000
  Trans. dip. moment [a.u.]:           [   0.000000,   -0.000000,   -0.000000]
  <i|r^2|0> [a.u.]:                    [   0.000000,    0.000000,    0.000000]

  Dip. moment [a.u.]:                  [  -0.000000,   -0.000000,    1.833502]
  Total dipole [Debye]:                                               4.660298
  <r^2> [a.u.]:                        [  69.854730,   32.983287,  358.252927]
  Total <r^2> [a.u.]:                                               461.090944

  V1^2 = 0.9032, V2^2 = 0.0968

  Important amplitudes:
      occ i      occ j       vir a       vir b          v   
    ---------------------------------------------------------
     5 (A1) A               3 (A2) A                 -0.6573
     5 (A1) A               2 (A2) A                  0.1339
    ---------------------------------------------------------

  Density matrix analysis:
  ------------------------
  NOs
    Occupation of frontier NOs:
       0.9626   0.9792
    Number of electrons: 18.000000
    Number of unpaired electrons: n_u =  2.44352, n_u,nl =  2.06063
    NO participation ratio (PR_NO):  3.138930
  
  
  Mulliken Population Analysis
  Atom      Charge (e)              h+              e-           Del q
  --------------------------------------------------------------------
   1 C       -0.609113        0.116350       -0.550477       -0.434126
   2 C       -0.609113        0.116350       -0.550477       -0.434126
   3 H        0.050444        0.000670       -0.045772       -0.045102
   4 H        0.050444        0.000670       -0.045772       -0.045102
   5 H        0.040691        0.001323       -0.035450       -0.034128
   6 H        0.040691        0.001323       -0.035450       -0.034128
   7 H        0.035955        1.047963       -0.021253        1.026710
  --------------------------------------------------------------------
  Sum:       -1.000000        1.284650       -1.284650        0.000000
  
  Multipole moment analysis of the density matrix
    Molecular charge:                      -1.000000
    Number of electrons:                   18.000000
      Center of electronic charge [Ang]: [  0.000000,   0.000000,  -0.053903]
    Total nuclear charge:                  17.000000
      Center of nuclear charge [Ang]:    [  0.000000,   0.000000,  -0.000000]
    Dipole moment [D]:                     4.660296
      Cartesian components [D]:          [ -0.000000,  -0.000000,   4.660296]
    RMS size of the density [Ang]:         2.677751
      Cartesian components [Ang]:        [  1.042468,   0.716328,   2.360188]
  
  Exciton analysis of the difference density matrix
    <r_h> [Ang]:                  [ -0.000000,  -0.000000,   7.582483]
    <r_e> [Ang]:                  [  0.000000,   0.000000,  -0.408924]
    |<r_e - r_h>| [Ang]:            7.991408
    Hole size [Ang]:                4.154992
      Cartesian components [Ang]: [  0.855136,   0.790928,   3.988375]
    Electron size [Ang]:            3.682411
      Cartesian components [Ang]: [  2.205335,   2.138101,   2.031053]

  Transition density matrix analysis:
  -----------------------------------
  
  CT numbers (Mulliken)
    omega =     0.8928
    <Phe> =     0.0000
  
  Exciton analysis of the transition density matrix
    Trans. dipole moment [D]:             0.000000
      Cartesian components [D]:         [  0.000000,  -0.000000,  -0.000000]
    <r_h> [Ang]:                        [  0.000000,   0.000000,   9.366621]
    <r_e> [Ang]:                        [  0.000000,   0.000000,  -0.588200]
    |<r_e - r_h>| [Ang]:                  9.954822
    Hole size [Ang]:                      1.335011
      Cartesian components [Ang]:       [  0.659421,   0.657701,   0.956476]
    Electron size [Ang]:                  3.541077
      Cartesian components [Ang]:       [  2.334843,   2.305456,   1.331395]
    RMS electron-hole separation [Ang]:  10.649876
      Cartesian components [Ang]:       [  2.426157,   2.397432,  10.088901]
    Covariance(r_h, r_e) [Ang^2]:         0.000053
    Correlation coefficient:              0.000011
    Center-of-mass size [Ang]:            1.892194
      Cartesian components [Ang]:       [  1.213097,   1.198719,   0.819674]

  Decomposition into state-averaged NTOs
    H- 0 -> L+ 2: -0.4860 ( 47.2%)
    H- 0 -> L+ 1:  0.4583 ( 42.0%)
                   omega =  89.3%
  ----------------------------------------------------------------------------


  Excited state 8 (singlet, A2)                                    [converged]
  ----------------------------------------------------------------------------
  Term symbol:  8 (1) A2                                    R^2 =  8.10675e-09

  Total energy:                                            -78.5597936563 a.u.
  Excitation energy:                                               6.122779 eV

  Osc. strength:                                                      0.000000
  Trans. dip. moment [a.u.]:           [   0.000000,    0.000000,   -0.000000]
  <i|r^2|0> [a.u.]:                    [  -0.000000,   -0.000000,    0.000000]

  Dip. moment [a.u.]:                  [   0.000000,   -0.000000,   19.656540]
  Total dipole [Debye]:                                              49.961949
  <r^2> [a.u.]:                        [ 108.175034,   67.195443,   67.993809]
  Total <r^2> [a.u.]:                                               243.364285

  V1^2 = 0.0006, V2^2 = 0.9994

  Important amplitudes:
      occ i      occ j       vir a       vir b          v   
    ---------------------------------------------------------
     5 (A1) A   5 (A1) B    8 (A1) A    1 (A2) B      0.3534
     5 (A1) A               1 (A2) A                 -0.0161
    ---------------------------------------------------------

  Density matrix analysis:
  ------------------------
  NOs
    Occupation of frontier NOs:
       1.0010   1.0028
    Number of electrons: 18.000000
    Number of unpaired electrons: n_u =  2.40111, n_u,nl =  2.04963
    NO participation ratio (PR_NO):  2.874961
  
  
  Mulliken Population Analysis
  Atom      Charge (e)              h+              e-           Del q
  --------------------------------------------------------------------
   1 C       -1.304805        0.003541       -1.133360       -1.129819
   2 C       -1.304805        0.003541       -1.133360       -1.129819
   3 H        0.153318        0.000087        0.057685        0.057772
   4 H        0.153318        0.000087        0.057685        0.057772
   5 H        0.150805        0.000134        0.075852        0.075986
   6 H        0.150805        0.000134        0.075852        0.075986
   7 H        1.001366        1.992134       -0.000012        1.992122
  --------------------------------------------------------------------
  Sum:       -1.000000        1.999657       -1.999657        0.000000
  
  Multipole moment analysis of the density matrix
    Molecular charge:                      -1.000000
    Number of electrons:                   18.000000
      Center of electronic charge [Ang]: [ -0.000000,   0.000000,  -0.577877]
    Total nuclear charge:                  17.000000
      Center of nuclear charge [Ang]:    [  0.000000,   0.000000,  -0.000000]
    Dipole moment [D]:                     49.961934
      Cartesian components [D]:          [  0.000000,  -0.000000,  49.961934]
    RMS size of the density [Ang]:         1.857985
      Cartesian components [Ang]:        [  1.297264,   1.022433,   0.850792]
  
  Exciton analysis of the difference density matrix
    <r_h> [Ang]:                  [  0.000000,   0.000000,   9.376842]
    <r_e> [Ang]:                  [ -0.000000,   0.000000,  -0.473701]
    |<r_e - r_h>| [Ang]:            9.850543
    Hole size [Ang]:                1.290109
      Cartesian components [Ang]: [  0.655145,   0.653753,   0.898762]
    Electron size [Ang]:            4.434733
      Cartesian components [Ang]: [  2.906927,   2.784492,   1.860979]

  Transition density matrix analysis:
  -----------------------------------
  
  CT numbers (Mulliken)
    omega =     0.0006
    <Phe> =     0.0006
  
  Exciton analysis of the transition density matrix
    Trans. dipole moment [D]:             0.000000
      Cartesian components [D]:         [  0.000000,   0.000000,  -0.000000]
    <r_h> [Ang]:                        [  0.000000,   0.000000,   9.408793]
    <r_e> [Ang]:                        [  0.000000,   0.000000,  -0.588281]
    |<r_e - r_h>| [Ang]:                  9.997074
    Hole size [Ang]:                      1.090348
      Cartesian components [Ang]:       [  0.616741,   0.616563,   0.654477]
    Electron size [Ang]:                  4.892509
      Cartesian components [Ang]:       [  3.222336,   3.188243,   1.840733]
    RMS electron-hole separation [Ang]:  11.183335
      Cartesian components [Ang]:       [  3.280820,   3.247309,  10.186176]
    Covariance(r_h, r_e) [Ang^2]:         0.000000
    Correlation coefficient:              0.000000
    Center-of-mass size [Ang]:            2.506267
      Cartesian components [Ang]:       [  1.640416,   1.623659,   0.976803]

  Decomposition into state-averaged NTOs
                   omega =   0.1%
  ----------------------------------------------------------------------------


  Excited state 9 (singlet, A2)                                    [converged]
  ----------------------------------------------------------------------------
  Term symbol:  9 (1) A2                                    R^2 =  4.94420e-08

  Total energy:                                            -78.5366303545 a.u.
  Excitation energy:                                               6.753084 eV

  Osc. strength:                                                      0.000000
  Trans. dip. moment [a.u.]:           [   0.000000,   -0.000000,    0.000000]
  <i|r^2|0> [a.u.]:                    [   0.000000,    0.000000,   -0.000000]

  Dip. moment [a.u.]:                  [   0.000000,    0.000000,   20.353243]
  Total dipole [Debye]:                                              51.732792
  <r^2> [a.u.]:                        [  85.673978,   42.727554,  105.757823]
  Total <r^2> [a.u.]:                                               234.159355

  V1^2 = 0.0452, V2^2 = 0.9548

  Important amplitudes:
      occ i      occ j       vir a       vir b          v   
    ---------------------------------------------------------
     5 (A1) A   5 (A1) B    6 (A1) A    2 (A2) B     -0.3415
     5 (A1) A               2 (A2) A                  0.1215
    ---------------------------------------------------------

  Density matrix analysis:
  ------------------------
  NOs
    Occupation of frontier NOs:
       0.9869   1.0047
    Number of electrons: 18.000000
    Number of unpaired electrons: n_u =  2.40009, n_u,nl =  2.04662
    NO participation ratio (PR_NO):  2.913822
  
  
  Mulliken Population Analysis
  Atom      Charge (e)              h+              e-           Del q
  --------------------------------------------------------------------
   1 C       -1.125817        0.002693       -0.953523       -0.950831
   2 C       -1.125817        0.002693       -0.953523       -0.950831
   3 H        0.083567        0.000035       -0.012014       -0.011979
   4 H        0.083567        0.000035       -0.012014       -0.011979
   5 H        0.057116        0.000054       -0.017757       -0.017703
   6 H        0.057116        0.000054       -0.017757       -0.017703
   7 H        0.970268        1.961551       -0.000527        1.961024
  --------------------------------------------------------------------
  Sum:       -1.000000        1.967115       -1.967115        0.000000
  
  Multipole moment analysis of the density matrix
    Molecular charge:                      -1.000000
    Number of electrons:                   18.000000
      Center of electronic charge [Ang]: [ -0.000000,  -0.000000,  -0.598360]
    Total nuclear charge:                  17.000000
      Center of nuclear charge [Ang]:    [  0.000000,   0.000000,  -0.000000]
    Dipole moment [D]:                     51.732777
      Cartesian components [D]:          [  0.000000,   0.000000,  51.732777]
    RMS size of the density [Ang]:         1.812406
      Cartesian components [Ang]:        [  1.154488,   0.815303,   1.134573]
  
  Exciton analysis of the difference density matrix
    <r_h> [Ang]:                  [  0.000000,  -0.000000,   9.384587]
    <r_e> [Ang]:                  [ -0.000000,  -0.000000,  -0.816338]
    |<r_e - r_h>| [Ang]:           10.200925
    Hole size [Ang]:                1.239659
      Cartesian components [Ang]: [  0.654811,   0.646599,   0.830593]
    Electron size [Ang]:            4.096233
      Cartesian components [Ang]: [  2.319341,   2.093362,   2.649078]

  Transition density matrix analysis:
  -----------------------------------
  
  CT numbers (Mulliken)
    omega =     0.0450
    <Phe> =     0.0001
  
  Exciton analysis of the transition density matrix
    Trans. dipole moment [D]:             0.000000
      Cartesian components [D]:         [  0.000000,  -0.000000,   0.000000]
    <r_h> [Ang]:                        [  0.000000,   0.000000,   9.395773]
    <r_e> [Ang]:                        [  0.000000,   0.000000,  -0.588076]
    |<r_e - r_h>| [Ang]:                  9.983849
    Hole size [Ang]:                      1.175681
      Cartesian components [Ang]:       [  0.634691,   0.634001,   0.759893]
    Electron size [Ang]:                  4.174047
      Cartesian components [Ang]:       [  2.745254,   2.722263,   1.573383]
    RMS electron-hole separation [Ang]:  10.884946
      Cartesian components [Ang]:       [  2.817660,   2.795112,  10.135590]
    Covariance(r_h, r_e) [Ang^2]:         0.000047
    Correlation coefficient:              0.000010
    Center-of-mass size [Ang]:            2.168236
      Cartesian components [Ang]:       [  1.408837,   1.397560,   0.873642]

  Decomposition into state-averaged NTOs
    H- 0 -> L+ 1:  0.1474 (  4.3%)
                   omega =   4.5%
  ----------------------------------------------------------------------------


  Excited state 10 (singlet, A2)                                    [converged]
  ----------------------------------------------------------------------------
  Term symbol:  10 (1) A2                                   R^2 =  4.58203e-09

  Total energy:                                            -78.5323615071 a.u.
  Excitation energy:                                               6.869246 eV

  Osc. strength:                                                      0.000000
  Trans. dip. moment [a.u.]:           [  -0.000000,   -0.000000,    0.000000]
  <i|r^2|0> [a.u.]:                    [  -0.000000,   -0.000000,   -0.000000]

  Dip. moment [a.u.]:                  [  -0.000000,   -0.000000,   20.454104]
  Total dipole [Debye]:                                              51.989156
  <r^2> [a.u.]:                        [ 112.859830,   76.207527,   75.504446]
  Total <r^2> [a.u.]:                                               264.571803

  V1^2 = 0.0000, V2^2 = 1.0000

  Important amplitudes:
      occ i      occ j       vir a       vir b          v   
    ---------------------------------------------------------
     5 (A1) A   5 (A1) B    6 (B1) A    2 (B2) B      0.3536
     5 (A1) A               3 (A2) A                  0.0011
    ---------------------------------------------------------

  Density matrix analysis:
  ------------------------
  NOs
    Occupation of frontier NOs:
       1.0005   1.0013
    Number of electrons: 18.000000
    Number of unpaired electrons: n_u =  2.40508, n_u,nl =  2.05003
    NO participation ratio (PR_NO):  2.878690
  
  
  Mulliken Population Analysis
  Atom      Charge (e)              h+              e-           Del q
  --------------------------------------------------------------------
   1 C       -1.133444        0.003594       -0.962051       -0.958457
   2 C       -1.133444        0.003594       -0.962051       -0.958457
   3 H        0.065846        0.000129       -0.029829       -0.029700
   4 H        0.065846        0.000129       -0.029829       -0.029700
   5 H        0.066809        0.000109       -0.008119       -0.008010
   6 H        0.066809        0.000109       -0.008119       -0.008010
   7 H        1.001578        1.992334       -0.000000        1.992334
  --------------------------------------------------------------------
  Sum:       -1.000000        1.999997       -1.999997        0.000000
  
  Multipole moment analysis of the density matrix
    Molecular charge:                      -1.000000
    Number of electrons:                   18.000000
      Center of electronic charge [Ang]: [  0.000000,   0.000000,  -0.601325]
    Total nuclear charge:                  17.000000
      Center of nuclear charge [Ang]:    [  0.000000,   0.000000,  -0.000000]
    Dipole moment [D]:                     51.989140
      Cartesian components [D]:          [ -0.000000,  -0.000000,  51.989140]
    RMS size of the density [Ang]:         1.937625
      Cartesian components [Ang]:        [  1.325057,   1.088839,   0.901688]
  
  Exciton analysis of the difference density matrix
    <r_h> [Ang]:                  [  0.000000,  -0.000000,   9.377158]
    <r_e> [Ang]:                  [  0.000000,   0.000000,  -0.682738]
    |<r_e - r_h>| [Ang]:           10.059896
    Hole size [Ang]:                1.286395
      Cartesian components [Ang]: [  0.655566,   0.654201,   0.892786]
    Electron size [Ang]:            4.733146
      Cartesian components [Ang]: [  3.017507,   3.002426,   2.069484]

  Transition density matrix analysis:
  -----------------------------------
  
  CT numbers (Mulliken)
    omega =     0.0000
    <Phe> =     0.0022
  
  Exciton analysis of the transition density matrix
    Trans. dipole moment [D]:             0.000000
      Cartesian components [D]:         [ -0.000000,  -0.000000,   0.000000]
    <r_h> [Ang]:                        [ -0.000000,   0.000000,   9.286629]
    <r_e> [Ang]:                        [  0.000000,   0.000000,  -0.588959]
    |<r_e - r_h>| [Ang]:                  9.875587
    Hole size [Ang]:                      1.659712
      Cartesian components [Ang]:       [  0.688371,   0.742400,   1.315154]
    Electron size [Ang]:                  3.489743
      Cartesian components [Ang]:       [  2.309580,   2.262088,   1.314193]
    RMS electron-hole separation [Ang]:  10.602988
      Cartesian components [Ang]:       [  2.411904,   2.377650,  10.047530]
    Covariance(r_h, r_e) [Ang^2]:         0.018410
    Correlation coefficient:              0.003179
    Center-of-mass size [Ang]:            1.934539
      Cartesian components [Ang]:       [  1.204030,   1.191971,   0.933788]

  Decomposition into state-averaged NTOs
                   omega =   0.0%
  ----------------------------------------------------------------------------


--------------------------------------------------------------------------------
  Time of ADC calculation:  CPU 94.02 s  wall 27.64 s
================================================================================
 
 --------------------------------------------------------------
             Orbital Energies (a.u.) and Symmetries
 --------------------------------------------------------------
 
 Alpha MOs, Restricted
 -- Occupied --                  
-11.184 -11.182  -0.989  -0.729  -0.607  -0.514  -0.462  -0.324
  1 A1    1 B1    2 A1    2 B1    3 A1    4 A1    3 B1    1 B2                 
  0.020
  5 A1                                                                         
 -- Virtual --                   
  0.087   0.099   0.100   0.111   0.115   0.118   0.154   0.184
  4 B1    2 B2    6 A1    1 A2    7 A1    5 B1    8 A1    2 A2                 
  0.194   0.230   0.246   0.251   0.262   0.319   0.327   0.328
  6 B1    9 A1    7 B1    3 B2   10 A1   11 A1    3 A2    8 B1                 
  0.394   0.402   0.528   0.563   0.753   0.839   0.914   0.936
 12 A1    9 B1   10 B1   11 B1   13 A1   14 A1   15 A1    4 B2                 
  0.950   0.986   0.991   1.031   1.055   1.081   1.106   1.167
 16 A1   12 B1    4 A2   13 B1   17 A1   18 A1   14 B1    5 B2                 
  1.337   1.338   1.388   1.399   1.660   1.668   1.752   1.904
  6 B2    5 A2   15 B1   16 B1   19 A1   17 B1   20 A1    6 A2                 
  1.964   1.964   1.964   1.966   1.992   2.042   2.070   2.098
 18 B1    7 B2   21 A1   19 B1    8 B2   22 A1    9 B2   23 A1                 
  2.224   2.343   2.465   2.496   2.605   2.625   2.852   2.855
  7 A2   20 B1    8 A2   24 A1   21 B1   22 B1   25 A1   26 A1                 
  3.313   3.394
 23 B1   24 B1                                                                 
 
 Beta MOs, Restricted
 -- Occupied --                  
-11.184 -11.182  -0.989  -0.729  -0.607  -0.514  -0.462  -0.324
  1 A1    1 B1    2 A1    2 B1    3 A1    4 A1    3 B1    1 B2                 
  0.020
  5 A1                                                                         
 -- Virtual --                   
  0.087   0.099   0.100   0.111   0.115   0.118   0.154   0.184
  4 B1    2 B2    6 A1    1 A2    7 A1    5 B1    8 A1    2 A2                 
  0.194   0.230   0.246   0.251   0.262   0.319   0.327   0.328
  6 B1    9 A1    7 B1    3 B2   10 A1   11 A1    3 A2    8 B1                 
  0.394   0.402   0.528   0.563   0.753   0.839   0.914   0.936
 12 A1    9 B1   10 B1   11 B1   13 A1   14 A1   15 A1    4 B2                 
  0.950   0.986   0.991   1.031   1.055   1.081   1.106   1.167
 16 A1   12 B1    4 A2   13 B1   17 A1   18 A1   14 B1    5 B2                 
  1.337   1.338   1.388   1.399   1.660   1.668   1.752   1.904
  6 B2    5 A2   15 B1   16 B1   19 A1   17 B1   20 A1    6 A2                 
  1.964   1.964   1.964   1.966   1.992   2.042   2.070   2.098
 18 B1    7 B2   21 A1   19 B1    8 B2   22 A1    9 B2   23 A1                 
  2.224   2.343   2.465   2.496   2.605   2.625   2.852   2.855
  7 A2   20 B1    8 A2   24 A1   21 B1   22 B1   25 A1   26 A1                 
  3.313   3.394
 23 B1   24 B1                                                                 
 --------------------------------------------------------------
 
          Ground-State Mulliken Net Atomic Charges

     Atom                 Charge (a.u.)
  ----------------------------------------
      1 C                    -0.159925
      2 C                    -0.159925
      3 H                     0.088434
      4 H                     0.088434
      5 H                     0.067660
      6 H                     0.067660
      7 H                    -0.992337
  ----------------------------------------
  Sum of atomic charges =    -1.000000

 -----------------------------------------------------------------
                    Cartesian Multipole Moments
 -----------------------------------------------------------------
    Charge (ESU x 10^10)
                -4.8032
    Dipole Moment (Debye)
         X       0.0000      Y      -0.0000      Z     -44.7257
       Tot      44.7257
    Quadrupole Moments (Debye-Ang)
        XX     -17.0745     XY       0.0000     YY     -20.2395
        XZ      -0.0000     YZ       0.0000     ZZ    -438.9854
    Octopole Moments (Debye-Ang^2)
       XXX       0.0000    XXY      -0.0000    XYY      -0.0000
       YYY      -0.0000    XXZ     -29.0133    XYZ      -0.0000
       YYZ     -27.4683    XZZ      -0.0000    YZZ      -0.0000
       ZZZ   -4063.8295
    Hexadecapole Moments (Debye-Ang^3)
      XXXX     -76.8982   XXXY      -0.0000   XXYY     -18.3175
      XYYY       0.0000   YYYY     -29.4837   XXXZ      -0.0000
      XXYZ       0.0000   XYYZ       0.0000   YYYZ       0.0000
      XXZZ    -371.4749   XYZZ       0.0000   YYZZ    -367.7393
      XZZZ      -0.0000   YZZZ      -0.0000   ZZZZ  -39571.2849
 -----------------------------------------------------------------
 Total job time:  108.36s(wall), 137.55s(cpu) 
 Thu Feb 17 15:19:39 2022

        *************************************************************
        *                                                           *
        *  Thank you very much for using Q-Chem.  Have a nice day.  *
        *                                                           *
        *************************************************************


