/src/tsommerfeld/qchem/exe/qcprog.exe .input1.361111.16609.qcin.1 /src/jdavis/qchem.scratch/qchem16609/

                  Welcome to Q-Chem
     A Quantum Leap Into The Future Of Chemistry


 Q-Chem 5.4 (devel), Q-Chem, Inc., Pleasanton, CA (2021)

 E. Epifanovsky,  A. T. B. Gilbert,  Xintian Feng,  Joonho Lee,  Yuezhi Mao,  
 N. Mardirossian,  P. Pokhilko,  A. White,  M. Wormit,  M. P. Coons,  
 A. L. Dempwolff,  Zhengting Gan,  D. Hait,  P. R. Horn,  L. D. Jacobson,  
 I. Kaliman,  J. Kussmann,  A. W. Lange,  Ka Un Lao,  D. S. Levine,  Jie Liu,  
 S. C. McKenzie,  A. F. Morrison,  K. Nanda,  F. Plasser,  D. R. Rehn,  
 M. L. Vidal,  Zhi-Qiang You,  Ying Zhu,  B. Alam,  B. Albrecht,  
 A. Aldossary,  E. Alguire,  J. H. Andersen,  D. Barton,  K. Begam,  A. Behn,  
 Y. A. Bernard,  E. J. Berquist,  H. Burton,  A. Carreras,  K. Carter-Fenk,  
 R. Chakraborty,  A. D. Chien,  K. D. Closser,  V. Cofer-Shabica,  
 S. Dasgupta,  Jia Deng,  M. de Wergifosse,  M. Diedenhofen,  Hainam Do,  
 S. Ehlert,  Po-Tung Fang,  S. Fatehi,  Qingguo Feng,  T. Friedhoff,  
 J. Gayvert,  Qinghui Ge,  G. Gidofalvi,  M. Goldey,  J. Gomes,  
 C. Gonzalez-Espinoza,  S. Gulania,  A. Gunina,  M. W. D. Hanson-Heine,  
 P. H. P. Harbach,  A. W. Hauser,  M. F. Herbst,  M. Hernandez Vera,  
 M. Hodecker,  Z. C. Holden,  S. Houck,  Xunkun Huang,  Kerwin Hui,  
 B. C. Huynh,  M. Ivanov,  Hyunjun Ji,  Hanjie Jiang,  B. Kaduk,  S. Kaehler,  
 K. Khistyaev,  Jaehoon Kim,  P. Klunzinger,  Z. Koczor-Benda,  
 Joong Hoon Koh,  D. Kosenkov,  L. Koulias,  T. Kowalczyk,  C. M. Krauter,  
 K. Kue,  A. Kunitsa,  T. Kus,  A. Landau,  K. V. Lawler,  D. Lefrancois,  
 S. Lehtola,  Rain Li,  Yi-Pei Li,  Jiashu Liang,  M. Liebenthal,  
 Hung-Hsuan Lin,  You-Sheng Lin,  Fenglai Liu,  Kuan-Yu Liu,  
 M. Loipersberger,  A. Luenser,  A. Manjanath,  P. Manohar,  E. Mansoor,  
 S. F. Manzer,  Shan-Ping Mao,  A. V. Marenich,  T. Markovich,  S. Mason,  
 S. A. Maurer,  P. F. McLaughlin,  M. F. S. J. Menger,  J.-M. Mewes,  
 S. A. Mewes,  P. Morgante,  J. W. Mullinax,  K. J. Oosterbaan,  G. Paran,  
 Alexander C. Paul,  Suranjan K. Paul,  F. Pavosevic,  Zheng Pei,  S. Prager,  
 E. I. Proynov,  E. Ramos,  B. Rana,  A. E. Rask,  A. Rettig,  R. M. Richard,  
 F. Rob,  E. Rossomme,  T. Scheele,  M. Scheurer,  M. Schneider,  
 N. Sergueev,  S. M. Sharada,  W. Skomorowski,  D. W. Small,  C. J. Stein,  
 Yu-Chuan Su,  E. J. Sundstrom,  Zhen Tao,  J. Thirman,  T. Tsuchimochi,  
 N. M. Tubman,  S. P. Veccham,  O. Vydrov,  J. Wenzel,  J. Witte,  A. Yamada,  
 Kun Yao,  S. Yeganeh,  S. R. Yost,  A. Zech,  Igor Ying Zhang,  Xing Zhang,  
 Yu Zhang,  D. Zuev,  A. Aspuru-Guzik,  A. T. Bell,  N. A. Besley,  
 K. B. Bravaya,  B. R. Brooks,  D. Casanova,  Jeng-Da Chai,  S. Coriani,  
 C. J. Cramer,  A. E. DePrince, III,  R. A. DiStasio Jr.,  A. Dreuw,  
 B. D. Dunietz,  T. R. Furlani,  W. A. Goddard III,  S. Grimme,  
 S. Hammes-Schiffer,  T. Head-Gordon,  W. J. Hehre,  Chao-Ping Hsu,  
 T.-C. Jagau,  Yousung Jung,  A. Klamt,  Jing Kong,  D. S. Lambrecht,  
 WanZhen Liang,  N. J. Mayhall,  C. W. McCurdy,  J. B. Neaton,  
 C. Ochsenfeld,  J. A. Parkhill,  R. Peverati,  V. A. Rassolov,  Yihan Shao,  
 L. V. Slipchenko,  T. Stauch,  R. P. Steele,  J. E. Subotnik,  
 A. J. W. Thom,  A. Tkatchenko,  D. G. Truhlar,  T. Van Voorhis,  
 T. A. Wesolowski,  K. B. Whaley,  H. L. Woodcock III,  P. M. Zimmerman,  
 S. Faraji,  P. M. W. Gill,  M. Head-Gordon,  J. M. Herbert,  A. I. Krylov

 Additional authors for Version 5.4.1: 
 S. Kotaru,  Shaozhi Li,  Xiangyuan Li,  F. Matz,  A. Molle,  Haisheng Ren,  
 Yingli Su,  Hung-Yi Tsai,  C. Utku,  Fang Wang

 Contributors to earlier versions of Q-Chem not listed above: 
 R. D. Adamson,  B. Austin,  R. Baer,  J. Baker,  G. J. O. Beran,  
 K. Brandhorst,  S. T. Brown,  E. F. C. Byrd,  A. K. Chakraborty,  
 G. K. L. Chan,  Chun-Min Chang,  Yunqing Chen,  C.-L. Cheng,  
 Siu Hung Chien,  D. M. Chipman,  D. L. Crittenden,  H. Dachsel,  
 R. J. Doerksen,  A. D. Dutoi,  R. G. Edgar,  J. Fosso-Tande,  
 L. Fusti-Molnar,  D. Ghosh,  A. Ghysels,  A. Golubeva-Zadorozhnaya,  
 J. Gonthier,  M. S. Gordon,  S. R. Gwaltney,  G. Hawkins,  J. E. Herr,  
 A. Heyden,  S. Hirata,  E. G. Hohenstein,  G. Kedziora,  F. J. Keil,  
 C. Kelley,  Jihan Kim,  R. A. King,  R. Z. Khaliullin,  P. P. Korambath,  
 W. Kurlancheek,  A. Laurent,  A. M. Lee,  M. S. Lee,  S. V. Levchenko,  
 Ching Yeh Lin,  D. Liotard,  E. Livshits,  R. C. Lochan,  I. Lotan,  
 L. A. Martinez-Martinez,  P. E. Maslen,  N. Nair,  D. P. O'Neill,  
 D. Neuhauser,  E. Neuscamman,  C. M. Oana,  R. Olivares-Amaya,  R. Olson,  
 T. M. Perrine,  B. Peters,  P. A. Pieniazek,  A. Prociuk,  Y. M. Rhee,  
 J. Ritchie,  M. A. Rohrdanz,  E. Rosta,  N. J. Russ,  H. F. Schaefer III,  
 M. W. Schmidt,  N. E. Schultz,  S. Sharma,  N. Shenvi,  C. D. Sherrill,  
 A. C. Simmonett,  A. Sodt,  T. Stein,  D. Stuck,  K. S. Thanthiriwatte,  
 V. Vanovschi,  L. Vogt,  Tao Wang,  A. Warshel,  M. A. Watson,  
 C. F. Williams,  Q. Wu,  X. Xu,  Jun Yang,  W. Zhang,  Yan Zhao

 Please cite Q-Chem as follows:
 Y. Shao et al., Mol. Phys. 113, 184-215 (2015)
 DOI: 10.1080/00268976.2014.952696

 Q-Chem 5.4.1 for Intel X86 EM64T Linux

 Parts of Q-Chem use Armadillo 9.900.5 (Nocturnal Misbehaviour).
 http://arma.sourceforge.net/

 Q-Chem begins on Thu Feb 17 15:35:46 2022  

 Host: node01
0

     Scratch files written to /src/jdavis/qchem.scratch/qchem16609//
 Processing $rem in /src/tsommerfeld/qchem/config/preferences:
 Processing $rem in /home/jdavis/.qchemrc:

 Checking the input file for inconsistencies... 	...done.

--------------------------------------------------------------
User input:
--------------------------------------------------------------
$molecule
-1 1
C        -0.6645000000    0.0000000000   -0.2082049804
C         0.6645000000    0.0000000000   -0.2082049804
H        -1.1590800000    0.0000000000    0.7541440196
H         1.1590800000    0.0000000000    0.7541440196
H        -1.1590800000    0.0000000000   -1.1705529804
H         1.1590800000    0.0000000000   -1.1705529804
H         0.0000000000    0.0000000000    9.792
$end

$rem
   METHOD adc(2)
   BASIS gen
   PURECART 11
   EE_STATES [0,10,0,0]
   scf_convergence 8
   ADC_DAVIDSON_MAXITER 120
   ADC_DAVIDSON_MAXSUBSPACE 200
   adc_nguess_singles 100
   THRESH 14
   S2THRESH 14
   adc_davidson_conv 5
   adc_davidson_thresh 14
   THREADS 10
   MEM_TOTAL 95000
   STATE_ANALYSIS TRUE
$end
$basis
C 1
S   9   1.00
      6.665000D+03           6.920000D-04
      1.000000D+03           5.329000D-03
      2.280000D+02           2.707700D-02
      6.471000D+01           1.017180D-01
      2.106000D+01           2.747400D-01
      7.495000D+00           4.485640D-01
      2.797000D+00           2.850740D-01
      5.215000D-01           1.520400D-02
      1.596000D-01          -3.191000D-03
S   9   1.00
      6.665000D+03          -1.460000D-04
      1.000000D+03          -1.154000D-03
      2.280000D+02          -5.725000D-03
      6.471000D+01          -2.331200D-02
      2.106000D+01          -6.395500D-02
      7.495000D+00          -1.499810D-01
      2.797000D+00          -1.272620D-01
      5.215000D-01           5.445290D-01
      1.596000D-01           5.804960D-01
S   1   1.00
      1.596000D-01           1.000000D+00
S   1   1.00
      0.0469000              1.0000000
P   4   1.00
      9.439000D+00           3.810900D-02
      2.002000D+00           2.094800D-01
      5.456000D-01           5.085570D-01
      1.517000D-01           4.688420D-01
P   1   1.00
      1.517000D-01           1.000000D+00
P   1   1.00
      0.0589944      1.0000000
P   1   1.00
      0.0294972      1.0000000
D   1   1.00
      5.500000D-01           1.0000000
****
C 2
S   9   1.00
      6.665000D+03           6.920000D-04
      1.000000D+03           5.329000D-03
      2.280000D+02           2.707700D-02
      6.471000D+01           1.017180D-01
      2.106000D+01           2.747400D-01
      7.495000D+00           4.485640D-01
      2.797000D+00           2.850740D-01
      5.215000D-01           1.520400D-02
      1.596000D-01          -3.191000D-03
S   9   1.00
      6.665000D+03          -1.460000D-04
      1.000000D+03          -1.154000D-03
      2.280000D+02          -5.725000D-03
      6.471000D+01          -2.331200D-02
      2.106000D+01          -6.395500D-02
      7.495000D+00          -1.499810D-01
      2.797000D+00          -1.272620D-01
      5.215000D-01           5.445290D-01
      1.596000D-01           5.804960D-01
S   1   1.00
      1.596000D-01           1.000000D+00
S   1   1.00
      0.0469000              1.0000000
P   4   1.00
      9.439000D+00           3.810900D-02
      2.002000D+00           2.094800D-01
      5.456000D-01           5.085570D-01
      1.517000D-01           4.688420D-01
P   1   1.00
      1.517000D-01           1.000000D+00
P   1   1.00
      0.0589944      1.0000000
P   1   1.00
      0.0294972      1.0000000
D   1   1.00
      5.500000D-01           1.0000000
****
H 3
cc-pVDZ
****
H 4
cc-pVDZ
****
H 5
cc-pVDZ
****
H 6
cc-pVDZ
****
H 7
aug-cc-pVDZ
****
$end
--------------------------------------------------------------
 ----------------------------------------------------------------
             Standard Nuclear Orientation (Angstroms)
    I     Atom           X                Y                Z
 ----------------------------------------------------------------
    1      C      -0.6645000000    -0.0000000000    -0.5882474694
    2      C       0.6645000000     0.0000000000    -0.5882474694
    3      H      -1.1590800000    -0.0000000000     0.3741015306
    4      H       1.1590800000     0.0000000000     0.3741015306
    5      H      -1.1590800000    -0.0000000000    -1.5505954694
    6      H       1.1590800000     0.0000000000    -1.5505954694
    7      H       0.0000000000     0.0000000000     9.4119575110
 ----------------------------------------------------------------
 Molecular Point Group                 C2v   NOp =  4
 Largest Abelian Subgroup              C2v   NOp =  4
 Nuclear Repulsion Energy =          34.43497767 hartrees
 There are        9 alpha and        9 beta electrons
 Requested basis set is non-standard
 There are 33 shells and 67 basis functions
 Total memory of 95000 MB is distributed as follows: 
   MEM_STATIC is set to 192 MB
   QALLOC/CCMAN JOB total memory use is  94808 MB
 Warning: actual memory use might exceed 95000 MB

 Total QAlloc Memory Limit  95000 MB
 Mega-Array Size       188 MB
 MEM_STATIC part       192 MB

                       Distance Matrix (Angstroms)
             C (  1)   C (  2)   H (  3)   H (  4)   H (  5)   H (  6)
   C (  2)  1.329000
   H (  3)  1.082000  2.061931
   H (  4)  2.061931  1.082000  2.318160
   H (  5)  1.082000  2.061931  1.924697  3.013026
   H (  6)  2.061931  1.082000  3.013026  1.924697  2.318160
   H (  7) 10.022258 10.022258  9.111877  9.111877 11.023658 11.023658

 
 A cutoff of  1.0D-14 yielded    505 shell pairs
 There are      2121 function pairs (      2258 Cartesian)
 Smallest overlap matrix eigenvalue = 2.19E-04

 Scale SEOQF with 1.000000e-01/1.000000e-01/1.000000e-02

 Standard Electronic Orientation quadrupole field applied
 Nucleus-field energy     =    -0.0000000007 hartrees
 ================ Generating on-the-fly SAD Guess ================
Attempting to make child job directory: /src/jdavis/qchem.scratch/qchem16609//Frg1/
Attempting to make child job directory: /src/jdavis/qchem.scratch/qchem16609//Frg2/
Creating input file /src/jdavis/qchem.scratch/qchem16609/Frg1.input
using default PutDataFrgm: nothing
calling putenv with: QCSCRATCH=/src/jdavis/qchem.scratch/qchem16609/ 
Spawning Job For Fragment 0
Done Job For Fragment 0
calling putenv with: QCSCRATCH=/src/jdavis/qchem.scratch 
calling putenv with: QCTHREADS=1 
Creating input file /src/jdavis/qchem.scratch/qchem16609/Frg2.input
using default PutDataFrgm: nothing
calling putenv with: QCSCRATCH=/src/jdavis/qchem.scratch/qchem16609/ 
Spawning Job For Fragment 1
Done Job For Fragment 1
calling putenv with: QCSCRATCH=/src/jdavis/qchem.scratch 
calling putenv with: QCTHREADS=1 
 Time for running child jobs:  CPU 1.77 s  wall 53.40 s
 ============= Method Specific SAD Guess Constructed =============
 Guess from on-the-fly superposition of atomic densities
 Warning: Energy on first SCF cycle will be non-variational
 A restricted Hartree-Fock SCF calculation will be
 performed using Pulay DIIS extrapolation
 SCF converges when DIIS error is below 1.0E-08
 using 10 threads for integral computing
 -------------------------------------------------------
 OpenMP Integral computing Module                
 Release: version 1.0, May 2013, Q-Chem Inc. Pittsburgh 
 -------------------------------------------------------
 ---------------------------------------
  Cycle       Energy         DIIS Error
 ---------------------------------------
    1     -78.8001423212      7.36E-02
    2     -78.4466985867      6.48E-03
    3     -78.4846941993      1.48E-03
    4     -78.4866266563      4.76E-04
    5     -78.4867996984      7.28E-05
    6     -78.4868075435      1.23E-05
    7     -78.4868078721      3.41E-06
    8     -78.4868078994      3.34E-07
    9     -78.4868079000      9.98E-08
   10     -78.4868079002      3.78E-08
   11     -78.4868079002      1.02E-08
   12     -78.4868079002      1.06E-09 Convergence criterion met
 ---------------------------------------
 SCF time:  CPU 10.59 s  wall 1.06 s
 SCF   energy in the final basis set = -78.48680790
 Total energy in the final basis set = -78.48680790
================================================================================
|                                                                              |
|                                 A D C  M A N                                 |
|                                                                              |
 ------------------------------------------------------------------------------ 
|                                                                              |
| Components:                                                                  |
|                                                                              |
| - libvmm - 1.3-trunk                                                         |
|   Authors:                                                                   |
|   Evgeny Epifanovsky, Ilya Kaliman                                           |
|                                                                              |
| - libtensor - 2.5-trunk                                                      |
|   Authors:                                                                   |
|   Evgeny Epifanovsky, Michael Wormit, Dmitry Zuev, Sam Manzer,               |
|   Ilya Kaliman                                                               |
|                                                                              |
| - libwfa - 1.1-trunk                                                         |
|   Authors:                                                                   |
|   Felix Plasser, Stefanie Mewes (Baeppler), Benjamin Thomitzni,              |
|   Michael Wormit, Feng Chen, Anna I. Krylov, Pavel Pokhilko                  |
|                                                                              |
| - libadc - 1.1-trunk                                                         |
|   Authors:                                                                   |
|   Michael Wormit, Adrian L. Dempwolff, Philipp H. P. Harbach,                |
|   Caroline Krauter, Dirk Rehn, Matthias Schneider, Jan Wenzel                |
|                                                                              |
| - adcman - 2.6-trunk                                                         |
|   Authors:                                                                   |
|   Michael Wormit, Adrian L. Dempwolff, Philipp H. P. Harbach,                |
|   Caroline Krauter, Daniel Lefrancois, Jan-Michael Mewes, Dirk Rehn,         |
|   Matthias Schneider, Jan Wenzel, Andreas Dreuw                              |
|                                                                              |
| Authors of earlier versions of ADCMAN:                                       |
| Andreas Dreuw, Jan Hendrik Starcke, Dirk Rehn, Michael Wormit                |
|                                                                              |
================================================================================

 
 Alpha MOs, Restricted
 -- Occupied --                  
-11.184 -11.182  -0.989  -0.729  -0.607  -0.514  -0.462  -0.324
  1 A1    1 B1    2 A1    2 B1    3 A1    4 A1    3 B1    1 B2                 
  0.022
  5 A1                                                                         
 -- Virtual --                   
  0.104   0.116   0.120   0.127   0.130   0.139   0.171   0.207
  4 B1    6 A1    2 B2    7 A1    1 A2    5 B1    8 A1    2 A2                 
  0.244   0.298   0.312   0.316   0.317   0.324   0.327   0.394
  6 B1    9 A1   10 A1    7 B1    8 B1    3 B2   11 A1   12 A1                 
  0.402   0.411   0.591   0.643   0.842   0.913   0.929   0.967
  3 A2    9 B1   10 B1   11 B1   13 A1   14 A1   15 A1   16 A1                 
  0.981   1.041   1.058   1.086   1.089   1.108   1.119   1.167
 12 B1    4 B2   17 A1    4 A2   18 A1   13 B1   14 B1    5 B2                 
  1.327   1.337   1.338   1.418   1.667   1.673   1.767   1.916
 15 B1    5 A2    6 B2   16 B1   19 A1   17 B1   20 A1    6 A2                 
  1.967   1.967   1.967   1.990   1.994   2.070   2.084   2.127
 21 A1   18 B1    7 B2   19 B1    8 B2    9 B2   22 A1   23 A1                 
  2.229   2.376   2.465   2.509   2.626   2.633   2.856   2.866
  7 A2   20 B1    8 A2   24 A1   21 B1   22 B1   25 A1   26 A1                 
  3.292   3.392
 23 B1   24 B1                                                                 
 
 Beta MOs, Restricted
 -- Occupied --                  
-11.184 -11.182  -0.989  -0.729  -0.607  -0.514  -0.462  -0.324
  1 A1    1 B1    2 A1    2 B1    3 A1    4 A1    3 B1    1 B2                 
  0.022
  5 A1                                                                         
 -- Virtual --                   
  0.104   0.116   0.120   0.127   0.130   0.139   0.171   0.207
  4 B1    6 A1    2 B2    7 A1    1 A2    5 B1    8 A1    2 A2                 
  0.244   0.298   0.312   0.316   0.317   0.324   0.327   0.394
  6 B1    9 A1   10 A1    7 B1    8 B1    3 B2   11 A1   12 A1                 
  0.402   0.411   0.591   0.643   0.842   0.913   0.929   0.967
  3 A2    9 B1   10 B1   11 B1   13 A1   14 A1   15 A1   16 A1                 
  0.981   1.041   1.058   1.086   1.089   1.108   1.119   1.167
 12 B1    4 B2   17 A1    4 A2   18 A1   13 B1   14 B1    5 B2                 
  1.327   1.337   1.338   1.418   1.667   1.673   1.767   1.916
 15 B1    5 A2    6 B2   16 B1   19 A1   17 B1   20 A1    6 A2                 
  1.967   1.967   1.967   1.990   1.994   2.070   2.084   2.127
 21 A1   18 B1    7 B2   19 B1    8 B2    9 B2   22 A1   23 A1                 
  2.229   2.376   2.465   2.509   2.626   2.633   2.856   2.866
  7 A2   20 B1    8 A2   24 A1   21 B1   22 B1   25 A1   26 A1                 
  3.292   3.392
 23 B1   24 B1                                                                 

--------------------------------------------------------------------------------
                                   HF Summary                                   
--------------------------------------------------------------------------------
  Energy:                                                  -78.4868079002 a.u.
  Dip. moment [a.u.]:                  [  -0.000000,   -0.000000,  -17.723740]
  Total dipole [Debye]:                                              45.049263
  <r^2> [a.u.]:                        [  50.674116,   14.933408,  677.582811]
  Total <r^2> [a.u.]:                                               743.190334
--------------------------------------------------------------------------------

--------------------------------------------------------------------------------
                                 MP(2) Summary                                  
--------------------------------------------------------------------------------
  MP energy contribution:                                   -0.2983238662 a.u.
  Total energy:                                            -78.7851317664 a.u.
  Dip. moment [a.u.]:                  [  -0.000000,   -0.000000,  -17.722823]
  Total dipole [Debye]:                                              45.046932
  <r^2> [a.u.]:                        [  50.740106,   14.742274,  677.568832]
  Total <r^2> [a.u.]:                                               743.051212

  Density matrix analysis:
  ------------------------
  NOs
    Occupation of frontier NOs:
       0.0447   1.9371
    Number of electrons: 18.000000
    Number of unpaired electrons: n_u =  0.43195, n_u,nl =  0.04673
    NO participation ratio (PR_NO): 15.325405
  
  
  Mulliken Population Analysis
  Atom      Charge (e)              h+              e-           Del q
  --------------------------------------------------------------------
   1 C       -0.179608        0.087872       -0.102550       -0.014678
   2 C       -0.179608        0.087872       -0.102550       -0.014678
   3 H        0.100389        0.017581       -0.010267        0.007315
   4 H        0.100389        0.017581       -0.010267        0.007315
   5 H        0.079111        0.017903       -0.010547        0.007356
   6 H        0.079111        0.017903       -0.010547        0.007356
   7 H       -0.999785        0.021969       -0.021954        0.000014
  --------------------------------------------------------------------
  Sum:       -1.000000        0.268681       -0.268681        0.000000
  
  Multipole moment analysis of the density matrix
    Molecular charge:                      -1.000000
    Number of electrons:                   18.000000
      Center of electronic charge [Ang]: [  0.000000,   0.000000,   0.521029]
    Total nuclear charge:                  17.000000
      Center of nuclear charge [Ang]:    [  0.000000,   0.000000,  -0.000000]
    Dipole moment [D]:                     45.046918
      Cartesian components [D]:          [ -0.000000,  -0.000000, -45.046918]
    RMS size of the density [Ang]:         3.359804
      Cartesian components [Ang]:        [  0.888465,   0.478903,   3.204616]
  
  Exciton analysis of the difference density matrix
    <r_h> [Ang]:                  [  0.000000,  -0.000000,   0.226867]
    <r_e> [Ang]:                  [  0.000000,  -0.000000,   0.225060]
    |<r_e - r_h>| [Ang]:            0.001807
    Hole size [Ang]:                3.088760
      Cartesian components [Ang]: [  0.956931,   0.755064,   2.838062]
    Electron size [Ang]:            3.065331
      Cartesian components [Ang]: [  0.992217,   0.609029,   2.835638]
--------------------------------------------------------------------------------
Less singles guess vectors found than requested: 85 (found), 100 (requested).
Adjusting number of doubles guess vectors to 15.
  Starting Davidson for singlet states of irrep A2 ... 
--------------------------------------------------------------------------------
   It NVec Conv  Avg. Norm  Max. Norm  Conv. states           Remark
--------------------------------------------------------------------------------
       100    0  3.767e-02  3.378e-01  0.0765 n n n n n n n n Guess.
    1  110    3  1.027e-03  7.556e-03  0.0484 n n y n y y n n 
    2  120    6  7.299e-05  6.896e-04  0.0484 n n y y y y y n 
    3  130    9  1.070e-03  1.070e-02  0.0484 y y y y y y y y 
    4  140    9  4.541e-05  4.541e-04  0.0484 y y y y y y y y 
    5  150    9  1.688e-06  1.688e-05  0.0484 y y y y y y y y 
    6  160   10  4.231e-08  4.231e-07  0.0484 y y y y y y y y Converged.
--------------------------------------------------------------------------------
  Davidson Summary: 
 ------------------------------------------------------------
  State  0: excitation energy =   0.0484 a.u.   (converged)
  State  1: excitation energy =   0.0972 a.u.   (converged)
  State  2: excitation energy =   0.1801 a.u.   (converged)
  State  3: excitation energy =   0.2032 a.u.   (converged)
  State  4: excitation energy =   0.2139 a.u.   (converged)
  State  5: excitation energy =   0.2153 a.u.   (converged)
  State  6: excitation energy =   0.2580 a.u.   (converged)
  State  7: excitation energy =   0.2795 a.u.   (converged)
  State  8: excitation energy =   0.2893 a.u.   (converged)
  State  9: excitation energy =   0.2903 a.u.   (converged)
 ------------------------------------------------------------


--------------------------------------------------------------------------------
                   State-averaged natural transition orbitals
--------------------------------------------------------------------------------
--------------------------------------------------------------------------------

--------------------------------------------------------------------------------
                             Excited State Summary
--------------------------------------------------------------------------------
--------------------------------------------------------------------------------

  Excited state 1 (singlet, A2)                                    [converged]
  ----------------------------------------------------------------------------
  Term symbol:  1 (1) A2                                    R^2 =  1.07260e-11

  Total energy:                                            -78.7367305272 a.u.
  Excitation energy:                                               1.317065 eV

  Osc. strength:                                                      0.000000
  Trans. dip. moment [a.u.]:           [  -0.000000,    0.000000,    0.000000]
  <i|r^2|0> [a.u.]:                    [   0.000000,    0.000000,   -0.000000]

  Dip. moment [a.u.]:                  [  -0.000000,    0.000000,    1.139303]
  Total dipole [Debye]:                                               2.895819
  <r^2> [a.u.]:                        [  71.700042,   34.625201,  368.283049]
  Total <r^2> [a.u.]:                                               474.608292

  V1^2 = 0.9685, V2^2 = 0.0315

  Important amplitudes:
      occ i      occ j       vir a       vir b          v   
    ---------------------------------------------------------
     5 (A1) A               1 (A2) A                  0.6701
     5 (A1) A               2 (A2) A                  0.1827
    ---------------------------------------------------------

  Density matrix analysis:
  ------------------------
  NOs
    Occupation of frontier NOs:
       0.9929   1.0016
    Number of electrons: 18.000000
    Number of unpaired electrons: n_u =  2.41239, n_u,nl =  2.04572
    NO participation ratio (PR_NO):  2.917578
  
  
  Mulliken Population Analysis
  Atom      Charge (e)              h+              e-           Del q
  --------------------------------------------------------------------
   1 C       -0.632163        0.069815       -0.522370       -0.452555
   2 C       -0.632163        0.069815       -0.522370       -0.452555
   3 H        0.070130        0.002187       -0.032446       -0.030259
   4 H        0.070130        0.002187       -0.032446       -0.030259
   5 H        0.061817        0.002833       -0.020128       -0.017294
   6 H        0.061817        0.002833       -0.020128       -0.017294
   7 H        0.000434        1.020241       -0.020022        1.000218
  --------------------------------------------------------------------
  Sum:       -1.000000        1.169911       -1.169911        0.000000
  
  Multipole moment analysis of the density matrix
    Molecular charge:                      -1.000000
    Number of electrons:                   18.000000
      Center of electronic charge [Ang]: [  0.000000,  -0.000000,  -0.033494]
    Total nuclear charge:                  17.000000
      Center of nuclear charge [Ang]:    [  0.000000,   0.000000,  -0.000000]
    Dipole moment [D]:                     2.895818
      Cartesian components [D]:          [ -0.000000,   0.000000,   2.895818]
    RMS size of the density [Ang]:         2.717062
      Cartesian components [Ang]:        [  1.056148,   0.733941,   2.393389]
  
  Exciton analysis of the difference density matrix
    <r_h> [Ang]:                  [  0.000000,  -0.000000,   8.136125]
    <r_e> [Ang]:                  [  0.000000,   0.000000,  -0.395643]
    |<r_e - r_h>| [Ang]:            8.531768
    Hole size [Ang]:                3.564502
      Cartesian components [Ang]: [  0.759346,   0.718720,   3.407714]
    Electron size [Ang]:            3.806767
      Cartesian components [Ang]: [  2.365069,   2.296892,   1.903210]

  Transition density matrix analysis:
  -----------------------------------
  
  CT numbers (Mulliken)
    omega =     0.9575
    <Phe> =     0.0000
  
  Exciton analysis of the transition density matrix
    Trans. dipole moment [D]:             0.000000
      Cartesian components [D]:         [ -0.000000,   0.000000,   0.000000]
    <r_h> [Ang]:                        [ -0.000000,  -0.000000,   9.410909]
    <r_e> [Ang]:                        [  0.000000,   0.000000,  -0.588190]
    |<r_e - r_h>| [Ang]:                  9.999099
    Hole size [Ang]:                      1.115232
      Cartesian components [Ang]:       [  0.641166,   0.641119,   0.649318]
    Electron size [Ang]:                  3.792683
      Cartesian components [Ang]:       [  2.512211,   2.459587,   1.422557]
    RMS electron-hole separation [Ang]:  10.752213
      Cartesian components [Ang]:       [  2.592730,   2.541767,  10.120636]
    Covariance(r_h, r_e) [Ang^2]:         0.000036
    Correlation coefficient:              0.000008
    Center-of-mass size [Ang]:            1.976630
      Cartesian components [Ang]:       [  1.296375,   1.270888,   0.781870]

  Decomposition into state-averaged NTOs
    H- 0 -> L+ 0: -0.5804 ( 67.4%)
    H- 0 -> L+ 1:  0.3767 ( 28.4%)
                   omega =  95.7%
  ----------------------------------------------------------------------------


  Excited state 2 (singlet, A2)                                    [converged]
  ----------------------------------------------------------------------------
  Term symbol:  2 (1) A2                                    R^2 =  3.21447e-11

  Total energy:                                            -78.6878833091 a.u.
  Excitation energy:                                               2.646265 eV

  Osc. strength:                                                      0.000000
  Trans. dip. moment [a.u.]:           [  -0.000000,   -0.000000,   -0.000000]
  <i|r^2|0> [a.u.]:                    [   0.000000,    0.000000,    0.000000]

  Dip. moment [a.u.]:                  [  -0.000000,   -0.000000,    1.140801]
  Total dipole [Debye]:                                               2.899626
  <r^2> [a.u.]:                        [  68.527444,   31.155875,  367.622352]
  Total <r^2> [a.u.]:                                               467.305671

  V1^2 = 0.9518, V2^2 = 0.0482

  Important amplitudes:
      occ i      occ j       vir a       vir b          v   
    ---------------------------------------------------------
     5 (A1) A               2 (A2) A                 -0.6534
     5 (A1) A               1 (A2) A                  0.1991
    ---------------------------------------------------------

  Density matrix analysis:
  ------------------------
  NOs
    Occupation of frontier NOs:
       0.9891   1.0011
    Number of electrons: 18.000000
    Number of unpaired electrons: n_u =  2.41806, n_u,nl =  2.04520
    NO participation ratio (PR_NO):  2.941312
  
  
  Mulliken Population Analysis
  Atom      Charge (e)              h+              e-           Del q
  --------------------------------------------------------------------
   1 C       -0.576471        0.133670       -0.530533       -0.396864
   2 C       -0.576471        0.133670       -0.530533       -0.396864
   3 H        0.042971        0.003710       -0.061128       -0.057418
   4 H        0.042971        0.003710       -0.061128       -0.057418
   5 H        0.033326        0.004459       -0.050244       -0.045785
   6 H        0.033326        0.004459       -0.050244       -0.045785
   7 H        0.000347        1.018724       -0.018592        1.000132
  --------------------------------------------------------------------
  Sum:       -1.000000        1.302402       -1.302402       -0.000000
  
  Multipole moment analysis of the density matrix
    Molecular charge:                      -1.000000
    Number of electrons:                   18.000000
      Center of electronic charge [Ang]: [  0.000000,   0.000000,  -0.033538]
    Total nuclear charge:                  17.000000
      Center of nuclear charge [Ang]:    [  0.000000,   0.000000,  -0.000000]
    Dipole moment [D]:                     2.899626
      Cartesian components [D]:          [ -0.000000,  -0.000000,   2.899626]
    RMS size of the density [Ang]:         2.696074
      Cartesian components [Ang]:        [  1.032517,   0.696201,   2.391240]
  
  Exciton analysis of the difference density matrix
    <r_h> [Ang]:                  [  0.000000,  -0.000000,   7.236400]
    <r_e> [Ang]:                  [  0.000000,   0.000000,  -0.428055]
    |<r_e - r_h>| [Ang]:            7.664455
    Hole size [Ang]:                4.306857
      Cartesian components [Ang]: [  0.771616,   0.681573,   4.181995]
    Electron size [Ang]:            3.382811
      Cartesian components [Ang]: [  2.102340,   1.998404,   1.740677]

  Transition density matrix analysis:
  -----------------------------------
  
  CT numbers (Mulliken)
    omega =     0.9357
    <Phe> =     0.0000
  
  Exciton analysis of the transition density matrix
    Trans. dipole moment [D]:             0.000000
      Cartesian components [D]:         [ -0.000000,  -0.000000,  -0.000000]
    <r_h> [Ang]:                        [ -0.000000,  -0.000000,   9.410909]
    <r_e> [Ang]:                        [  0.000000,   0.000000,  -0.588132]
    |<r_e - r_h>| [Ang]:                  9.999041
    Hole size [Ang]:                      1.115111
      Cartesian components [Ang]:       [  0.641097,   0.641050,   0.649248]
    Electron size [Ang]:                  3.484033
      Cartesian components [Ang]:       [  2.311036,   2.255300,   1.308136]
    RMS electron-hole separation [Ang]:  10.647193
      Cartesian components [Ang]:       [  2.398301,   2.344633,  10.105125]
    Covariance(r_h, r_e) [Ang^2]:         0.000032
    Correlation coefficient:              0.000008
    Center-of-mass size [Ang]:            1.829072
      Cartesian components [Ang]:       [  1.199160,   1.172321,   0.730195]

  Decomposition into state-averaged NTOs
    H- 0 -> L+ 1: -0.5627 ( 63.3%)
    H- 0 -> L+ 0: -0.3888 ( 30.2%)
                   omega =  93.6%
  ----------------------------------------------------------------------------


  Excited state 3 (singlet, A2)                                    [converged]
  ----------------------------------------------------------------------------
  Term symbol:  3 (1) A2                                    R^2 =  4.70765e-11

  Total energy:                                            -78.6050382411 a.u.
  Excitation energy:                                               4.900594 eV

  Osc. strength:                                                      0.000000
  Trans. dip. moment [a.u.]:           [  -0.000000,   -0.000000,    0.000000]
  <i|r^2|0> [a.u.]:                    [   0.000000,   -0.000000,   -0.000000]

  Dip. moment [a.u.]:                  [  -0.000000,    0.000000,   21.819052]
  Total dipole [Debye]:                                              55.458508
  <r^2> [a.u.]:                        [ 108.905306,   62.818239,   75.829484]
  Total <r^2> [a.u.]:                                               247.553028

  V1^2 = 0.0000, V2^2 = 1.0000

  Important amplitudes:
      occ i      occ j       vir a       vir b          v   
    ---------------------------------------------------------
     5 (A1) A   5 (A1) B    4 (B1) A    2 (B2) B      0.3536
     5 (A1) A               1 (A2) A                  0.0004
    ---------------------------------------------------------

  Density matrix analysis:
  ------------------------
  NOs
    Occupation of frontier NOs:
       1.0005   1.0011
    Number of electrons: 18.000000
    Number of unpaired electrons: n_u =  2.40590, n_u,nl =  2.04906
    NO participation ratio (PR_NO):  2.880355
  
  
  Mulliken Population Analysis
  Atom      Charge (e)              h+              e-           Del q
  --------------------------------------------------------------------
   1 C       -1.139576        0.000091       -0.960059       -0.959968
   2 C       -1.139576        0.000091       -0.960059       -0.959968
   3 H        0.099212        0.000005       -0.001182       -0.001177
   4 H        0.099212        0.000005       -0.001182       -0.001177
   5 H        0.040357        0.000005       -0.038759       -0.038754
   6 H        0.040357        0.000005       -0.038759       -0.038754
   7 H        1.000014        1.999798       -0.000000        1.999798
  --------------------------------------------------------------------
  Sum:       -1.000000        2.000000       -2.000000       -0.000000
  
  Multipole moment analysis of the density matrix
    Molecular charge:                      -1.000000
    Number of electrons:                   18.000000
      Center of electronic charge [Ang]: [  0.000000,  -0.000000,  -0.641452]
    Total nuclear charge:                  17.000000
      Center of nuclear charge [Ang]:    [  0.000000,   0.000000,  -0.000000]
    Dipole moment [D]:                     55.458491
      Cartesian components [D]:          [ -0.000000,   0.000000,  55.458491]
    RMS size of the density [Ang]:         1.854658
      Cartesian components [Ang]:        [  1.301636,   0.988571,   0.876487]
  
  Exciton analysis of the difference density matrix
    <r_h> [Ang]:                  [ -0.000000,  -0.000000,   9.411016]
    <r_e> [Ang]:                  [  0.000000,  -0.000000,  -1.051316]
    |<r_e - r_h>| [Ang]:           10.462332
    Hole size [Ang]:                1.115956
      Cartesian components [Ang]: [  0.641840,   0.641799,   0.649225]
    Electron size [Ang]:            4.396645
      Cartesian components [Ang]: [  2.925050,   2.672682,   1.905608]

  Transition density matrix analysis:
  -----------------------------------
  
  CT numbers (Mulliken)
    omega =     0.0000
    <Phe> =     0.0001
  
  Exciton analysis of the transition density matrix
    ... vanishing.

  Decomposition into state-averaged NTOs
                   omega =   0.0%
  ----------------------------------------------------------------------------


  Excited state 4 (singlet, A2)                                    [converged]
  ----------------------------------------------------------------------------
  Term symbol:  4 (1) A2                                    R^2 =  1.40255e-12

  Total energy:                                            -78.5819426240 a.u.
  Excitation energy:                                               5.529058 eV

  Osc. strength:                                                      0.000000
  Trans. dip. moment [a.u.]:           [  -0.000000,   -0.000000,    0.000000]
  <i|r^2|0> [a.u.]:                    [   0.000000,    0.000000,   -0.000000]

  Dip. moment [a.u.]:                  [  -0.000000,    0.000000,   20.833214]
  Total dipole [Debye]:                                              52.952757
  <r^2> [a.u.]:                        [  91.068878,   52.725382,   92.444984]
  Total <r^2> [a.u.]:                                               236.239244

  V1^2 = 0.0010, V2^2 = 0.9990

  Important amplitudes:
      occ i      occ j       vir a       vir b          v   
    ---------------------------------------------------------
     5 (A1) A   5 (A1) B    6 (A1) A    1 (A2) B     -0.3534
     5 (A1) A               1 (A2) A                  0.0220
    ---------------------------------------------------------

  Density matrix analysis:
  ------------------------
  NOs
    Occupation of frontier NOs:
       1.0010   1.0037
    Number of electrons: 18.000000
    Number of unpaired electrons: n_u =  2.39975, n_u,nl =  2.04791
    NO participation ratio (PR_NO):  2.874976
  
  
  Mulliken Population Analysis
  Atom      Charge (e)              h+              e-           Del q
  --------------------------------------------------------------------
   1 C       -1.145106        0.000038       -0.965537       -0.965498
   2 C       -1.145106        0.000038       -0.965537       -0.965498
   3 H        0.082308       -0.000000       -0.018081       -0.018081
   4 H        0.082308       -0.000000       -0.018081       -0.018081
   5 H        0.063042        0.000000       -0.016069       -0.016069
   6 H        0.063042        0.000000       -0.016069       -0.016069
   7 H        0.999512        1.999310       -0.000013        1.999296
  --------------------------------------------------------------------
  Sum:       -1.000000        1.999387       -1.999387       -0.000000
  
  Multipole moment analysis of the density matrix
    Molecular charge:                      -1.000000
    Number of electrons:                   18.000000
      Center of electronic charge [Ang]: [  0.000000,  -0.000000,  -0.612470]
    Total nuclear charge:                  17.000000
      Center of nuclear charge [Ang]:    [  0.000000,   0.000000,  -0.000000]
    Dipole moment [D]:                     52.952741
      Cartesian components [D]:          [ -0.000000,   0.000000,  52.952741]
    RMS size of the density [Ang]:         1.816614
      Cartesian components [Ang]:        [  1.190282,   0.905680,   1.031048]
  
  Exciton analysis of the difference density matrix
    <r_h> [Ang]:                  [ -0.000000,  -0.000000,   9.411557]
    <r_e> [Ang]:                  [  0.000000,   0.000000,  -0.793060]
    |<r_e - r_h>| [Ang]:           10.204616
    Hole size [Ang]:                1.113052
      Cartesian components [Ang]: [  0.641610,   0.641609,   0.644638]
    Electron size [Ang]:            4.266693
      Cartesian components [Ang]: [  2.461706,   2.394049,   2.532431]

  Transition density matrix analysis:
  -----------------------------------
  
  CT numbers (Mulliken)
    omega =     0.0010
    <Phe> =     0.0000
  
  Exciton analysis of the transition density matrix
    Trans. dipole moment [D]:             0.000000
      Cartesian components [D]:         [ -0.000000,  -0.000000,   0.000000]
    <r_h> [Ang]:                        [ -0.000000,  -0.000000,   9.412515]
    <r_e> [Ang]:                        [  0.000000,  -0.000000,  -0.588173]
    |<r_e - r_h>| [Ang]:                 10.000687
    Hole size [Ang]:                      1.075134
      Cartesian components [Ang]:       [  0.620574,   0.620571,   0.621041]
    Electron size [Ang]:                  4.612497
      Cartesian components [Ang]:       [  3.038183,   3.005470,   1.735430]
    RMS electron-hole separation [Ang]:  11.065475
      Cartesian components [Ang]:       [  3.100909,   3.068865,  10.169128]
    Covariance(r_h, r_e) [Ang^2]:         0.000028
    Correlation coefficient:              0.000006
    Center-of-mass size [Ang]:            2.368074
      Cartesian components [Ang]:       [  1.550460,   1.534437,   0.921603]

  Decomposition into state-averaged NTOs
                   omega =   0.1%
  ----------------------------------------------------------------------------


  Excited state 5 (singlet, A2)                                    [converged]
  ----------------------------------------------------------------------------
  Term symbol:  5 (1) A2                                    R^2 =  6.15896e-11

  Total energy:                                            -78.5711912192 a.u.
  Excitation energy:                                               5.821618 eV

  Osc. strength:                                                      0.000000
  Trans. dip. moment [a.u.]:           [  -0.000000,   -0.000000,    0.000000]
  <i|r^2|0> [a.u.]:                    [   0.000000,   -0.000000,   -0.000000]

  Dip. moment [a.u.]:                  [  -0.000000,    0.000000,   19.892258]
  Total dipole [Debye]:                                              50.561085
  <r^2> [a.u.]:                        [ 131.629697,   50.223429,   63.426240]
  Total <r^2> [a.u.]:                                               245.279365

  V1^2 = 0.0000, V2^2 = 1.0000

  Important amplitudes:
      occ i      occ j       vir a       vir b          v   
    ---------------------------------------------------------
     5 (A1) A   5 (A1) B    7 (A1) A    1 (A2) B      0.3536
     5 (A1) A               1 (A2) A                  0.0002
    ---------------------------------------------------------

  Density matrix analysis:
  ------------------------
  NOs
    Occupation of frontier NOs:
       1.0007   1.0037
    Number of electrons: 18.000000
    Number of unpaired electrons: n_u =  2.40033, n_u,nl =  2.04796
    NO participation ratio (PR_NO):  2.875462
  
  
  Mulliken Population Analysis
  Atom      Charge (e)              h+              e-           Del q
  --------------------------------------------------------------------
   1 C       -1.208691        0.000091       -1.029174       -1.029084
   2 C       -1.208691        0.000091       -1.029174       -1.029084
   3 H        0.116953        0.000005        0.016559        0.016564
   4 H        0.116953        0.000005        0.016559        0.016564
   5 H        0.091731        0.000005        0.012615        0.012620
   6 H        0.091731        0.000005        0.012615        0.012620
   7 H        1.000014        1.999799       -0.000000        1.999799
  --------------------------------------------------------------------
  Sum:       -1.000000        2.000000       -2.000000       -0.000000
  
  Multipole moment analysis of the density matrix
    Molecular charge:                      -1.000000
    Number of electrons:                   18.000000
      Center of electronic charge [Ang]: [  0.000000,  -0.000000,  -0.584807]
    Total nuclear charge:                  17.000000
      Center of nuclear charge [Ang]:    [  0.000000,   0.000000,  -0.000000]
    Dipole moment [D]:                     50.561070
      Cartesian components [D]:          [ -0.000000,   0.000000,  50.561070]
    RMS size of the density [Ang]:         1.863826
      Cartesian components [Ang]:        [  1.431007,   0.883930,   0.802952]
  
  Exciton analysis of the difference density matrix
    <r_h> [Ang]:                  [  0.000000,  -0.000000,   9.411015]
    <r_e> [Ang]:                  [ -0.000000,   0.000000,  -0.541507]
    |<r_e - r_h>| [Ang]:            9.952522
    Hole size [Ang]:                1.115964
      Cartesian components [Ang]: [  0.641842,   0.641799,   0.649236]
    Electron size [Ang]:            4.452437
      Cartesian components [Ang]: [  3.426027,   2.319434,   1.645224]

  Transition density matrix analysis:
  -----------------------------------
  
  CT numbers (Mulliken)
    omega =     0.0000
    <Phe> =     0.0001
  
  Exciton analysis of the transition density matrix
    ... vanishing.

  Decomposition into state-averaged NTOs
                   omega =   0.0%
  ----------------------------------------------------------------------------


  Excited state 6 (singlet, A2)                                    [converged]
  ----------------------------------------------------------------------------
  Term symbol:  6 (1) A2                                    R^2 =  6.17315e-11

  Total energy:                                            -78.5698655287 a.u.
  Excitation energy:                                               5.857692 eV

  Osc. strength:                                                      0.000000
  Trans. dip. moment [a.u.]:           [   0.000000,   -0.000000,   -0.000000]
  <i|r^2|0> [a.u.]:                    [  -0.000000,   -0.000000,    0.000000]

  Dip. moment [a.u.]:                  [   0.000000,    0.000000,   18.463092]
  Total dipole [Debye]:                                              46.928509
  <r^2> [a.u.]:                        [  98.082775,   61.624161,   87.587958]
  Total <r^2> [a.u.]:                                               247.294894

  V1^2 = 0.0000, V2^2 = 1.0000

  Important amplitudes:
      occ i      occ j       vir a       vir b          v   
    ---------------------------------------------------------
     5 (A1) A   5 (A1) B    5 (B1) A    2 (B2) B     -0.3536
     5 (A1) A               1 (A2) A                 -0.0008
    ---------------------------------------------------------

  Density matrix analysis:
  ------------------------
  NOs
    Occupation of frontier NOs:
       1.0005   1.0011
    Number of electrons: 18.000000
    Number of unpaired electrons: n_u =  2.40595, n_u,nl =  2.04905
    NO participation ratio (PR_NO):  2.880387
  
  
  Mulliken Population Analysis
  Atom      Charge (e)              h+              e-           Del q
  --------------------------------------------------------------------
   1 C       -1.101394        0.000091       -0.921876       -0.921786
   2 C       -1.101394        0.000091       -0.921876       -0.921786
   3 H        0.043297        0.000005       -0.057097       -0.057092
   4 H        0.043297        0.000005       -0.057097       -0.057092
   5 H        0.058091        0.000005       -0.021026       -0.021021
   6 H        0.058091        0.000005       -0.021026       -0.021021
   7 H        1.000012        1.999797       -0.000000        1.999797
  --------------------------------------------------------------------
  Sum:       -1.000000        1.999998       -1.999998        0.000000
  
  Multipole moment analysis of the density matrix
    Molecular charge:                      -1.000000
    Number of electrons:                   18.000000
      Center of electronic charge [Ang]: [ -0.000000,  -0.000000,  -0.542792]
    Total nuclear charge:                  17.000000
      Center of nuclear charge [Ang]:    [  0.000000,   0.000000,  -0.000000]
    Dipole moment [D]:                     46.928495
      Cartesian components [D]:          [  0.000000,   0.000000,  46.928495]
    RMS size of the density [Ang]:         1.884829
      Cartesian components [Ang]:        [  1.235268,   0.979130,   1.033439]
  
  Exciton analysis of the difference density matrix
    <r_h> [Ang]:                  [  0.000000,   0.000000,   9.411016]
    <r_e> [Ang]:                  [ -0.000000,  -0.000000,  -0.163373]
    |<r_e - r_h>| [Ang]:            9.574389
    Hole size [Ang]:                1.115957
      Cartesian components [Ang]: [  0.641840,   0.641799,   0.649226]
    Electron size [Ang]:            4.513632
      Cartesian components [Ang]: [  2.653415,   2.641220,   2.521153]

  Transition density matrix analysis:
  -----------------------------------
  
  CT numbers (Mulliken)
    omega =     0.0000
    <Phe> =     0.0000
  
  Exciton analysis of the transition density matrix
    ... vanishing.

  Decomposition into state-averaged NTOs
                   omega =   0.0%
  ----------------------------------------------------------------------------


  Excited state 7 (singlet, A2)                                    [converged]
  ----------------------------------------------------------------------------
  Term symbol:  7 (1) A2                                    R^2 =  9.52308e-13

  Total energy:                                            -78.5271737471 a.u.
  Excitation energy:                                               7.019395 eV

  Osc. strength:                                                      0.000000
  Trans. dip. moment [a.u.]:           [   0.000000,    0.000000,   -0.000000]
  <i|r^2|0> [a.u.]:                    [  -0.000000,   -0.000000,    0.000000]

  Dip. moment [a.u.]:                  [  -0.000000,   -0.000000,   19.566006]
  Total dipole [Debye]:                                              49.731835
  <r^2> [a.u.]:                        [  88.377021,   54.686428,   64.402772]
  Total <r^2> [a.u.]:                                               207.466222

  V1^2 = 0.0000, V2^2 = 1.0000

  Important amplitudes:
      occ i      occ j       vir a       vir b          v   
    ---------------------------------------------------------
     5 (A1) A   5 (A1) B    8 (A1) A    1 (A2) B      0.3536
     5 (A1) A               1 (A2) A                 -0.0026
    ---------------------------------------------------------

  Density matrix analysis:
  ------------------------
  NOs
    Occupation of frontier NOs:
       1.0028   1.0037
    Number of electrons: 18.000000
    Number of unpaired electrons: n_u =  2.39613, n_u,nl =  2.04779
    NO participation ratio (PR_NO):  2.871471
  
  
  Mulliken Population Analysis
  Atom      Charge (e)              h+              e-           Del q
  --------------------------------------------------------------------
   1 C       -1.315782        0.000089       -1.136264       -1.136175
   2 C       -1.315782        0.000089       -1.136264       -1.136175
   3 H        0.160762        0.000004        0.060369        0.060373
   4 H        0.160762        0.000004        0.060369        0.060373
   5 H        0.155016        0.000006        0.075899        0.075905
   6 H        0.155016        0.000006        0.075899        0.075905
   7 H        1.000009        1.999794       -0.000000        1.999794
  --------------------------------------------------------------------
  Sum:       -1.000000        1.999992       -1.999992       -0.000000
  
  Multipole moment analysis of the density matrix
    Molecular charge:                      -1.000000
    Number of electrons:                   18.000000
      Center of electronic charge [Ang]: [  0.000000,   0.000000,  -0.575216]
    Total nuclear charge:                  17.000000
      Center of nuclear charge [Ang]:    [  0.000000,   0.000000,  -0.000000]
    Dipole moment [D]:                     49.731821
      Cartesian components [D]:          [ -0.000000,  -0.000000,  49.731821]
    RMS size of the density [Ang]:         1.701972
      Cartesian components [Ang]:        [  1.172559,   0.922369,   0.819176]
  
  Exciton analysis of the difference density matrix
    <r_h> [Ang]:                  [ -0.000000,  -0.000000,   9.411006]
    <r_e> [Ang]:                  [  0.000000,   0.000000,  -0.455234]
    |<r_e - r_h>| [Ang]:            9.866240
    Hole size [Ang]:                1.116090
      Cartesian components [Ang]: [  0.641826,   0.641792,   0.649476]
    Electron size [Ang]:            3.823036
      Cartesian components [Ang]: [  2.383625,   2.450443,   1.711510]

  Transition density matrix analysis:
  -----------------------------------
  
  CT numbers (Mulliken)
    omega =     0.0000
    <Phe> =     0.0000
  
  Exciton analysis of the transition density matrix
    Trans. dipole moment [D]:             0.000000
      Cartesian components [D]:         [  0.000000,   0.000000,  -0.000000]
    <r_h> [Ang]:                        [ -0.000000,  -0.000000,   9.413372]
    <r_e> [Ang]:                        [  0.000000,  -0.000000,  -0.589473]
    |<r_e - r_h>| [Ang]:                 10.002845
    Hole size [Ang]:                      1.060748
      Cartesian components [Ang]:       [  0.612207,   0.612203,   0.612860]
    Electron size [Ang]:                  4.669940
      Cartesian components [Ang]:       [  3.074513,   3.044018,   1.757745]
    RMS electron-hole separation [Ang]:  11.090103
      Cartesian components [Ang]:       [  3.134867,   3.104966,  10.174585]
    Covariance(r_h, r_e) [Ang^2]:         0.000029
    Correlation coefficient:              0.000006
    Center-of-mass size [Ang]:            2.394451
      Cartesian components [Ang]:       [  1.567439,   1.552487,   0.930761]

  Decomposition into state-averaged NTOs
                   omega =   0.0%
  ----------------------------------------------------------------------------


  Excited state 8 (singlet, A2)                                    [converged]
  ----------------------------------------------------------------------------
  Term symbol:  8 (1) A2                                    R^2 =  9.90492e-11

  Total energy:                                            -78.5056447934 a.u.
  Excitation energy:                                               7.605227 eV

  Osc. strength:                                                      0.000000
  Trans. dip. moment [a.u.]:           [  -0.000000,   -0.000000,   -0.000000]
  <i|r^2|0> [a.u.]:                    [   0.000000,    0.000000,    0.000000]

  Dip. moment [a.u.]:                  [  -0.000000,   -0.000000,   20.742978]
  Total dipole [Debye]:                                              52.723400
  <r^2> [a.u.]:                        [  75.049363,   36.521707,   88.415533]
  Total <r^2> [a.u.]:                                               199.986603

  V1^2 = 0.0049, V2^2 = 0.9951

  Important amplitudes:
      occ i      occ j       vir a       vir b          v   
    ---------------------------------------------------------
     5 (A1) A   5 (A1) B    6 (A1) A    2 (A2) B      0.3526
     5 (A1) A               3 (A2) A                  0.0483
    ---------------------------------------------------------

  Density matrix analysis:
  ------------------------
  NOs
    Occupation of frontier NOs:
       0.9959   1.0205
    Number of electrons: 18.000000
    Number of unpaired electrons: n_u =  2.36853, n_u,nl =  2.04254
    NO participation ratio (PR_NO):  2.858549
  
  
  Mulliken Population Analysis
  Atom      Charge (e)              h+              e-           Del q
  --------------------------------------------------------------------
   1 C       -1.133361        0.000921       -0.954674       -0.953753
   2 C       -1.133361        0.000921       -0.954674       -0.953753
   3 H        0.077650        0.000006       -0.022745       -0.022739
   4 H        0.077650        0.000006       -0.022745       -0.022739
   5 H        0.058253        0.000007       -0.020866       -0.020859
   6 H        0.058253        0.000007       -0.020866       -0.020859
   7 H        0.994918        1.994767       -0.000064        1.994702
  --------------------------------------------------------------------
  Sum:       -1.000000        1.996635       -1.996635       -0.000000
  
  Multipole moment analysis of the density matrix
    Molecular charge:                      -1.000000
    Number of electrons:                   18.000000
      Center of electronic charge [Ang]: [  0.000000,   0.000000,  -0.609817]
    Total nuclear charge:                  17.000000
      Center of nuclear charge [Ang]:    [  0.000000,   0.000000,  -0.000000]
    Dipole moment [D]:                     52.723384
      Cartesian components [D]:          [ -0.000000,  -0.000000,  52.723384]
    RMS size of the density [Ang]:         1.655096
      Cartesian components [Ang]:        [  1.080534,   0.753773,   1.001806]
  
  Exciton analysis of the difference density matrix
    <r_h> [Ang]:                  [  0.000000,  -0.000000,   9.402658]
    <r_e> [Ang]:                  [  0.000000,   0.000000,  -0.792110]
    |<r_e - r_h>| [Ang]:           10.194768
    Hole size [Ang]:                1.152731
      Cartesian components [Ang]: [  0.642170,   0.641761,   0.710317]
    Electron size [Ang]:            3.598108
      Cartesian components [Ang]: [  1.954933,   1.861835,   2.378694]

  Transition density matrix analysis:
  -----------------------------------
  
  CT numbers (Mulliken)
    omega =     0.0048
    <Phe> =     0.0000
  
  Exciton analysis of the transition density matrix
    Trans. dipole moment [D]:             0.000000
      Cartesian components [D]:         [ -0.000000,  -0.000000,  -0.000000]
    <r_h> [Ang]:                        [ -0.000000,  -0.000000,   9.410952]
    <r_e> [Ang]:                        [  0.000000,   0.000000,  -0.588007]
    |<r_e - r_h>| [Ang]:                  9.998959
    Hole size [Ang]:                      1.112343
      Cartesian components [Ang]:       [  0.639464,   0.639417,   0.647719]
    Electron size [Ang]:                  2.584578
      Cartesian components [Ang]:       [  1.720723,   1.669791,   0.964858]
    RMS electron-hole separation [Ang]:  10.387324
      Cartesian components [Ang]:       [  1.835697,   1.788027,  10.066264]
    Covariance(r_h, r_e) [Ang^2]:         0.000018
    Correlation coefficient:              0.000006
    Center-of-mass size [Ang]:            1.406892
      Cartesian components [Ang]:       [  0.917854,   0.894018,   0.581053]

  Decomposition into state-averaged NTOs
                   omega =   0.5%
  ----------------------------------------------------------------------------


  Excited state 9 (singlet, A2)                                    [converged]
  ----------------------------------------------------------------------------
  Term symbol:  9 (1) A2                                    R^2 =  4.23107e-07

  Total energy:                                            -78.4958758534 a.u.
  Excitation energy:                                               7.871054 eV

  Osc. strength:                                                      0.000000
  Trans. dip. moment [a.u.]:           [  -0.000000,    0.000000,    0.000000]
  <i|r^2|0> [a.u.]:                    [  -0.000000,    0.000000,    0.000000]

  Dip. moment [a.u.]:                  [  -0.000000,   -0.000000,  -16.690534]
  Total dipole [Debye]:                                              42.423113
  <r^2> [a.u.]:                        [  83.045691,   21.511181,  688.757024]
  Total <r^2> [a.u.]:                                               793.313896

  V1^2 = 0.9485, V2^2 = 0.0515

  Important amplitudes:
      occ i      occ j       vir a       vir b          v   
    ---------------------------------------------------------
     1 (B2) A               4 (B1) A                 -0.6564
     1 (B2) A               6 (B1) A                  0.1660
    ---------------------------------------------------------

  Density matrix analysis:
  ------------------------
  NOs
    Occupation of frontier NOs:
       0.9834   0.9929
    Number of electrons: 18.000000
    Number of unpaired electrons: n_u =  2.31761, n_u,nl =  2.02564
    NO participation ratio (PR_NO):  2.740885
  
  
  Mulliken Population Analysis
  Atom      Charge (e)              h+              e-           Del q
  --------------------------------------------------------------------
   1 C       -0.312176        0.524499       -0.657068       -0.132569
   2 C       -0.312176        0.524499       -0.657068       -0.132569
   3 H        0.172857        0.089454       -0.016986        0.072468
   4 H        0.172857        0.089454       -0.016986        0.072468
   5 H        0.139197        0.102497       -0.042412        0.060086
   6 H        0.139197        0.102497       -0.042412        0.060086
   7 H       -0.999755        0.000664       -0.000634        0.000030
  --------------------------------------------------------------------
  Sum:       -1.000000        1.433564       -1.433564        0.000000
  
  Multipole moment analysis of the density matrix
    Molecular charge:                      -1.000000
    Number of electrons:                   18.000000
      Center of electronic charge [Ang]: [  0.000000,   0.000000,   0.490681]
    Total nuclear charge:                  17.000000
      Center of nuclear charge [Ang]:    [  0.000000,   0.000000,  -0.000000]
    Dipole moment [D]:                     42.423100
      Cartesian components [D]:          [ -0.000000,  -0.000000, -42.423100]
    RMS size of the density [Ang]:         3.478639
      Cartesian components [Ang]:        [  1.136641,   0.578492,   3.236406]
  
  Exciton analysis of the difference density matrix
    <r_h> [Ang]:                  [  0.000000,  -0.000000,  -0.602311]
    <r_e> [Ang]:                  [  0.000000,   0.000000,  -0.983365]
    |<r_e - r_h>| [Ang]:            0.381053
    Hole size [Ang]:                1.599578
      Cartesian components [Ang]: [  1.061952,   0.863117,   0.828212]
    Electron size [Ang]:            3.431122
      Cartesian components [Ang]: [  2.727312,   1.437773,   1.505716]

  Transition density matrix analysis:
  -----------------------------------
  
  CT numbers (Mulliken)
    omega =     0.9180
    <Phe> =    -0.0028
  
  Exciton analysis of the transition density matrix
    Trans. dipole moment [D]:             0.000000
      Cartesian components [D]:         [ -0.000000,   0.000000,   0.000000]
    <r_h> [Ang]:                        [  0.000000,   0.000000,  -0.589302]
    <r_e> [Ang]:                        [  0.000000,   0.000000,  -1.157963]
    |<r_e - r_h>| [Ang]:                  0.568661
    Hole size [Ang]:                      1.255695
      Cartesian components [Ang]:       [  0.756878,   0.862566,   0.509791]
    Electron size [Ang]:                  3.986761
      Cartesian components [Ang]:       [  3.194895,   1.680552,   1.691939]
    RMS electron-hole separation [Ang]:   4.210248
      Cartesian components [Ang]:       [  3.277386,   1.881727,   1.855812]
    Covariance(r_h, r_e) [Ang^2]:         0.034111
    Correlation coefficient:              0.006814
    Center-of-mass size [Ang]:            2.093995
      Cartesian components [Ang]:       [  1.644626,   0.948110,   0.883802]

  Decomposition into state-averaged NTOs
    H- 1 -> L+ 2:  0.6771 ( 91.7%)
                   omega =  91.8%
  ----------------------------------------------------------------------------


  Excited state 10 (singlet, A2)                                    [converged]
  ----------------------------------------------------------------------------
  Term symbol:  10 (1) A2                                   R^2 =  1.14150e-11

  Total energy:                                            -78.4948089183 a.u.
  Excitation energy:                                               7.900086 eV

  Osc. strength:                                                      0.000000
  Trans. dip. moment [a.u.]:           [  -0.000000,    0.000000,    0.000000]
  <i|r^2|0> [a.u.]:                    [  -0.000000,   -0.000000,   -0.000000]

  Dip. moment [a.u.]:                  [   0.000000,   -0.000000,   19.893023]
  Total dipole [Debye]:                                              50.563030
  <r^2> [a.u.]:                        [ 115.639304,   34.040445,   58.120374]
  Total <r^2> [a.u.]:                                               207.800123

  V1^2 = 0.0001, V2^2 = 0.9999

  Important amplitudes:
      occ i      occ j       vir a       vir b          v   
    ---------------------------------------------------------
     5 (A1) A   5 (A1) B    7 (A1) A    2 (A2) B      0.3535
     5 (A1) A               3 (A2) A                 -0.0054
    ---------------------------------------------------------

  Density matrix analysis:
  ------------------------
  NOs
    Occupation of frontier NOs:
       1.0006   1.0255
    Number of electrons: 18.000000
    Number of unpaired electrons: n_u =  2.35696, n_u,nl =  2.04174
    NO participation ratio (PR_NO):  2.834796
  
  
  Mulliken Population Analysis
  Atom      Charge (e)              h+              e-           Del q
  --------------------------------------------------------------------
   1 C       -1.199720        0.000097       -1.020209       -1.020112
   2 C       -1.199720        0.000097       -1.020209       -1.020112
   3 H        0.112556        0.000005        0.012162        0.012167
   4 H        0.112556        0.000005        0.012162        0.012167
   5 H        0.087188        0.000005        0.008072        0.008077
   6 H        0.087188        0.000005        0.008072        0.008077
   7 H        0.999952        1.999737       -0.000001        1.999736
  --------------------------------------------------------------------
  Sum:       -1.000000        1.999951       -1.999951       -0.000000
  
  Multipole moment analysis of the density matrix
    Molecular charge:                      -1.000000
    Number of electrons:                   18.000000
      Center of electronic charge [Ang]: [ -0.000000,   0.000000,  -0.584830]
    Total nuclear charge:                  17.000000
      Center of nuclear charge [Ang]:    [  0.000000,   0.000000,  -0.000000]
    Dipole moment [D]:                     50.563015
      Cartesian components [D]:          [  0.000000,  -0.000000,  50.563015]
    RMS size of the density [Ang]:         1.700221
      Cartesian components [Ang]:        [  1.341274,   0.727717,   0.749774]
  
  Exciton analysis of the difference density matrix
    <r_h> [Ang]:                  [ -0.000000,   0.000000,   9.410956]
    <r_e> [Ang]:                  [ -0.000000,   0.000000,  -0.542014]
    |<r_e - r_h>| [Ang]:            9.952970
    Hole size [Ang]:                1.116218
      Cartesian components [Ang]: [  0.641839,   0.641802,   0.649673]
    Electron size [Ang]:            3.817541
      Cartesian components [Ang]: [  3.082044,   1.764652,   1.400224]

  Transition density matrix analysis:
  -----------------------------------
  
  CT numbers (Mulliken)
    omega =     0.0001
    <Phe> =     0.0000
  
  Exciton analysis of the transition density matrix
    Trans. dipole moment [D]:             0.000000
      Cartesian components [D]:         [ -0.000000,   0.000000,   0.000000]
    <r_h> [Ang]:                        [ -0.000000,  -0.000000,   9.410893]
    <r_e> [Ang]:                        [  0.000000,   0.000000,  -0.588616]
    |<r_e - r_h>| [Ang]:                  9.999509
    Hole size [Ang]:                      1.115494
      Cartesian components [Ang]:       [  0.641271,   0.641224,   0.649562]
    Electron size [Ang]:                  3.219004
      Cartesian components [Ang]:       [  2.121578,   2.096586,   1.210463]
    RMS electron-hole separation [Ang]:  10.563922
      Cartesian components [Ang]:       [  2.216372,   2.192447,  10.093430]
    Covariance(r_h, r_e) [Ang^2]:         0.000018
    Correlation coefficient:              0.000005
    Center-of-mass size [Ang]:            1.703405
      Cartesian components [Ang]:       [  1.108190,   1.096227,   0.686868]

  Decomposition into state-averaged NTOs
                   omega =   0.0%
  ----------------------------------------------------------------------------


--------------------------------------------------------------------------------
  Time of ADC calculation:  CPU 138.63 s  wall 40.17 s
================================================================================
 
 --------------------------------------------------------------
             Orbital Energies (a.u.) and Symmetries
 --------------------------------------------------------------
 
 Alpha MOs, Restricted
 -- Occupied --                  
-11.184 -11.182  -0.989  -0.729  -0.607  -0.514  -0.462  -0.324
  1 A1    1 B1    2 A1    2 B1    3 A1    4 A1    3 B1    1 B2                 
  0.022
  5 A1                                                                         
 -- Virtual --                   
  0.104   0.116   0.120   0.127   0.130   0.139   0.171   0.207
  4 B1    6 A1    2 B2    7 A1    1 A2    5 B1    8 A1    2 A2                 
  0.244   0.298   0.312   0.316   0.317   0.324   0.327   0.394
  6 B1    9 A1   10 A1    7 B1    8 B1    3 B2   11 A1   12 A1                 
  0.402   0.411   0.591   0.643   0.842   0.913   0.929   0.967
  3 A2    9 B1   10 B1   11 B1   13 A1   14 A1   15 A1   16 A1                 
  0.981   1.041   1.058   1.086   1.089   1.108   1.119   1.167
 12 B1    4 B2   17 A1    4 A2   18 A1   13 B1   14 B1    5 B2                 
  1.327   1.337   1.338   1.418   1.667   1.673   1.767   1.916
 15 B1    5 A2    6 B2   16 B1   19 A1   17 B1   20 A1    6 A2                 
  1.967   1.967   1.967   1.990   1.994   2.070   2.084   2.127
 21 A1   18 B1    7 B2   19 B1    8 B2    9 B2   22 A1   23 A1                 
  2.229   2.376   2.465   2.509   2.626   2.633   2.856   2.866
  7 A2   20 B1    8 A2   24 A1   21 B1   22 B1   25 A1   26 A1                 
  3.292   3.392
 23 B1   24 B1                                                                 
 
 Beta MOs, Restricted
 -- Occupied --                  
-11.184 -11.182  -0.989  -0.729  -0.607  -0.514  -0.462  -0.324
  1 A1    1 B1    2 A1    2 B1    3 A1    4 A1    3 B1    1 B2                 
  0.022
  5 A1                                                                         
 -- Virtual --                   
  0.104   0.116   0.120   0.127   0.130   0.139   0.171   0.207
  4 B1    6 A1    2 B2    7 A1    1 A2    5 B1    8 A1    2 A2                 
  0.244   0.298   0.312   0.316   0.317   0.324   0.327   0.394
  6 B1    9 A1   10 A1    7 B1    8 B1    3 B2   11 A1   12 A1                 
  0.402   0.411   0.591   0.643   0.842   0.913   0.929   0.967
  3 A2    9 B1   10 B1   11 B1   13 A1   14 A1   15 A1   16 A1                 
  0.981   1.041   1.058   1.086   1.089   1.108   1.119   1.167
 12 B1    4 B2   17 A1    4 A2   18 A1   13 B1   14 B1    5 B2                 
  1.327   1.337   1.338   1.418   1.667   1.673   1.767   1.916
 15 B1    5 A2    6 B2   16 B1   19 A1   17 B1   20 A1    6 A2                 
  1.967   1.967   1.967   1.990   1.994   2.070   2.084   2.127
 21 A1   18 B1    7 B2   19 B1    8 B2    9 B2   22 A1   23 A1                 
  2.229   2.376   2.465   2.509   2.626   2.633   2.856   2.866
  7 A2   20 B1    8 A2   24 A1   21 B1   22 B1   25 A1   26 A1                 
  3.292   3.392
 23 B1   24 B1                                                                 
 --------------------------------------------------------------
 
          Ground-State Mulliken Net Atomic Charges

     Atom                 Charge (a.u.)
  ----------------------------------------
      1 C                    -0.164930
      2 C                    -0.164930
      3 H                     0.093074
      4 H                     0.093074
      5 H                     0.071755
      6 H                     0.071755
      7 H                    -0.999799
  ----------------------------------------
  Sum of atomic charges =    -1.000000

 -----------------------------------------------------------------
                    Cartesian Multipole Moments
 -----------------------------------------------------------------
    Charge (ESU x 10^10)
                -4.8032
    Dipole Moment (Debye)
         X      -0.0000      Y      -0.0000      Z     -45.0493
       Tot      45.0493
    Quadrupole Moments (Debye-Ang)
        XX     -16.8958     XY       0.0000     YY     -20.0859
        XZ       0.0000     YZ       0.0000     ZZ    -441.4940
    Octopole Moments (Debye-Ang^2)
       XXX      -0.0000    XXY      -0.0000    XYY       0.0000
       YYY      -0.0000    XXZ     -29.3417    XYZ      -0.0000
       YYZ     -27.6648    XZZ      -0.0000    YZZ       0.0000
       ZZZ   -4093.8736
    Hexadecapole Moments (Debye-Ang^3)
      XXXX     -74.1689   XXXY      -0.0000   XXYY     -17.5529
      XYYY       0.0000   YYYY     -27.4577   XXXZ       0.0000
      XXYZ       0.0000   XYYZ       0.0000   YYYZ       0.0000
      XXZZ    -370.2304   XYZZ       0.0000   YYZZ    -366.8279
      XZZZ       0.0000   YZZZ       0.0000   ZZZZ  -39844.0543
 -----------------------------------------------------------------
 Total job time:  121.26s(wall), 182.61s(cpu) 
 Thu Feb 17 15:37:48 2022

        *************************************************************
        *                                                           *
        *  Thank you very much for using Q-Chem.  Have a nice day.  *
        *                                                           *
        *************************************************************


