/src/tsommerfeld/qchem/exe/qcprog.exe .cap.inp.24767.qcin.1 /src/jdavis/qchem.scratch/qchem24767/

                  Welcome to Q-Chem
     A Quantum Leap Into The Future Of Chemistry


 Q-Chem 5.4 (devel), Q-Chem, Inc., Pleasanton, CA (2021)

 E. Epifanovsky,  A. T. B. Gilbert,  Xintian Feng,  Joonho Lee,  Yuezhi Mao,  
 N. Mardirossian,  P. Pokhilko,  A. White,  M. Wormit,  M. P. Coons,  
 A. L. Dempwolff,  Zhengting Gan,  D. Hait,  P. R. Horn,  L. D. Jacobson,  
 I. Kaliman,  J. Kussmann,  A. W. Lange,  Ka Un Lao,  D. S. Levine,  Jie Liu,  
 S. C. McKenzie,  A. F. Morrison,  K. Nanda,  F. Plasser,  D. R. Rehn,  
 M. L. Vidal,  Zhi-Qiang You,  Ying Zhu,  B. Alam,  B. Albrecht,  
 A. Aldossary,  E. Alguire,  J. H. Andersen,  D. Barton,  K. Begam,  A. Behn,  
 Y. A. Bernard,  E. J. Berquist,  H. Burton,  A. Carreras,  K. Carter-Fenk,  
 R. Chakraborty,  A. D. Chien,  K. D. Closser,  V. Cofer-Shabica,  
 S. Dasgupta,  Jia Deng,  M. de Wergifosse,  M. Diedenhofen,  Hainam Do,  
 S. Ehlert,  Po-Tung Fang,  S. Fatehi,  Qingguo Feng,  T. Friedhoff,  
 J. Gayvert,  Qinghui Ge,  G. Gidofalvi,  M. Goldey,  J. Gomes,  
 C. Gonzalez-Espinoza,  S. Gulania,  A. Gunina,  M. W. D. Hanson-Heine,  
 P. H. P. Harbach,  A. W. Hauser,  M. F. Herbst,  M. Hernandez Vera,  
 M. Hodecker,  Z. C. Holden,  S. Houck,  Xunkun Huang,  Kerwin Hui,  
 B. C. Huynh,  M. Ivanov,  Hyunjun Ji,  Hanjie Jiang,  B. Kaduk,  S. Kaehler,  
 K. Khistyaev,  Jaehoon Kim,  P. Klunzinger,  Z. Koczor-Benda,  
 Joong Hoon Koh,  D. Kosenkov,  L. Koulias,  T. Kowalczyk,  C. M. Krauter,  
 K. Kue,  A. Kunitsa,  T. Kus,  A. Landau,  K. V. Lawler,  D. Lefrancois,  
 S. Lehtola,  Rain Li,  Yi-Pei Li,  Jiashu Liang,  M. Liebenthal,  
 Hung-Hsuan Lin,  You-Sheng Lin,  Fenglai Liu,  Kuan-Yu Liu,  
 M. Loipersberger,  A. Luenser,  A. Manjanath,  P. Manohar,  E. Mansoor,  
 S. F. Manzer,  Shan-Ping Mao,  A. V. Marenich,  T. Markovich,  S. Mason,  
 S. A. Maurer,  P. F. McLaughlin,  M. F. S. J. Menger,  J.-M. Mewes,  
 S. A. Mewes,  P. Morgante,  J. W. Mullinax,  K. J. Oosterbaan,  G. Paran,  
 Alexander C. Paul,  Suranjan K. Paul,  F. Pavosevic,  Zheng Pei,  S. Prager,  
 E. I. Proynov,  E. Ramos,  B. Rana,  A. E. Rask,  A. Rettig,  R. M. Richard,  
 F. Rob,  E. Rossomme,  T. Scheele,  M. Scheurer,  M. Schneider,  
 N. Sergueev,  S. M. Sharada,  W. Skomorowski,  D. W. Small,  C. J. Stein,  
 Yu-Chuan Su,  E. J. Sundstrom,  Zhen Tao,  J. Thirman,  T. Tsuchimochi,  
 N. M. Tubman,  S. P. Veccham,  O. Vydrov,  J. Wenzel,  J. Witte,  A. Yamada,  
 Kun Yao,  S. Yeganeh,  S. R. Yost,  A. Zech,  Igor Ying Zhang,  Xing Zhang,  
 Yu Zhang,  D. Zuev,  A. Aspuru-Guzik,  A. T. Bell,  N. A. Besley,  
 K. B. Bravaya,  B. R. Brooks,  D. Casanova,  Jeng-Da Chai,  S. Coriani,  
 C. J. Cramer,  A. E. DePrince, III,  R. A. DiStasio Jr.,  A. Dreuw,  
 B. D. Dunietz,  T. R. Furlani,  W. A. Goddard III,  S. Grimme,  
 S. Hammes-Schiffer,  T. Head-Gordon,  W. J. Hehre,  Chao-Ping Hsu,  
 T.-C. Jagau,  Yousung Jung,  A. Klamt,  Jing Kong,  D. S. Lambrecht,  
 WanZhen Liang,  N. J. Mayhall,  C. W. McCurdy,  J. B. Neaton,  
 C. Ochsenfeld,  J. A. Parkhill,  R. Peverati,  V. A. Rassolov,  Yihan Shao,  
 L. V. Slipchenko,  T. Stauch,  R. P. Steele,  J. E. Subotnik,  
 A. J. W. Thom,  A. Tkatchenko,  D. G. Truhlar,  T. Van Voorhis,  
 T. A. Wesolowski,  K. B. Whaley,  H. L. Woodcock III,  P. M. Zimmerman,  
 S. Faraji,  P. M. W. Gill,  M. Head-Gordon,  J. M. Herbert,  A. I. Krylov

 Additional authors for Version 5.4.1: 
 S. Kotaru,  Shaozhi Li,  Xiangyuan Li,  F. Matz,  A. Molle,  Haisheng Ren,  
 Yingli Su,  Hung-Yi Tsai,  C. Utku,  Fang Wang

 Contributors to earlier versions of Q-Chem not listed above: 
 R. D. Adamson,  B. Austin,  R. Baer,  J. Baker,  G. J. O. Beran,  
 K. Brandhorst,  S. T. Brown,  E. F. C. Byrd,  A. K. Chakraborty,  
 G. K. L. Chan,  Chun-Min Chang,  Yunqing Chen,  C.-L. Cheng,  
 Siu Hung Chien,  D. M. Chipman,  D. L. Crittenden,  H. Dachsel,  
 R. J. Doerksen,  A. D. Dutoi,  R. G. Edgar,  J. Fosso-Tande,  
 L. Fusti-Molnar,  D. Ghosh,  A. Ghysels,  A. Golubeva-Zadorozhnaya,  
 J. Gonthier,  M. S. Gordon,  S. R. Gwaltney,  G. Hawkins,  J. E. Herr,  
 A. Heyden,  S. Hirata,  E. G. Hohenstein,  G. Kedziora,  F. J. Keil,  
 C. Kelley,  Jihan Kim,  R. A. King,  R. Z. Khaliullin,  P. P. Korambath,  
 W. Kurlancheek,  A. Laurent,  A. M. Lee,  M. S. Lee,  S. V. Levchenko,  
 Ching Yeh Lin,  D. Liotard,  E. Livshits,  R. C. Lochan,  I. Lotan,  
 L. A. Martinez-Martinez,  P. E. Maslen,  N. Nair,  D. P. O'Neill,  
 D. Neuhauser,  E. Neuscamman,  C. M. Oana,  R. Olivares-Amaya,  R. Olson,  
 T. M. Perrine,  B. Peters,  P. A. Pieniazek,  A. Prociuk,  Y. M. Rhee,  
 J. Ritchie,  M. A. Rohrdanz,  E. Rosta,  N. J. Russ,  H. F. Schaefer III,  
 M. W. Schmidt,  N. E. Schultz,  S. Sharma,  N. Shenvi,  C. D. Sherrill,  
 A. C. Simmonett,  A. Sodt,  T. Stein,  D. Stuck,  K. S. Thanthiriwatte,  
 V. Vanovschi,  L. Vogt,  Tao Wang,  A. Warshel,  M. A. Watson,  
 C. F. Williams,  Q. Wu,  X. Xu,  Jun Yang,  W. Zhang,  Yan Zhao

 Please cite Q-Chem as follows:
 Y. Shao et al., Mol. Phys. 113, 184-215 (2015)
 DOI: 10.1080/00268976.2014.952696

 Q-Chem 5.4.1 for Intel X86 EM64T Linux

 Parts of Q-Chem use Armadillo 9.900.5 (Nocturnal Misbehaviour).
 http://arma.sourceforge.net/

 Q-Chem begins on Fri Apr  1 14:08:21 2022  

 Host: node01
0

     Scratch files written to /src/jdavis/qchem.scratch/qchem24767//
 Processing $rem in /src/tsommerfeld/qchem/config/preferences:
 Processing $rem in /home/jdavis/.qchemrc:
 Core orbitals will be frozen

 Checking the input file for inconsistencies... 	...done.

--------------------------------------------------------------
User input:
--------------------------------------------------------------
$comment
	Ethylene CAP-EOM-CCSD
	Basis: C: aDZ+4p1d, H: DZ
$end

$molecule
0 1
C       0.6645000000    -0.0000000000    -0.0000000000
C      -0.6645000000     0.0000000000     0.0000000000
H       1.1590799571     0.9623485159     0.0000000000
H       1.1590799571    -0.9623485159    -0.0000000000
H      -1.1590799571    -0.9623485159    -0.0000000000
H      -1.1590799571     0.9623485159     0.0000000000
$end

$rem
	method eom-mp2
	basis gen
        EA_STATES [0,0,5,0,0,0,0,0]
	complex_ccman 1
	scf_convergence 8
	thresh 14
	mem_total 95000
	threads 12
$end

#	xc_grid 000250000974
$complex_ccman
	cap_type 2 #voronoi cap
	proj_cap 2 # 1 for CAP/EOM-CCSD with projected CAP added at the CCSD and EOM steps
	eta_step 20
	cap_eta 100 
	cap_x 3500
	nsteps 20
$end

$basis
H     0
S   4   1.00
      1.301000D+01           1.968500D-02
      1.962000D+00           1.379770D-01
      4.446000D-01           4.781480D-01
      1.220000D-01           5.012400D-01
S   1   1.00
      1.220000D-01           1.000000D+00
P   1   1.00
      7.270000D-01           1.0000000
****
C     0
S   9   1.00
      6.665000D+03           6.920000D-04
      1.000000D+03           5.329000D-03
      2.280000D+02           2.707700D-02
      6.471000D+01           1.017180D-01
      2.106000D+01           2.747400D-01
      7.495000D+00           4.485640D-01
      2.797000D+00           2.850740D-01
      5.215000D-01           1.520400D-02
      1.596000D-01          -3.191000D-03
S   9   1.00
      6.665000D+03          -1.460000D-04
      1.000000D+03          -1.154000D-03
      2.280000D+02          -5.725000D-03
      6.471000D+01          -2.331200D-02
      2.106000D+01          -6.395500D-02
      7.495000D+00          -1.499810D-01
      2.797000D+00          -1.272620D-01
      5.215000D-01           5.445290D-01
      1.596000D-01           5.804960D-01
S   1   1.00
      1.596000D-01           1.000000D+00
S   1   1.00
      0.0469000              1.0000000
P   4   1.00
      9.439000D+00           3.810900D-02
      2.002000D+00           2.094800D-01
      5.456000D-01           5.085570D-01
      1.517000D-01           4.688420D-01
P   1   1.00
      1.517000D-01           1.000000D+00
P   1   1.00
      0.0404100              1.0000000
P    1  1.00
     0.0269400   1.0
P    1  1.00
     0.0179600   1.0
P    1  1.00
     0.0119733   1.0
P    1  1.00
     0.0079822   1.0
D   1   1.00
      5.500000D-01           1.0000000
D   1   1.00
      0.1510000              1.0000000
D    1  1.00
     0.0755000   1.0
****
$end
--------------------------------------------------------------
 ----------------------------------------------------------------
             Standard Nuclear Orientation (Angstroms)
    I     Atom           X                Y                Z
 ----------------------------------------------------------------
    1      C       0.6645000000     0.0000000000    -0.0000000000
    2      C      -0.6645000000    -0.0000000000     0.0000000000
    3      H       1.1590799571     0.9623485159    -0.0000000000
    4      H       1.1590799571    -0.9623485159    -0.0000000000
    5      H      -1.1590799571    -0.9623485159     0.0000000000
    6      H      -1.1590799571     0.9623485159     0.0000000000
 ----------------------------------------------------------------
 Molecular Point Group                 D2h   NOp =  8
 Largest Abelian Subgroup              D2h   NOp =  8
 Nuclear Repulsion Energy =          33.58921683 hartrees
 There are        8 alpha and        8 beta electrons
 Requested basis set is non-standard
 There are 40 shells and 100 basis functions
 Total memory of 95000 MB is distributed as follows: 
   MEM_STATIC is set to 192 MB
   QALLOC/CCMAN JOB total memory use is  94808 MB
 Warning: actual memory use might exceed 95000 MB

 Total QAlloc Memory Limit  95000 MB
 Mega-Array Size       188 MB
 MEM_STATIC part       192 MB

                       Distance Matrix (Angstroms)
             C (  1)   C (  2)   H (  3)   H (  4)   H (  5)
   C (  2)  1.329000
   H (  3)  1.082000  2.061931
   H (  4)  1.082000  2.061931  1.924697
   H (  5)  2.061931  1.082000  3.013026  2.318160
   H (  6)  2.061931  1.082000  2.318160  3.013026  1.924697
 
 A cutoff of  1.0D-14 yielded    820 shell pairs
 There are      5164 function pairs (      5815 Cartesian)
 Smallest overlap matrix eigenvalue = 7.59E-06

 Scale SEOQF with 1.000000e-01/1.000000e-01/1.000000e-01

 Standard Electronic Orientation quadrupole field applied
 Nucleus-field energy     =     0.0000000006 hartrees
 ================ Generating on-the-fly SAD Guess ================
Attempting to make child job directory: /src/jdavis/qchem.scratch/qchem24767//Frg1/
Attempting to make child job directory: /src/jdavis/qchem.scratch/qchem24767//Frg2/
Creating input file /src/jdavis/qchem.scratch/qchem24767/Frg1.input
using default PutDataFrgm: nothing
calling putenv with: QCSCRATCH=/src/jdavis/qchem.scratch/qchem24767/ 
Spawning Job For Fragment 0
Done Job For Fragment 0
calling putenv with: QCSCRATCH=/src/jdavis/qchem.scratch 
calling putenv with: QCTHREADS=1 
Creating input file /src/jdavis/qchem.scratch/qchem24767/Frg2.input
using default PutDataFrgm: nothing
calling putenv with: QCSCRATCH=/src/jdavis/qchem.scratch/qchem24767/ 
Spawning Job For Fragment 1
Done Job For Fragment 1
calling putenv with: QCSCRATCH=/src/jdavis/qchem.scratch 
calling putenv with: QCTHREADS=1 
 Time for running child jobs:  CPU 2.15 s  wall 0.77 s
 ============= Method Specific SAD Guess Constructed =============
 Guess from on-the-fly superposition of atomic densities
 Warning: Energy on first SCF cycle will be non-variational

 -----------------------------------------------------------------------
  General SCF calculation program by
  Eric Jon Sundstrom, Paul Horn, Yuezhi Mao, Dmitri Zuev, Alec White,
  David Stuck, Shaama M.S., Shane Yost, Joonho Lee, David Small,
  Daniel Levine, Susi Lehtola, Hugh Burton, Evgeny Epifanovsky,
  Bang C. Huynh
 -----------------------------------------------------------------------
 Hartree-Fock
 using 12 threads for integral computing
 -------------------------------------------------------
 OpenMP Integral computing Module                
 Release: version 1.0, May 2013, Q-Chem Inc. Pittsburgh 
 -------------------------------------------------------
 A restricted SCF calculation will be
 performed using DIIS
 SCF converges when DIIS error is below 1.0e-08
 ---------------------------------------
  Cycle       Energy         DIIS error
 ---------------------------------------
    1     -78.4565767611      4.94e-02  
    2     -78.0154394367      3.58e-03  
    3     -78.0368289294      9.48e-04  
    4     -78.0385292504      3.19e-04  
    5     -78.0387131774      3.87e-05  
    6     -78.0387181840      7.48e-06  
    7     -78.0387184488      1.91e-06  
    8     -78.0387184657      2.02e-07  
    9     -78.0387184663      2.50e-08  
   10     -78.0387184663      2.14e-09  Convergence criterion met
 ---------------------------------------
 SCF time:   CPU 12.89s  wall 1.00s 
 SCF   energy in the final basis set =      -78.0387184663
 Total energy in the final basis set =      -78.0387184663
 CAP matrix will be calculated and saved for subsequent use


 ------------------------------------------------------------------------------

   CCMAN2: suite of methods based on coupled cluster
           and equation of motion theories.

   Components:
   * libvmm-1.3-trunk
     by Evgeny Epifanovsky, Ilya Kaliman.
   * libtensor-2.5-trunk
     by Evgeny Epifanovsky, Michael Wormit, Dmitry Zuev, Sam Manzer, 
        Ilya Kaliman.
   * libcc-2.5-trunk
     by Evgeny Epifanovsky, Arik Landau, Tomasz Kus, Kirill Khistyaev, 
        Dmitry Zuev, Prashant Manohar, Xintian Feng, Anna Krylov, 
        Matthew Goldey, Alec White, Thomas Jagau, Kaushik Nanda, 
        Anastasia Gunina, Alexander Kunitsa, Joonho Lee.

   CCMAN original authors:
   Anna I. Krylov, C. David Sherrill, Steven R. Gwaltney,
   Edward F. C. Byrd (2000)
   Sergey V. Levchenko, Lyudmila V. Slipchenko, Tao Wang,
   Ana-Maria C. Cristian (2003)
   Piotr A. Pieniazek, C. Melania Oana, Evgeny Epifanovsky (2007)
   Prashant Manohar (2009)

 ------------------------------------------------------------------------------


 Allocating and initializing 94808MB of RAM...
 Calculation will run on 12 cores.

 
 Alpha MOs, Restricted
 -- Occupied --                  
-11.236 -11.235  -1.042  -0.782  -0.660  -0.567  -0.515  -0.377
  1 Ag    1 B3u   2 Ag    2 B3u   1 B2u   3 Ag    1 B1g   1 B1u                
 -- Virtual --                   
  0.011   0.012   0.012   0.018   0.018   0.021   0.037   0.037
  3 B3u   2 B2u   2 B1u   2 B1g   1 B2g   4 Ag    4 B3u   3 B2u                
  0.040   0.047   0.047   0.047   0.076   0.081   0.084   0.089
  3 B1u   5 Ag    3 B1g   2 B2g   6 Ag    5 B3u   4 B2u   4 B1u                
  0.091   0.097   0.114   0.139   0.156   0.162   0.174   0.176
  3 B2g   4 B1g   7 Ag    4 B2g   6 B3u   5 B2u   8 Ag    5 B1u                
  0.177   0.179   0.197   0.206   0.209   0.254   0.260   0.282
  5 B1g   7 B3u   9 Ag    1 B3g   5 B2g   8 B3u   6 B2u   1 Au                 
  0.291   0.309   0.312   0.320   0.324   0.346   0.360   0.382
  6 B1u  10 Ag    6 B1g   9 B3u   7 B2u   6 B2g   7 B1u  10 B3u                
  0.386   0.419   0.454   0.456   0.489   0.510   0.541   0.567
 11 Ag    7 B1g  12 Ag    8 B2u  11 B3u   7 B2g  13 Ag    8 B1g                
  0.568   0.593   0.653   0.657   0.706   0.713   0.734   0.842
  2 B3g   9 B2u  12 B3u  14 Ag    8 B1u   2 Au   13 B3u   9 B1g                
  0.913   0.927   1.041   1.059   1.074   1.093   1.133   1.198
 14 B3u   8 B2g  10 B2u   9 B1u  15 Ag   10 B1g   9 B2g  15 B3u                
  1.233   1.278   1.515   1.539   1.583   1.647   1.654   1.797
 11 B2u  16 Ag   16 B3u  11 B1g  17 Ag   10 B1u   3 B3g   3 Au                 
  1.805   1.825   1.895   1.946   1.947   1.960   2.028   2.040
 18 Ag   12 B2u  10 B2g  11 B1u  17 B3u  12 B1g   4 B3g  19 Ag                 
  2.239   2.276   2.367   2.474   2.550   2.634   2.661   2.720
 13 B2u  18 B3u  11 B2g   4 Au   20 Ag   13 B1g  19 B3u  20 B3u                
  2.877   2.898   3.453   3.657
 14 B2u  21 Ag   14 B1g  21 B3u                                                
 
 Beta MOs, Restricted
 -- Occupied --                  
-11.236 -11.235  -1.042  -0.782  -0.660  -0.567  -0.515  -0.377
  1 Ag    1 B3u   2 Ag    2 B3u   1 B2u   3 Ag    1 B1g   1 B1u                
 -- Virtual --                   
  0.011   0.012   0.012   0.018   0.018   0.021   0.037   0.037
  3 B3u   2 B2u   2 B1u   2 B1g   1 B2g   4 Ag    4 B3u   3 B2u                
  0.040   0.047   0.047   0.047   0.076   0.081   0.084   0.089
  3 B1u   5 Ag    3 B1g   2 B2g   6 Ag    5 B3u   4 B2u   4 B1u                
  0.091   0.097   0.114   0.139   0.156   0.162   0.174   0.176
  3 B2g   4 B1g   7 Ag    4 B2g   6 B3u   5 B2u   8 Ag    5 B1u                
  0.177   0.179   0.197   0.206   0.209   0.254   0.260   0.282
  5 B1g   7 B3u   9 Ag    1 B3g   5 B2g   8 B3u   6 B2u   1 Au                 
  0.291   0.309   0.312   0.320   0.324   0.346   0.360   0.382
  6 B1u  10 Ag    6 B1g   9 B3u   7 B2u   6 B2g   7 B1u  10 B3u                
  0.386   0.419   0.454   0.456   0.489   0.510   0.541   0.567
 11 Ag    7 B1g  12 Ag    8 B2u  11 B3u   7 B2g  13 Ag    8 B1g                
  0.568   0.593   0.653   0.657   0.706   0.713   0.734   0.842
  2 B3g   9 B2u  12 B3u  14 Ag    8 B1u   2 Au   13 B3u   9 B1g                
  0.913   0.927   1.041   1.059   1.074   1.093   1.133   1.198
 14 B3u   8 B2g  10 B2u   9 B1u  15 Ag   10 B1g   9 B2g  15 B3u                
  1.233   1.278   1.515   1.539   1.583   1.647   1.654   1.797
 11 B2u  16 Ag   16 B3u  11 B1g  17 Ag   10 B1u   3 B3g   3 Au                 
  1.805   1.825   1.895   1.946   1.947   1.960   2.028   2.040
 18 Ag   12 B2u  10 B2g  11 B1u  17 B3u  12 B1g   4 B3g  19 Ag                 
  2.239   2.276   2.367   2.474   2.550   2.634   2.661   2.720
 13 B2u  18 B3u  11 B2g   4 Au   20 Ag   13 B1g  19 B3u  20 B3u                
  2.877   2.898   3.453   3.657
 14 B2u  21 Ag   14 B1g  21 B3u                                                

 Occupation and symmetry of molecular orbitals

 Point group: D2h (8 irreducible representations).

                           Ag   B1g  B2g  B3g  Au   B1u  B2u  B3u   All 
 ------------------------------------------------------------------------
 All molecular orbitals:
  - Alpha                  21   14   11   4    4    11   14   21    100 
  - Beta                   21   14   11   4    4    11   14   21    100 
 ------------------------------------------------------------------------
 Alpha orbitals:
  - Restricted occupied    1    0    0    0    0    0    0    1     2   
  - Active occupied        2    1    0    0    0    1    1    1     6   
  - Active virtual         18   13   11   4    4    10   13   19    92  
  - Restricted virtual     0    0    0    0    0    0    0    0     0   
 ------------------------------------------------------------------------
 Beta orbitals:
  - Restricted occupied    1    0    0    0    0    0    0    1     2   
  - Active occupied        2    1    0    0    0    1    1    1     6   
  - Active virtual         18   13   11   4    4    10   13   19    92  
  - Restricted virtual     0    0    0    0    0    0    0    0     0   
 ------------------------------------------------------------------------

 Import integrals:   CPU 0.00 s  wall 0.00 s

 Import complex integrals:   CPU 22.33 s  wall 2.06 s

 CS-MP2 amplitudes:   CPU 21.31 s  wall 18.14 s

Running ETA trajectory
 --- ETA = 1.0000000000e-03
Adding CAP
Done!
Additional intermediates will be calculated for MP2T
           Solving for CS/CAP-EOMEA-CCSD B2g transitions.

           Complex-valued EOMEA-CCSD right amplitudes will be solved.
           Alpha=1.00e+00    Theta=0.00e+00    Eta=1.00e-03    Re_Eta=0.00e+00 

        Amplitudes will be solved using standard  algorithm.
     Hard-coded thresholds: 
     LinDepThresh=1.00e-15  NormThresh=1.00e-06  ReorthogonThresh=1.00e-02

      Roots     MaxVec    MaxIter   Precond   Conv      Shift    
      5         120       60        1         1.00e-05  0.00e+00  
 ------------------------------------------------------------------------------
      Iter ConvRoots NVecs ResNorm Current eigenvalues (eV)
 ------------------------------------------------------------------------------
      0    0      5     2.38e-02   (0.7397,-0.3048)   (1.2187,-1.4634)   (2.4627,-0.7001)   (4.0554,-0.4415)   (5.9614,-0.3752)   
      1    0      10    1.68e-02   (0.7384,-0.3041)   (1.2444,-1.4518)   (2.2992,-0.5063)   (3.2651,-0.4624)   (5.3050,-0.3057)   
      2    2      15    3.76e-04   (0.7390,-0.3041)*  (1.2402,-1.4516)*  (2.0906,-0.3115)   (2.9572,-0.6117)   (5.1618,-0.5629)   
      3    2      18    6.97e-05   (0.7390,-0.3041)*  (1.2404,-1.4517)*  (2.0768,-0.2993)   (2.9418,-0.6170)   (5.1328,-0.5597)   
      4    3      21    3.09e-05   (0.7390,-0.3041)*  (1.2404,-1.4518)*  (2.0741,-0.2976)*  (2.9391,-0.6180)   (5.1283,-0.5568)   
      5    5      23    1.50e-06   (0.7390,-0.3041)*  (1.2403,-1.4518)*  (2.0739,-0.2976)*  (2.9388,-0.6183)*  (5.1262,-0.5552)*  

     Davidson procedure converged
 Total energies for CS/CAP-EOM-EA states (alpha = 1.00e+00 | theta = 0.00e+00| eta = 1.00e-03):
 State         Re(E)            Im(E)
   1      -78.29558728      -0.01117417
   2      -78.27716273      -0.05335147
   3      -78.24653117      -0.01093669
   4      -78.21474448      -0.02272200
   5      -78.13435772      -0.02040317

 Attachment energies for CS/CAP-EOM-EA states (alpha = 1.00e+00 | theta = 0.00e+00| eta = 1.00e-03):
 State         Re(E)            Im(E)
   1      0.73896681      -0.30406473
   2      1.24032440      -1.45176723
   3      2.07385160      -0.29760237
   4      2.93881137      -0.61829713
   5      5.12624626      -0.55519856

 CS/CAP-EOMEA-CCSD transition 1/B2g
 Total energy = (-78.29558728 , -0.01117417) a.u.  Excitation energy =  (0.7390 , -0.3041) eV.
 (R1|R1) =  (1.0000 , 0.0000)
 (R2|R2) =  (-0.0000 , -0.0000)
 Res^2 = 3.32e-07

 Real part of amplitudes
 Amplitude    Transitions between orbitals
  0.9022       infty       ->    1 (B2g) B                  
 -0.5124       infty       ->    2 (B2g) B                  
  0.1050       infty       ->    3 (B2g) B                  
 -0.0196       infty       ->    5 (B2g) B                  

              Summary of significant orbitals:

               Number  Type             Irrep      Energy
               13      Vir  Beta        1 (B2g)      0.0180
               20      Vir  Beta        2 (B2g)      0.0474
               25      Vir  Beta        3 (B2g)      0.0912
               37      Vir  Beta        5 (B2g)      0.2092

 Imaginary part of amplitudes
 Amplitude    Transitions between orbitals
  0.2488       infty       ->    2 (B2g) B                  
  0.1480       infty       ->    1 (B2g) B                  
 -0.0587       infty       ->    3 (B2g) B                  
 -0.0277       infty       ->    4 (B2g) B                  

              Summary of significant orbitals:

               Number  Type             Irrep      Energy
               13      Vir  Beta        1 (B2g)      0.0000
               20      Vir  Beta        2 (B2g)      0.0000
               25      Vir  Beta        3 (B2g)      0.0000
               28      Vir  Beta        4 (B2g)      0.0000


 CS/CAP-EOMEA-CCSD transition 2/B2g
 Total energy = (-78.27716273 , -0.05335147) a.u.  Excitation energy =  (1.2403 , -1.4518) eV.
 (R1|R1) =  (1.0002 , 0.0001)
 (R2|R2) =  (-0.0002 , -0.0001)
 Res^2 = 3.69e-07

 Real part of amplitudes
 Amplitude    Transitions between orbitals
  0.9136       infty       ->    2 (B2g) B                  
  0.5433       infty       ->    1 (B2g) B                  
 -0.2494       infty       ->    3 (B2g) B                  
  0.0526       infty       ->    4 (B2g) B                  

              Summary of significant orbitals:

               Number  Type             Irrep      Energy
               13      Vir  Beta        1 (B2g)      0.0180
               20      Vir  Beta        2 (B2g)      0.0474
               25      Vir  Beta        3 (B2g)      0.0912
               28      Vir  Beta        4 (B2g)      0.1386

 Imaginary part of amplitudes
 Amplitude    Transitions between orbitals
 -0.3243       infty       ->    3 (B2g) B                  
 -0.2743       infty       ->    1 (B2g) B                  
  0.0780       infty       ->    5 (B2g) B                  
  0.0728       infty       ->    2 (B2g) B                  

              Summary of significant orbitals:

               Number  Type             Irrep      Energy
               13      Vir  Beta        1 (B2g)      0.0000
               20      Vir  Beta        2 (B2g)      0.0000
               25      Vir  Beta        3 (B2g)      0.0000
               37      Vir  Beta        5 (B2g)      0.0000


 CS/CAP-EOMEA-CCSD transition 3/B2g
 Total energy = (-78.24653117 , -0.01093669) a.u.  Excitation energy =  (2.0739 , -0.2976) eV.
 (R1|R1) =  (0.9607 , 0.0206)
 (R2|R2) =  (0.0393 , -0.0206)
 Res^2 = 1.07e-06

 Real part of amplitudes
 Amplitude    Transitions between orbitals
  0.9338       infty       ->    3 (B2g) B                  
 -0.5044       infty       ->    4 (B2g) B                  
  0.1788       infty       ->    2 (B2g) B                  
  0.1155       infty       ->    5 (B2g) B                  

              Summary of significant orbitals:

               Number  Type             Irrep      Energy
               20      Vir  Beta        2 (B2g)      0.0474
               25      Vir  Beta        3 (B2g)      0.0912
               28      Vir  Beta        4 (B2g)      0.1386
               37      Vir  Beta        5 (B2g)      0.2092

 Imaginary part of amplitudes
 Amplitude    Transitions between orbitals
  0.3135       infty       ->    4 (B2g) B                  
  0.2886       infty       ->    2 (B2g) B                  
  0.1304       infty       ->    1 (B2g) B                  
  0.1254       infty       ->    3 (B2g) B                  

              Summary of significant orbitals:

               Number  Type             Irrep      Energy
               13      Vir  Beta        1 (B2g)      0.0000
               20      Vir  Beta        2 (B2g)      0.0000
               25      Vir  Beta        3 (B2g)      0.0000
               28      Vir  Beta        4 (B2g)      0.0000


 CS/CAP-EOMEA-CCSD transition 4/B2g
 Total energy = (-78.21474448 , -0.02272200) a.u.  Excitation energy =  (2.9388 , -0.6183) eV.
 (R1|R1) =  (0.9766 , -0.0160)
 (R2|R2) =  (0.0234 , 0.0160)
 Res^2 = 1.55e-06

 Real part of amplitudes
 Amplitude    Transitions between orbitals
  0.8830       infty       ->    4 (B2g) B                  
  0.5377       infty       ->    3 (B2g) B                  
 -0.2331       infty       ->    5 (B2g) B                  
  0.1739       infty       ->    2 (B2g) B                  

              Summary of significant orbitals:

               Number  Type             Irrep      Energy
               20      Vir  Beta        2 (B2g)      0.0474
               25      Vir  Beta        3 (B2g)      0.0912
               28      Vir  Beta        4 (B2g)      0.1386
               37      Vir  Beta        5 (B2g)      0.2092

 Imaginary part of amplitudes
 Amplitude    Transitions between orbitals
 -0.3588       infty       ->    3 (B2g) B                  
  0.2138       infty       ->    4 (B2g) B                  
  0.0689       infty       ->    1 (B2g) B                  
  0.0675       infty       ->    5 (B2g) B                  

              Summary of significant orbitals:

               Number  Type             Irrep      Energy
               13      Vir  Beta        1 (B2g)      0.0000
               25      Vir  Beta        3 (B2g)      0.0000
               28      Vir  Beta        4 (B2g)      0.0000
               37      Vir  Beta        5 (B2g)      0.0000


 CS/CAP-EOMEA-CCSD transition 5/B2g
 Total energy = (-78.13435772 , -0.02040317) a.u.  Excitation energy =  (5.1262 , -0.5552) eV.
 (R1|R1) =  (0.9762 , -0.0025)
 (R2|R2) =  (0.0238 , 0.0025)
 Res^2 = 4.18e-06

 Real part of amplitudes
 Amplitude    Transitions between orbitals
  0.9475       infty       ->    5 (B2g) B                  
  0.3003       infty       ->    4 (B2g) B                  
 -0.1015       infty       ->    6 (B2g) B                  
 -0.0560       infty       ->    3 (B2g) B                  

              Summary of significant orbitals:

               Number  Type             Irrep      Energy
               25      Vir  Beta        3 (B2g)      0.0912
               28      Vir  Beta        4 (B2g)      0.1386
               37      Vir  Beta        5 (B2g)      0.2092
               46      Vir  Beta        6 (B2g)      0.3456

 Imaginary part of amplitudes
 Amplitude    Transitions between orbitals
 -0.1129       infty       ->    4 (B2g) B                  
 -0.0879       infty       ->    2 (B2g) B                  
  0.0590       infty       ->    6 (B2g) B                  
 -0.0390       infty       ->    3 (B2g) B                  

              Summary of significant orbitals:

               Number  Type             Irrep      Energy
               20      Vir  Beta        2 (B2g)      0.0000
               25      Vir  Beta        3 (B2g)      0.0000
               28      Vir  Beta        4 (B2g)      0.0000
               46      Vir  Beta        6 (B2g)      0.0000


           Complex-valued EOMEA-CCSD left amplitudes will be solved.
           Alpha= 1.00e+00   Theta= 0.00e+00   Eta= 1.00e-03   Re_Eta= 0.00e+00

        Amplitudes will be solved using MOM  algorithm.
     Hard-coded thresholds: 
     LinDepThresh=1.00e-15  NormThresh=1.00e-06  ReorthogonThresh=1.00e-02

      Roots     MaxVec    MaxIter   Precond   Conv      Shift    
      5         120       60        1         1.00e-05  0.00e+00  
 ------------------------------------------------------------------------------
      Iter ConvRoots NVecs ResNorm Current eigenvalues (eV)
 ------------------------------------------------------------------------------
      0    1      5     6.93e-04   (0.7390,-0.3041)*  (1.2403,-1.4518)   (2.0739,-0.2976)   (2.9388,-0.6183)   (5.1262,-0.5552)   
      1    1      9     1.68e-04   (0.7390,-0.3041)*  (1.2403,-1.4518)   (2.0738,-0.2975)   (2.9387,-0.6183)   (5.1266,-0.5550)   
      2    2      13    1.23e-05   (0.7390,-0.3041)*  (1.2403,-1.4518)*  (2.0738,-0.2976)   (2.9388,-0.6183)   (5.1266,-0.5551)   
      3    5      16    2.65e-06   (0.7390,-0.3041)*  (1.2403,-1.4518)*  (2.0738,-0.2976)*  (2.9387,-0.6183)*  (5.1264,-0.5551)*  

     Davidson procedure converged
Corrected energies will be calculated in MO basis
Corrected energies will be calculated in MO basis
Corrected energies will be calculated in MO basis
Corrected energies will be calculated in MO basis
Corrected energies will be calculated in MO basis
 Summary of CS/CAP calculations: 
 CS/CAP parameters: Alpha = 1.00e+00; Theta = 0.00e+00; Eta = 1.00e-03; Re_Eta = 0.00e+00

 Properties for CS/CAP-EOM-CCSD/MP2 state 1/B2g

 Total energy: E_tot = (-78.29558728 , -0.01117417) a.u. 
 First order correction: eta * tr[gamma W] = (0.00261896 , -0.00279057) a.u. 
 Absolute value of first-order correction: 0.00382705 a.u.
 Corrected energy: U_tot = (-78.29820625 , -0.00838360) a.u. 
 ||OPDM(AO)||: alpha = (3.63131175 , 0.00089140); beta = (11430.51224234 , 5814.81526941)
 ||OPDM(MO)||: alpha+beta = (3.63201920 , 0.43760935)
  w_im(MO) = 0.01473085
 Trace of 1-e DM (MO) = (13.00000000 , 0.00000000)
 ||eta*W(AO)||: (0.00000000 , 0.27696936)
 One-electron energy: (-171.09883334 , -0.03110728)
 Separable two electron energy: (59.49799285 , 0.01983555)

 Properties for CS/CAP-EOM-CCSD/MP2 state 2/B2g

 Total energy: E_tot = (-78.27716273 , -0.05335147) a.u. 
 First order correction: eta * tr[gamma W] = (0.00771853 , -0.06964763) a.u. 
 Absolute value of first-order correction: 0.07007402 a.u.
 Corrected energy: U_tot = (-78.28488126 , 0.01629616) a.u. 
 ||OPDM(AO)||: alpha = (3.63045177 , 0.01263329); beta = (5264.47328563 , 6495.01508902)
 ||OPDM(MO)||: alpha+beta = (3.66948361 , 0.68162381)
  w_im(MO) = 0.03573794
 Trace of 1-e DM (MO) = (13.00000000 , -0.00000000)
 ||eta*W(AO)||: (0.00000000 , 0.27696936)
 One-electron energy: (-171.51419585 , 0.10754824)
 Separable two electron energy: (59.93116210 , -0.16094408)

 Properties for CS/CAP-EOM-CCSD/MP2 state 3/B2g

 Total energy: E_tot = (-78.24653117 , -0.01093669) a.u. 
 First order correction: eta * tr[gamma W] = (0.00340362 , -0.00299301) a.u. 
 Absolute value of first-order correction: 0.00453241 a.u.
 Corrected energy: U_tot = (-78.24993478 , -0.00794368) a.u. 
 ||OPDM(AO)||: alpha = (3.82796666 , 0.37757543); beta = (2413.30450244 , 2049.05778958)
 ||OPDM(MO)||: alpha+beta = (3.67433901 , 0.73659114)
  w_im(MO) = 0.04187051
 Trace of 1-e DM (MO) = (13.00000000 , -0.00000000)
 ||eta*W(AO)||: (0.00000000 , 0.27696936)
 One-electron energy: (-173.69913967 , 0.79879772)
 Separable two electron energy: (62.22768197 , -0.85380339)

 Properties for CS/CAP-EOM-CCSD/MP2 state 4/B2g

 Total energy: E_tot = (-78.21474448 , -0.02272200) a.u. 
 First order correction: eta * tr[gamma W] = (-0.00722809 , -0.02330209) a.u. 
 Absolute value of first-order correction: 0.02439739 a.u.
 Corrected energy: U_tot = (-78.20751639 , 0.00058009) a.u. 
 ||OPDM(AO)||: alpha = (3.66418720 , 0.31893390); beta = (17828.03634967 , 2877.60113072)
 ||OPDM(MO)||: alpha+beta = (3.66022056 , 0.66507278)
  w_im(MO) = 0.03414322
 Trace of 1-e DM (MO) = (13.00000000 , 0.00000000)
 ||eta*W(AO)||: (0.00000000 , 0.27696936)
 One-electron energy: (-172.49053246 , -0.73959514)
 Separable two electron energy: (61.01713696 , 0.75055607)

 Properties for CS/CAP-EOM-CCSD/MP2 state 5/B2g

 Total energy: E_tot = (-78.13435772 , -0.02040317) a.u. 
 First order correction: eta * tr[gamma W] = (-0.00323236 , -0.02025921) a.u. 
 Absolute value of first-order correction: 0.02051546 a.u.
 Corrected energy: U_tot = (-78.13112536 , -0.00014396) a.u. 
 ||OPDM(AO)||: alpha = (3.62813075 , 0.05612684); beta = (34932.68748516 , 1430.93635909)
 ||OPDM(MO)||: alpha+beta = (3.60732338 , 0.23713262)
  w_im(MO) = 0.00434003
 Trace of 1-e DM (MO) = (13.00000000 , 0.00000000)
 ||eta*W(AO)||: (0.00000000 , 0.27696936)
 One-electron energy: (-172.34355732 , -0.13813141)
 Separable two electron energy: (60.94269897 , 0.12227454)


 Corrected total energies for CS/CAP-EOM states (alpha = 1.00e+00 | theta = 0.00e+00| eta = 1.00e-03| re_eta = 0.00e+00):
 State         Re(E)            Im(E)
   1      -78.29820625      -0.00838360
   2      -78.28488126      0.01629616
   3      -78.24993478      -0.00794368
   4      -78.20751639      0.00058009
   5      -78.13112536      -0.00014396

 Excited state properties for EOMEA-CCSD transition 1/B2g
 Dipole moment (a.u.): (real, imaginary) = (0.000000 , 0.000000)
 (X (0.000000 , 0.000000), Y (0.000000 , 0.000000), Z (0.000000 , 0.000000))
 R-squared (a.u.): 601.427533 (real, imaginary) = (600.715183, -29.263395)
 (XX (270.140896 , -12.418276), YY (96.243708 , -4.211293), ZZ (234.330580 , -12.633826))

 Excited state properties for EOMEA-CCSD transition 2/B2g
 Dipole moment (a.u.): (real, imaginary) = (0.000000 , 0.000000)
 (X (0.000000 , 0.000000), Y (0.000000 , 0.000000), Z (0.000000 , 0.000000))
 R-squared (a.u.): 289.859488 (real, imaginary) = (281.624131, 68.603001)
 (XX (133.618738 , 28.805063), YY (50.604270 , 9.948496), ZZ (97.401123 , 29.849441))

 Excited state properties for EOMEA-CCSD transition 3/B2g
 Dipole moment (a.u.): (real, imaginary) = (0.000000 , 0.000000)
 (X (0.000000 , 0.000000), Y (0.000000 , 0.000000), Z (0.000000 , 0.000000))
 R-squared (a.u.): 136.151665 (real, imaginary) = (134.047248, 23.845566)
 (XX (70.289111 , 10.074651), YY (30.277856 , 3.041528), ZZ (33.480281 , 10.729387))

 Excited state properties for EOMEA-CCSD transition 4/B2g
 Dipole moment (a.u.): (real, imaginary) = (0.000000 , 0.000000)
 (X (0.000000 , 0.000000), Y (0.000000 , 0.000000), Z (0.000000 , 0.000000))
 R-squared (a.u.): 247.298017 (real, imaginary) = (242.386085, -49.043810)
 (XX (115.810713 , -20.472702), YY (45.666282 , -6.826320), ZZ (80.909090 , -21.744787))

 Excited state properties for EOMEA-CCSD transition 5/B2g
 Dipole moment (a.u.): (real, imaginary) = (0.000000 , 0.000000)
 (X (0.000000 , 0.000000), Y (0.000000 , 0.000000), Z (0.000000 , 0.000000))
 R-squared (a.u.): 225.145385 (real, imaginary) = (225.008623, -7.846287)
 (XX (110.076910 , -3.105980), YY (42.629813 , -1.138877), ZZ (72.301900 , -3.601430))

 --- ETA = 1.200000e-03
Adding CAP
Done!
Additional intermediates will be calculated for MP2T
           Solving for CS/CAP-EOMEA-CCSD B2g transitions.

           Complex-valued EOMEA-CCSD right amplitudes will be solved.
           Alpha=1.00e+00    Theta=0.00e+00    Eta=1.00e-03    Re_Eta=0.00e+00 

        Amplitudes will be solved using standard  algorithm.
     Hard-coded thresholds: 
     LinDepThresh=1.00e-15  NormThresh=1.00e-06  ReorthogonThresh=1.00e-02

      Roots     MaxVec    MaxIter   Precond   Conv      Shift    
      5         120       60        1         1.00e-05  0.00e+00  
 ------------------------------------------------------------------------------
      Iter ConvRoots NVecs ResNorm Current eigenvalues (eV)
 ------------------------------------------------------------------------------
      0    0      5     2.34e-02   (0.7511,-0.3237)   (1.2551,-1.8384)   (2.4574,-0.8043)   (4.0425,-0.5306)   (5.9318,-0.4451)   
      1    0      10    5.31e-03   (0.7497,-0.3231)   (1.2848,-1.8297)   (2.3315,-0.5653)   (3.2106,-0.5611)   (5.3286,-0.6423)   
      2    1      15    3.68e-04   (0.7498,-0.3229)*  (2.1158,-0.3241)   (1.2825,-1.8315)   (2.9194,-0.7416)   (5.1444,-0.6758)   
      3    2      19    3.21e-05   (0.7498,-0.3229)*  (2.0983,-0.3108)   (1.2829,-1.8309)*  (2.9032,-0.7477)   (5.1103,-0.6658)   
      4    4      22    8.77e-06   (0.7498,-0.3229)*  (2.0973,-0.3084)*  (1.2829,-1.8309)*  (2.9015,-0.7479)*  (5.1083,-0.6651)   
      5    5      23    1.82e-06   (0.7498,-0.3229)*  (2.0970,-0.3081)*  (1.2829,-1.8309)*  (2.9012,-0.7480)*  (5.1070,-0.6651)*  

     Davidson procedure converged
 Total energies for CS/CAP-EOM-EA states (alpha = 1.00e+00 | theta = 0.00e+00| eta = 1.00e-03):
 State         Re(E)            Im(E)
   1      -78.29519035      -0.01186750
   2      -78.24568040      -0.01132382
   3      -78.27559835      -0.06728422
   4      -78.21612820      -0.02748922
   5      -78.13506645      -0.02444198

 Attachment energies for CS/CAP-EOM-EA states (alpha = 1.00e+00 | theta = 0.00e+00| eta = 1.00e-03):
 State         Re(E)            Im(E)
   1      0.74976785      -0.32293121
   2      2.09700208      -0.30813682
   3      1.28289340      -1.83089672
   4      2.90115842      -0.74801966
   5      5.10696079      -0.66510010

 CS/CAP-EOMEA-CCSD transition 1/B2g
 Total energy = (-78.29519035 , -0.01186750) a.u.  Excitation energy =  (0.7498 , -0.3229) eV.
 (R1|R1) =  (1.0000 , 0.0000)
 (R2|R2) =  (0.0000 , -0.0000)
 Res^2 = 1.79e-07

 Real part of amplitudes
 Amplitude    Transitions between orbitals
  0.8757       infty       ->    1 (B2g) B                  
 -0.5290       infty       ->    2 (B2g) B                  
  0.1084       infty       ->    3 (B2g) B                  
 -0.0187       infty       ->    5 (B2g) B                  

              Summary of significant orbitals:

               Number  Type             Irrep      Energy
               13      Vir  Beta        1 (B2g)      0.0180
               20      Vir  Beta        2 (B2g)      0.0474
               25      Vir  Beta        3 (B2g)      0.0912
               37      Vir  Beta        5 (B2g)      0.2092

 Imaginary part of amplitudes
 Amplitude    Transitions between orbitals
  0.1968       infty       ->    2 (B2g) B                  
  0.1261       infty       ->    1 (B2g) B                  
 -0.0584       infty       ->    3 (B2g) B                  
 -0.0302       infty       ->    4 (B2g) B                  

              Summary of significant orbitals:

               Number  Type             Irrep      Energy
               13      Vir  Beta        1 (B2g)      0.0000
               20      Vir  Beta        2 (B2g)      0.0000
               25      Vir  Beta        3 (B2g)      0.0000
               28      Vir  Beta        4 (B2g)      0.0000


 CS/CAP-EOMEA-CCSD transition 2/B2g
 Total energy = (-78.24568040 , -0.01132382) a.u.  Excitation energy =  (2.0970 , -0.3081) eV.
 (R1|R1) =  (0.9575 , 0.0231)
 (R2|R2) =  (0.0425 , -0.0231)
 Res^2 = 8.26e-07

 Real part of amplitudes
 Amplitude    Transitions between orbitals
  0.9044       infty       ->    3 (B2g) B                  
 -0.5596       infty       ->    4 (B2g) B                  
  0.2138       infty       ->    2 (B2g) B                  
  0.1151       infty       ->    5 (B2g) B                  

              Summary of significant orbitals:

               Number  Type             Irrep      Energy
               20      Vir  Beta        2 (B2g)      0.0474
               25      Vir  Beta        3 (B2g)      0.0912
               28      Vir  Beta        4 (B2g)      0.1386
               37      Vir  Beta        5 (B2g)      0.2092

 Imaginary part of amplitudes
 Amplitude    Transitions between orbitals
  0.3409       infty       ->    4 (B2g) B                  
  0.2771       infty       ->    2 (B2g) B                  
  0.1600       infty       ->    3 (B2g) B                  
  0.1258       infty       ->    1 (B2g) B                  

              Summary of significant orbitals:

               Number  Type             Irrep      Energy
               13      Vir  Beta        1 (B2g)      0.0000
               20      Vir  Beta        2 (B2g)      0.0000
               25      Vir  Beta        3 (B2g)      0.0000
               28      Vir  Beta        4 (B2g)      0.0000


 CS/CAP-EOMEA-CCSD transition 3/B2g
 Total energy = (-78.27559835 , -0.06728422) a.u.  Excitation energy =  (1.2829 , -1.8309) eV.
 (R1|R1) =  (1.0000 , -0.0000)
 (R2|R2) =  (0.0000 , 0.0000)
 Res^2 = 2.05e-07

 Real part of amplitudes
 Amplitude    Transitions between orbitals
  0.8667       infty       ->    2 (B2g) B                  
  0.5572       infty       ->    1 (B2g) B                  
 -0.3090       infty       ->    3 (B2g) B                  
  0.0508       infty       ->    4 (B2g) B                  

              Summary of significant orbitals:

               Number  Type             Irrep      Energy
               13      Vir  Beta        1 (B2g)      0.0180
               20      Vir  Beta        2 (B2g)      0.0474
               25      Vir  Beta        3 (B2g)      0.0912
               28      Vir  Beta        4 (B2g)      0.1386

 Imaginary part of amplitudes
 Amplitude    Transitions between orbitals
 -0.3048       infty       ->    3 (B2g) B                  
 -0.2305       infty       ->    1 (B2g) B                  
  0.0972       infty       ->    5 (B2g) B                  
  0.0552       infty       ->    6 (B2g) B                  

              Summary of significant orbitals:

               Number  Type             Irrep      Energy
               13      Vir  Beta        1 (B2g)      0.0000
               25      Vir  Beta        3 (B2g)      0.0000
               37      Vir  Beta        5 (B2g)      0.0000
               46      Vir  Beta        6 (B2g)      0.0000


 CS/CAP-EOMEA-CCSD transition 4/B2g
 Total energy = (-78.21612820 , -0.02748922) a.u.  Excitation energy =  (2.9012 , -0.7480) eV.
 (R1|R1) =  (0.9799 , -0.0175)
 (R2|R2) =  (0.0201 , 0.0175)
 Res^2 = 8.85e-07

 Real part of amplitudes
 Amplitude    Transitions between orbitals
  0.8764       infty       ->    4 (B2g) B                  
  0.5834       infty       ->    3 (B2g) B                  
 -0.2348       infty       ->    5 (B2g) B                  
  0.2283       infty       ->    2 (B2g) B                  

              Summary of significant orbitals:

               Number  Type             Irrep      Energy
               20      Vir  Beta        2 (B2g)      0.0474
               25      Vir  Beta        3 (B2g)      0.0912
               28      Vir  Beta        4 (B2g)      0.1386
               37      Vir  Beta        5 (B2g)      0.2092

 Imaginary part of amplitudes
 Amplitude    Transitions between orbitals
 -0.4028       infty       ->    3 (B2g) B                  
  0.2635       infty       ->    4 (B2g) B                  
  0.0892       infty       ->    5 (B2g) B                  
  0.0772       infty       ->    1 (B2g) B                  

              Summary of significant orbitals:

               Number  Type             Irrep      Energy
               13      Vir  Beta        1 (B2g)      0.0000
               25      Vir  Beta        3 (B2g)      0.0000
               28      Vir  Beta        4 (B2g)      0.0000
               37      Vir  Beta        5 (B2g)      0.0000


 CS/CAP-EOMEA-CCSD transition 5/B2g
 Total energy = (-78.13506645 , -0.02444198) a.u.  Excitation energy =  (5.1070 , -0.6651) eV.
 (R1|R1) =  (0.9761 , -0.0023)
 (R2|R2) =  (0.0239 , 0.0023)
 Res^2 = 7.02e-06

 Real part of amplitudes
 Amplitude    Transitions between orbitals
  0.9532       infty       ->    5 (B2g) B                  
  0.3035       infty       ->    4 (B2g) B                  
 -0.0985       infty       ->    6 (B2g) B                  
 -0.0592       infty       ->    3 (B2g) B                  

              Summary of significant orbitals:

               Number  Type             Irrep      Energy
               25      Vir  Beta        3 (B2g)      0.0912
               28      Vir  Beta        4 (B2g)      0.1386
               37      Vir  Beta        5 (B2g)      0.2092
               46      Vir  Beta        6 (B2g)      0.3456

 Imaginary part of amplitudes
 Amplitude    Transitions between orbitals
 -0.1371       infty       ->    4 (B2g) B                  
 -0.1062       infty       ->    2 (B2g) B                  
  0.0674       infty       ->    6 (B2g) B                  
 -0.0482       infty       ->    3 (B2g) B                  

              Summary of significant orbitals:

               Number  Type             Irrep      Energy
               20      Vir  Beta        2 (B2g)      0.0000
               25      Vir  Beta        3 (B2g)      0.0000
               28      Vir  Beta        4 (B2g)      0.0000
               46      Vir  Beta        6 (B2g)      0.0000


           Complex-valued EOMEA-CCSD left amplitudes will be solved.
           Alpha= 1.00e+00   Theta= 0.00e+00   Eta= 1.00e-03   Re_Eta= 0.00e+00

        Amplitudes will be solved using MOM  algorithm.
     Hard-coded thresholds: 
     LinDepThresh=1.00e-15  NormThresh=1.00e-06  ReorthogonThresh=1.00e-02

      Roots     MaxVec    MaxIter   Precond   Conv      Shift    
      5         120       60        1         1.00e-05  0.00e+00  
 ------------------------------------------------------------------------------
      Iter ConvRoots NVecs ResNorm Current eigenvalues (eV)
 ------------------------------------------------------------------------------
      0    2      5     7.11e-04   (0.7498,-0.3229)*  (2.0970,-0.3081)   (1.2829,-1.8309)*  (2.9012,-0.7480)   (5.1070,-0.6651)   
      1    2      8     1.38e-04   (0.7498,-0.3229)*  (2.0970,-0.3082)   (1.2829,-1.8309)*  (2.9012,-0.7480)   (5.1069,-0.6651)   
      2    3      11    1.29e-05   (0.7498,-0.3229)*  (2.0970,-0.3082)   (1.2829,-1.8309)*  (2.9012,-0.7480)   (5.1068,-0.6652)*  
      3    5      13    1.54e-06   (0.7498,-0.3229)*  (2.0970,-0.3082)*  (1.2829,-1.8309)*  (2.9012,-0.7481)*  (5.1068,-0.6652)*  

     Davidson procedure converged
Corrected energies will be calculated in MO basis
Corrected energies will be calculated in MO basis
Corrected energies will be calculated in MO basis
Corrected energies will be calculated in MO basis
Corrected energies will be calculated in MO basis
 Summary of CS/CAP calculations: 
 CS/CAP parameters: Alpha = 1.00e+00; Theta = 0.00e+00; Eta = 1.00e-03; Re_Eta = 0.00e+00

 Properties for CS/CAP-EOM-CCSD/MP2 state 1/B2g

 Total energy: E_tot = (-78.29519035 , -0.01186750) a.u. 
 First order correction: eta * tr[gamma W] = (0.00182206 , -0.00484254) a.u. 
 Absolute value of first-order correction: 0.00517398 a.u.
 Corrected energy: U_tot = (-78.29701241 , -0.00702496) a.u. 
 ||OPDM(AO)||: alpha = (3.63123181 , 0.00082913); beta = (11822.90749291 , 5252.63236257)
 ||OPDM(MO)||: alpha+beta = (3.62283444 , 0.35346190)
  w_im(MO) = 0.00961041
 Trace of 1-e DM (MO) = (13.00000000 , 0.00000000)
 ||eta*W(AO)||: (0.00000000 , 0.33236324)
 One-electron energy: (-171.11131947 , -0.02396198)
 Separable two electron energy: (59.51092945 , 0.01195901)

 Properties for CS/CAP-EOM-CCSD/MP2 state 2/B2g

 Total energy: E_tot = (-78.24568040 , -0.01132382) a.u. 
 First order correction: eta * tr[gamma W] = (0.00584860 , -0.00117935) a.u. 
 Absolute value of first-order correction: 0.00596632 a.u.
 Corrected energy: U_tot = (-78.25152901 , -0.01014447) a.u. 
 ||OPDM(AO)||: alpha = (3.84779837 , 0.42214574); beta = (869.76777187 , 2052.83305919)
 ||OPDM(MO)||: alpha+beta = (3.68320355 , 0.78010224)
  w_im(MO) = 0.04696607
 Trace of 1-e DM (MO) = (13.00000000 , 0.00000000)
 ||eta*W(AO)||: (0.00000000 , 0.33236324)
 One-electron energy: (-173.85372718 , 0.90672662)
 Separable two electron energy: (62.38930203 , -0.96746607)

 Properties for CS/CAP-EOM-CCSD/MP2 state 3/B2g

 Total energy: E_tot = (-78.27559835 , -0.06728422) a.u. 
 First order correction: eta * tr[gamma W] = (0.00935665 , -0.08362268) a.u. 
 Absolute value of first-order correction: 0.08414452 a.u.
 Corrected energy: U_tot = (-78.28495500 , 0.01633846) a.u. 
 ||OPDM(AO)||: alpha = (3.63281108 , 0.01137411); beta = (5932.20736710 , 4993.48919029)
 ||OPDM(MO)||: alpha+beta = (3.65666601 , 0.60932984)
  w_im(MO) = 0.02856039
 Trace of 1-e DM (MO) = (13.00000000 , -0.00000000)
 ||eta*W(AO)||: (0.00000000 , 0.33236324)
 One-electron energy: (-171.48544003 , 0.05872189)
 Separable two electron energy: (59.90461594 , -0.12591661)

 Properties for CS/CAP-EOM-CCSD/MP2 state 4/B2g

 Total energy: E_tot = (-78.21612820 , -0.02748922) a.u. 
 First order correction: eta * tr[gamma W] = (-0.00764625 , -0.02930129) a.u. 
 Absolute value of first-order correction: 0.03028252 a.u.
 Corrected energy: U_tot = (-78.20848195 , 0.00181207) a.u. 
 ||OPDM(AO)||: alpha = (3.65173706 , 0.34958540); beta = (17646.23690806 , 1962.64818955)
 ||OPDM(MO)||: alpha+beta = (3.68445259 , 0.78748407)
  w_im(MO) = 0.04786787
 Trace of 1-e DM (MO) = (13.00000000 , -0.00000000)
 ||eta*W(AO)||: (0.00000000 , 0.33236324)
 One-electron energy: (-172.34902475 , -0.77620913)
 Separable two electron energy: (60.86728886 , 0.78553669)

 Properties for CS/CAP-EOM-CCSD/MP2 state 5/B2g

 Total energy: E_tot = (-78.13506645 , -0.02444198) a.u. 
 First order correction: eta * tr[gamma W] = (-0.00476292 , -0.02421152) a.u. 
 Absolute value of first-order correction: 0.02467556 a.u.
 Corrected energy: U_tot = (-78.13030353 , -0.00023046) a.u. 
 ||OPDM(AO)||: alpha = (3.62945978 , 0.06072105); beta = (35505.67092322 , 1740.12108543)
 ||OPDM(MO)||: alpha+beta = (3.61099858 , 0.28814850)
  w_im(MO) = 0.00640844
 Trace of 1-e DM (MO) = (13.00000000 , 0.00000000)
 ||eta*W(AO)||: (0.00000000 , 0.33236324)
 One-electron energy: (-172.33669339 , -0.17187324)
 Separable two electron energy: (60.93481667 , 0.15291518)


 Corrected total energies for CS/CAP-EOM states (alpha = 1.00e+00 | theta = 0.00e+00| eta = 1.00e-03| re_eta = 0.00e+00):
 State         Re(E)            Im(E)
   1      -78.29701241      -0.00702496
   2      -78.25152901      -0.01014447
   3      -78.28495500      0.01633846
   4      -78.20848195      0.00181207
   5      -78.13030353      -0.00023046

 Excited state properties for EOMEA-CCSD transition 1/B2g
 Dipole moment (a.u.): (real, imaginary) = (0.000000 , 0.000000)
 (X (0.000000 , 0.000000), Y (0.000000 , 0.000000), Z (0.000000 , 0.000000))
 R-squared (a.u.): 595.475382 (real, imaginary) = (595.062710, -22.165313)
 (XX (267.715567 , -9.397034), YY (95.437702 , -3.192365), ZZ (231.909441 , -9.575913))

 Excited state properties for EOMEA-CCSD transition 2/B2g
 Dipole moment (a.u.): (real, imaginary) = (0.000000 , 0.000000)
 (X (0.000000 , 0.000000), Y (0.000000 , 0.000000), Z (0.000000 , 0.000000))
 R-squared (a.u.): 122.758645 (real, imaginary) = (118.923206, 30.445951)
 (XX (63.966035 , 12.869877), YY (28.133571 , 3.942390), ZZ (26.823600 , 13.633684))

 Excited state properties for EOMEA-CCSD transition 3/B2g
 Dipole moment (a.u.): (real, imaginary) = (0.000000 , 0.000000)
 (X (0.000000 , 0.000000), Y (0.000000 , 0.000000), Z (0.000000 , 0.000000))
 R-squared (a.u.): 303.140140 (real, imaginary) = (298.156276, 54.742853)
 (XX (140.590285 , 22.885421), YY (52.999506 , 7.964483), ZZ (104.566485 , 23.892949))

 Excited state properties for EOMEA-CCSD transition 4/B2g
 Dipole moment (a.u.): (real, imaginary) = (0.000000 , 0.000000)
 (X (0.000000 , 0.000000), Y (0.000000 , 0.000000), Z (0.000000 , 0.000000))
 R-squared (a.u.): 250.179317 (real, imaginary) = (245.977732, -45.657926)
 (XX (117.300095 , -19.008308), YY (46.129805 , -6.316156), ZZ (82.547832 , -20.333462))

 Excited state properties for EOMEA-CCSD transition 5/B2g
 Dipole moment (a.u.): (real, imaginary) = (0.000000 , 0.000000)
 (X (0.000000 , 0.000000), Y (0.000000 , 0.000000), Z (0.000000 , 0.000000))
 R-squared (a.u.): 226.201994 (real, imaginary) = (225.984122, -9.925644)
 (XX (110.498574 , -3.906734), YY (42.763183 , -1.446487), ZZ (72.722365 , -4.572423))

 --- ETA = 1.400000e-03
Adding CAP
Done!
Additional intermediates will be calculated for MP2T
           Solving for CS/CAP-EOMEA-CCSD B2g transitions.

           Complex-valued EOMEA-CCSD right amplitudes will be solved.
           Alpha=1.00e+00    Theta=0.00e+00    Eta=1.00e-03    Re_Eta=0.00e+00 

        Amplitudes will be solved using standard  algorithm.
     Hard-coded thresholds: 
     LinDepThresh=1.00e-15  NormThresh=1.00e-06  ReorthogonThresh=1.00e-02

      Roots     MaxVec    MaxIter   Precond   Conv      Shift    
      5         120       60        1         1.00e-05  0.00e+00  
 ------------------------------------------------------------------------------
      Iter ConvRoots NVecs ResNorm Current eigenvalues (eV)
 ------------------------------------------------------------------------------
      0    0      5     2.30e-02   (0.7582,-0.3477)   (1.2882,-2.2167)   (2.4676,-0.9018)   (4.0268,-0.6208)   (5.8971,-0.5121)   
      1    1      10    4.97e-03   (0.7567,-0.3472)*  (2.3893,-0.6157)   (1.3253,-2.2096)   (3.1475,-0.6595)   (5.2955,-0.7575)   
      2    1      14    4.15e-04   (0.7567,-0.3471)*  (2.1443,-0.3252)   (1.3245,-2.2113)   (2.8871,-0.8771)   (5.1176,-0.7756)   
      3    2      18    3.51e-05   (0.7568,-0.3471)*  (2.1263,-0.3121)   (1.3245,-2.2103)*  (2.8736,-0.8840)   (5.0873,-0.7764)   
      4    4      21    9.53e-06   (0.7568,-0.3471)*  (2.1248,-0.3089)*  (1.3245,-2.2103)*  (2.8717,-0.8841)*  (5.0845,-0.7745)   
      5    5      22    3.15e-06   (0.7568,-0.3471)*  (2.1243,-0.3087)*  (1.3245,-2.2103)*  (2.8714,-0.8844)*  (5.0833,-0.7746)*  

     Davidson procedure converged
 Total energies for CS/CAP-EOM-EA states (alpha = 1.00e+00 | theta = 0.00e+00| eta = 1.00e-03):
 State         Re(E)            Im(E)
   1      -78.29493374      -0.01275545
   2      -78.24467578      -0.01134404
   3      -78.27407017      -0.08122662
   4      -78.21722317      -0.03250057
   5      -78.13593762      -0.02846561

 Attachment energies for CS/CAP-EOM-EA states (alpha = 1.00e+00 | theta = 0.00e+00| eta = 1.00e-03):
 State         Re(E)            Im(E)
   1      0.75675064      -0.34709348
   2      2.12433939      -0.30868693
   3      1.32447736      -2.21028868
   4      2.87136270      -0.88438541
   5      5.08325521      -0.77458863

 CS/CAP-EOMEA-CCSD transition 1/B2g
 Total energy = (-78.29493374 , -0.01275545) a.u.  Excitation energy =  (0.7568 , -0.3471) eV.
 (R1|R1) =  (1.0000 , 0.0000)
 (R2|R2) =  (0.0000 , -0.0000)
 Res^2 = 5.57e-06

 Real part of amplitudes
 Amplitude    Transitions between orbitals
  0.8615       infty       ->    1 (B2g) B                  
 -0.5359       infty       ->    2 (B2g) B                  
  0.1127       infty       ->    3 (B2g) B                  
 -0.0176       infty       ->    5 (B2g) B                  

              Summary of significant orbitals:

               Number  Type             Irrep      Energy
               13      Vir  Beta        1 (B2g)      0.0180
               20      Vir  Beta        2 (B2g)      0.0474
               25      Vir  Beta        3 (B2g)      0.0912
               37      Vir  Beta        5 (B2g)      0.2092

 Imaginary part of amplitudes
 Amplitude    Transitions between orbitals
  0.1617       infty       ->    2 (B2g) B                  
  0.1085       infty       ->    1 (B2g) B                  
 -0.0596       infty       ->    3 (B2g) B                  
 -0.0323       infty       ->    4 (B2g) B                  

              Summary of significant orbitals:

               Number  Type             Irrep      Energy
               13      Vir  Beta        1 (B2g)      0.0000
               20      Vir  Beta        2 (B2g)      0.0000
               25      Vir  Beta        3 (B2g)      0.0000
               28      Vir  Beta        4 (B2g)      0.0000


 CS/CAP-EOMEA-CCSD transition 2/B2g
 Total energy = (-78.24467578 , -0.01134404) a.u.  Excitation energy =  (2.1243 , -0.3087) eV.
 (R1|R1) =  (0.9538 , 0.0235)
 (R2|R2) =  (0.0462 , -0.0235)
 Res^2 = 1.73e-06

 Real part of amplitudes
 Amplitude    Transitions between orbitals
  0.8612       infty       ->    3 (B2g) B                  
 -0.6205       infty       ->    4 (B2g) B                  
  0.2282       infty       ->    2 (B2g) B                  
  0.1193       infty       ->    5 (B2g) B                  

              Summary of significant orbitals:

               Number  Type             Irrep      Energy
               20      Vir  Beta        2 (B2g)      0.0474
               25      Vir  Beta        3 (B2g)      0.0912
               28      Vir  Beta        4 (B2g)      0.1386
               37      Vir  Beta        5 (B2g)      0.2092

 Imaginary part of amplitudes
 Amplitude    Transitions between orbitals
  0.3418       infty       ->    4 (B2g) B                  
  0.2646       infty       ->    2 (B2g) B                  
  0.1946       infty       ->    3 (B2g) B                  
  0.1189       infty       ->    1 (B2g) B                  
 -0.1038       infty       ->    5 (B2g) B                  

              Summary of significant orbitals:

               Number  Type             Irrep      Energy
               13      Vir  Beta        1 (B2g)      0.0000
               20      Vir  Beta        2 (B2g)      0.0000
               25      Vir  Beta        3 (B2g)      0.0000
               28      Vir  Beta        4 (B2g)      0.0000
               37      Vir  Beta        5 (B2g)      0.0000


 CS/CAP-EOMEA-CCSD transition 3/B2g
 Total energy = (-78.27407017 , -0.08122662) a.u.  Excitation energy =  (1.3245 , -2.2103) eV.
 (R1|R1) =  (0.9998 , 0.0000)
 (R2|R2) =  (0.0002 , -0.0000)
 Res^2 = 6.40e-07

 Real part of amplitudes
 Amplitude    Transitions between orbitals
  0.8331       infty       ->    2 (B2g) B                  
  0.5613       infty       ->    1 (B2g) B                  
 -0.3529       infty       ->    3 (B2g) B                  
  0.0402       infty       ->    4 (B2g) B                  

              Summary of significant orbitals:

               Number  Type             Irrep      Energy
               13      Vir  Beta        1 (B2g)      0.0180
               20      Vir  Beta        2 (B2g)      0.0474
               25      Vir  Beta        3 (B2g)      0.0912
               28      Vir  Beta        4 (B2g)      0.1386

 Imaginary part of amplitudes
 Amplitude    Transitions between orbitals
 -0.2800       infty       ->    3 (B2g) B                  
 -0.2013       infty       ->    1 (B2g) B                  
  0.1114       infty       ->    5 (B2g) B                  
  0.0641       infty       ->    6 (B2g) B                  

              Summary of significant orbitals:

               Number  Type             Irrep      Energy
               13      Vir  Beta        1 (B2g)      0.0000
               25      Vir  Beta        3 (B2g)      0.0000
               37      Vir  Beta        5 (B2g)      0.0000
               46      Vir  Beta        6 (B2g)      0.0000


 CS/CAP-EOMEA-CCSD transition 4/B2g
 Total energy = (-78.21722317 , -0.03250057) a.u.  Excitation energy =  (2.8714 , -0.8844) eV.
 (R1|R1) =  (0.9838 , -0.0170)
 (R2|R2) =  (0.0162 , 0.0170)
 Res^2 = 1.02e-06

 Real part of amplitudes
 Amplitude    Transitions between orbitals
  0.8537       infty       ->    4 (B2g) B                  
  0.6312       infty       ->    3 (B2g) B                  
  0.2810       infty       ->    2 (B2g) B                  
 -0.2319       infty       ->    5 (B2g) B                  
  0.1152       infty       ->    1 (B2g) B                  

              Summary of significant orbitals:

               Number  Type             Irrep      Energy
               13      Vir  Beta        1 (B2g)      0.0180
               20      Vir  Beta        2 (B2g)      0.0474
               25      Vir  Beta        3 (B2g)      0.0912
               28      Vir  Beta        4 (B2g)      0.1386
               37      Vir  Beta        5 (B2g)      0.2092

 Imaginary part of amplitudes
 Amplitude    Transitions between orbitals
 -0.4183       infty       ->    3 (B2g) B                  
  0.3069       infty       ->    4 (B2g) B                  
  0.1142       infty       ->    5 (B2g) B                  
  0.0838       infty       ->    1 (B2g) B                  

              Summary of significant orbitals:

               Number  Type             Irrep      Energy
               13      Vir  Beta        1 (B2g)      0.0000
               25      Vir  Beta        3 (B2g)      0.0000
               28      Vir  Beta        4 (B2g)      0.0000
               37      Vir  Beta        5 (B2g)      0.0000


 CS/CAP-EOMEA-CCSD transition 5/B2g
 Total energy = (-78.13593762 , -0.02846561) a.u.  Excitation energy =  (5.0833 , -0.7746) eV.
 (R1|R1) =  (0.9765 , -0.0027)
 (R2|R2) =  (0.0235 , 0.0027)
 Res^2 = 6.80e-06

 Real part of amplitudes
 Amplitude    Transitions between orbitals
  0.9604       infty       ->    5 (B2g) B                  
  0.3071       infty       ->    4 (B2g) B                  
 -0.0962       infty       ->    6 (B2g) B                  
 -0.0631       infty       ->    3 (B2g) B                  

              Summary of significant orbitals:

               Number  Type             Irrep      Energy
               25      Vir  Beta        3 (B2g)      0.0912
               28      Vir  Beta        4 (B2g)      0.1386
               37      Vir  Beta        5 (B2g)      0.2092
               46      Vir  Beta        6 (B2g)      0.3456

 Imaginary part of amplitudes
 Amplitude    Transitions between orbitals
 -0.1621       infty       ->    4 (B2g) B                  
 -0.1249       infty       ->    2 (B2g) B                  
  0.0775       infty       ->    6 (B2g) B                  
 -0.0583       infty       ->    3 (B2g) B                  

              Summary of significant orbitals:

               Number  Type             Irrep      Energy
               20      Vir  Beta        2 (B2g)      0.0000
               25      Vir  Beta        3 (B2g)      0.0000
               28      Vir  Beta        4 (B2g)      0.0000
               46      Vir  Beta        6 (B2g)      0.0000


           Complex-valued EOMEA-CCSD left amplitudes will be solved.
           Alpha= 1.00e+00   Theta= 0.00e+00   Eta= 1.00e-03   Re_Eta= 0.00e+00

        Amplitudes will be solved using MOM  algorithm.
     Hard-coded thresholds: 
     LinDepThresh=1.00e-15  NormThresh=1.00e-06  ReorthogonThresh=1.00e-02

      Roots     MaxVec    MaxIter   Precond   Conv      Shift    
      5         120       60        1         1.00e-05  0.00e+00  
 ------------------------------------------------------------------------------
      Iter ConvRoots NVecs ResNorm Current eigenvalues (eV)
 ------------------------------------------------------------------------------
      0    2      5     7.11e-04   (0.7568,-0.3471)*  (2.1243,-0.3087)   (1.3245,-2.2103)*  (2.8714,-0.8844)   (5.0833,-0.7746)   
      1    2      8     1.41e-04   (0.7568,-0.3471)*  (2.1243,-0.3088)   (1.3245,-2.2103)*  (2.8715,-0.8844)   (5.0833,-0.7747)   
      2    3      11    1.37e-05   (0.7568,-0.3471)*  (2.1243,-0.3089)   (1.3245,-2.2103)*  (2.8715,-0.8844)   (5.0833,-0.7747)*  
      3    5      13    2.82e-06   (0.7567,-0.3471)*  (2.1243,-0.3089)*  (1.3245,-2.2103)*  (2.8715,-0.8844)*  (5.0832,-0.7747)*  

     Davidson procedure converged
Corrected energies will be calculated in MO basis
Corrected energies will be calculated in MO basis
Corrected energies will be calculated in MO basis
Corrected energies will be calculated in MO basis
Corrected energies will be calculated in MO basis
 Summary of CS/CAP calculations: 
 CS/CAP parameters: Alpha = 1.00e+00; Theta = 0.00e+00; Eta = 1.00e-03; Re_Eta = 0.00e+00

 Properties for CS/CAP-EOM-CCSD/MP2 state 1/B2g

 Total energy: E_tot = (-78.29493374 , -0.01275545) a.u. 
 First order correction: eta * tr[gamma W] = (0.00146416 , -0.00668945) a.u. 
 Absolute value of first-order correction: 0.00684781 a.u.
 Corrected energy: U_tot = (-78.29639790 , -0.00606600) a.u. 
 ||OPDM(AO)||: alpha = (3.63325272 , 0.00029619); beta = (12103.82615250 , 4974.05413656)
 ||OPDM(MO)||: alpha+beta = (3.61784048 , 0.29794480)
  w_im(MO) = 0.00682855
 Trace of 1-e DM (MO) = (13.00000000 , -0.00000000)
 ||eta*W(AO)||: (0.00000000 , 0.38775711)
 One-electron energy: (-171.11829907 , -0.02275162)
 Separable two electron energy: (59.51818168 , 0.00984379)

 Properties for CS/CAP-EOM-CCSD/MP2 state 2/B2g

 Total energy: E_tot = (-78.24467578 , -0.01134404) a.u. 
 First order correction: eta * tr[gamma W] = (0.00697951 , 0.00086421) a.u. 
 Absolute value of first-order correction: 0.00703282 a.u.
 Corrected energy: U_tot = (-78.25165529 , -0.01220825) a.u. 
 ||OPDM(AO)||: alpha = (3.86929921 , 0.42380228); beta = (447.64625257 , 1498.82449694)
 ||OPDM(MO)||: alpha+beta = (3.68613380 , 0.79127027)
  w_im(MO) = 0.04830536
 Trace of 1-e DM (MO) = (13.00000000 , -0.00000000)
 ||eta*W(AO)||: (0.00000000 , 0.38775711)
 One-electron energy: (-174.02133996 , 0.91277223)
 Separable two electron energy: (62.56568725 , -0.97455755)

 Properties for CS/CAP-EOM-CCSD/MP2 state 3/B2g

 Total energy: E_tot = (-78.27407017 , -0.08122662) a.u. 
 First order correction: eta * tr[gamma W] = (0.01042801 , -0.09765843) a.u. 
 Absolute value of first-order correction: 0.09821360 a.u.
 Corrected energy: U_tot = (-78.28449817 , 0.01643181) a.u. 
 ||OPDM(AO)||: alpha = (3.63310467 , 0.00955792); beta = (6448.42835046 , 3700.20115868)
 ||OPDM(MO)||: alpha+beta = (3.64822851 , 0.55669661)
  w_im(MO) = 0.02383994
 Trace of 1-e DM (MO) = (13.00000000 , 0.00000000)
 ||eta*W(AO)||: (0.00000000 , 0.38775711)
 One-electron energy: (-171.46376455 , 0.02375272)
 Separable two electron energy: (59.88472871 , -0.10505178)

 Properties for CS/CAP-EOM-CCSD/MP2 state 4/B2g

 Total energy: E_tot = (-78.21722317 , -0.03250057) a.u. 
 First order correction: eta * tr[gamma W] = (-0.00611349 , -0.03591919) a.u. 
 Absolute value of first-order correction: 0.03643574 a.u.
 Corrected energy: U_tot = (-78.21110968 , 0.00341863) a.u. 
 ||OPDM(AO)||: alpha = (3.63993003 , 0.34398738); beta = (17117.18790529 , 1443.68818405)
 ||OPDM(MO)||: alpha+beta = (3.70318734 , 0.86826231)
  w_im(MO) = 0.05817098
 Trace of 1-e DM (MO) = (13.00000000 , -0.00000000)
 ||eta*W(AO)||: (0.00000000 , 0.38775711)
 One-electron energy: (-172.19430301 , -0.71946388)
 Separable two electron energy: (60.70345396 , 0.72283362)

 Properties for CS/CAP-EOM-CCSD/MP2 state 5/B2g

 Total energy: E_tot = (-78.13593762 , -0.02846561) a.u. 
 First order correction: eta * tr[gamma W] = (-0.00660624 , -0.02807971) a.u. 
 Absolute value of first-order correction: 0.02884636 a.u.
 Corrected energy: U_tot = (-78.12933137 , -0.00038590) a.u. 
 ||OPDM(AO)||: alpha = (3.62807562 , 0.07324391); beta = (36209.51926263 , 1870.25425694)
 ||OPDM(MO)||: alpha+beta = (3.61576860 , 0.34210519)
  w_im(MO) = 0.00903282
 Trace of 1-e DM (MO) = (13.00000000 , -0.00000000)
 ||eta*W(AO)||: (0.00000000 , 0.38775711)
 One-electron energy: (-172.33113842 , -0.20468522)
 Separable two electron energy: (60.92795915 , 0.18267824)


 Corrected total energies for CS/CAP-EOM states (alpha = 1.00e+00 | theta = 0.00e+00| eta = 1.00e-03| re_eta = 0.00e+00):
 State         Re(E)            Im(E)
   1      -78.29639790      -0.00606600
   2      -78.25165529      -0.01220825
   3      -78.28449817      0.01643181
   4      -78.21110968      0.00341863
   5      -78.12933137      -0.00038590

 Excited state properties for EOMEA-CCSD transition 1/B2g
 Dipole moment (a.u.): (real, imaginary) = (0.000000 , 0.000000)
 (X (0.000000 , 0.000000), Y (0.000000 , 0.000000), Z (0.000000 , 0.000000))
 R-squared (a.u.): 592.273806 (real, imaginary) = (591.962452, -19.202000)
 (XX (266.386218 , -8.138077), YY (94.994667 , -2.766136), ZZ (230.581568 , -8.297787))

 Excited state properties for EOMEA-CCSD transition 2/B2g
 Dipole moment (a.u.): (real, imaginary) = (0.000000 , 0.000000)
 (X (0.000000 , 0.000000), Y (0.000000 , 0.000000), Z (0.000000 , 0.000000))
 R-squared (a.u.): 110.789724 (real, imaginary) = (106.639144, 30.040903)
 (XX (58.835570 , 12.722119), YY (26.416874 , 3.868304), ZZ (21.386701 , 13.450481))

 Excited state properties for EOMEA-CCSD transition 3/B2g
 Dipole moment (a.u.): (real, imaginary) = (0.000000 , 0.000000)
 (X (0.000000 , 0.000000), Y (0.000000 , 0.000000), Z (0.000000 , 0.000000))
 R-squared (a.u.): 312.699167 (real, imaginary) = (309.474717, 44.790272)
 (XX (145.342889 , 18.653469), YY (54.642849 , 6.532893), ZZ (109.488979 , 19.603910))

 Excited state properties for EOMEA-CCSD transition 4/B2g
 Dipole moment (a.u.): (real, imaginary) = (0.000000 , 0.000000)
 (X (0.000000 , 0.000000), Y (0.000000 , 0.000000), Z (0.000000 , 0.000000))
 R-squared (a.u.): 251.703625 (real, imaginary) = (249.294222, -34.743429)
 (XX (118.675948 , -14.399226), YY (46.543400 , -4.746422), ZZ (84.074874 , -15.597781))

 Excited state properties for EOMEA-CCSD transition 5/B2g
 Dipole moment (a.u.): (real, imaginary) = (0.000000 , 0.000000)
 (X (0.000000 , 0.000000), Y (0.000000 , 0.000000), Z (0.000000 , 0.000000))
 R-squared (a.u.): 227.418767 (real, imaginary) = (227.086776, -12.283786)
 (XX (110.995033 , -4.853304), YY (42.912358 , -1.789280), ZZ (73.179386 , -5.641201))

 --- ETA = 1.600000e-03
Adding CAP
Done!
Additional intermediates will be calculated for MP2T
           Solving for CS/CAP-EOMEA-CCSD B2g transitions.

           Complex-valued EOMEA-CCSD right amplitudes will be solved.
           Alpha=1.00e+00    Theta=0.00e+00    Eta=1.00e-03    Re_Eta=0.00e+00 

        Amplitudes will be solved using standard  algorithm.
     Hard-coded thresholds: 
     LinDepThresh=1.00e-15  NormThresh=1.00e-06  ReorthogonThresh=1.00e-02

      Roots     MaxVec    MaxIter   Precond   Conv      Shift    
      5         120       60        1         1.00e-05  0.00e+00  
 ------------------------------------------------------------------------------
      Iter ConvRoots NVecs ResNorm Current eigenvalues (eV)
 ------------------------------------------------------------------------------
      0    0      5     2.26e-02   (0.7634,-0.3749)   (2.4938,-0.9974)   (1.3157,-2.5956)   (4.0075,-0.7126)   (5.8575,-0.5757)   
      1    1      10    4.72e-03   (0.7617,-0.3746)*  (2.4772,-0.6482)   (1.3630,-2.5899)   (3.0667,-0.7739)   (5.2583,-0.8668)   
      2    1      14    3.76e-04   (0.7617,-0.3745)*  (2.1704,-0.3202)   (1.3646,-2.5907)   (2.8675,-1.0198)   (5.0778,-0.8815)   
      3    2      18    3.66e-05   (0.7617,-0.3744)*  (2.1524,-0.3058)   (1.3639,-2.5901)*  (2.8567,-1.0263)   (5.0599,-0.8852)   
      4    4      21    8.97e-06   (0.7617,-0.3744)*  (2.1501,-0.3028)*  (1.3639,-2.5901)*  (2.8550,-1.0266)*  (5.0566,-0.8835)   
      5    5      22    2.86e-06   (0.7617,-0.3744)*  (2.1496,-0.3027)*  (1.3639,-2.5901)*  (2.8548,-1.0267)*  (5.0555,-0.8835)*  

     Davidson procedure converged
 Total energies for CS/CAP-EOM-EA states (alpha = 1.00e+00 | theta = 0.00e+00| eta = 1.00e-03):
 State         Re(E)            Im(E)
   1      -78.29475068      -0.01376044
   2      -78.24374579      -0.01112368
   3      -78.27262226      -0.09518464
   4      -78.21783110      -0.03773146
   5      -78.13695905      -0.03246754

 Attachment energies for CS/CAP-EOM-EA states (alpha = 1.00e+00 | theta = 0.00e+00| eta = 1.00e-03):
 State         Re(E)            Im(E)
   1      0.76173201      -0.37444062
   2      2.14964566      -0.30269070
   3      1.36387674      -2.59010565
   4      2.85482029      -1.02672522
   5      5.05546046      -0.88348679

 CS/CAP-EOMEA-CCSD transition 1/B2g
 Total energy = (-78.29475068 , -0.01376044) a.u.  Excitation energy =  (0.7617 , -0.3744) eV.
 (R1|R1) =  (1.0000 , 0.0000)
 (R2|R2) =  (0.0000 , -0.0000)
 Res^2 = 5.67e-06

 Real part of amplitudes
 Amplitude    Transitions between orbitals
  0.8531       infty       ->    1 (B2g) B                  
 -0.5390       infty       ->    2 (B2g) B                  
  0.1175       infty       ->    3 (B2g) B                  
 -0.0165       infty       ->    5 (B2g) B                  

              Summary of significant orbitals:

               Number  Type             Irrep      Energy
               13      Vir  Beta        1 (B2g)      0.0180
               20      Vir  Beta        2 (B2g)      0.0474
               25      Vir  Beta        3 (B2g)      0.0912
               37      Vir  Beta        5 (B2g)      0.2092

 Imaginary part of amplitudes
 Amplitude    Transitions between orbitals
  0.1363       infty       ->    2 (B2g) B                  
  0.0948       infty       ->    1 (B2g) B                  
 -0.0612       infty       ->    3 (B2g) B                  
 -0.0340       infty       ->    4 (B2g) B                  

              Summary of significant orbitals:

               Number  Type             Irrep      Energy
               13      Vir  Beta        1 (B2g)      0.0000
               20      Vir  Beta        2 (B2g)      0.0000
               25      Vir  Beta        3 (B2g)      0.0000
               28      Vir  Beta        4 (B2g)      0.0000


 CS/CAP-EOMEA-CCSD transition 2/B2g
 Total energy = (-78.24374579 , -0.01112368) a.u.  Excitation energy =  (2.1496 , -0.3027) eV.
 (R1|R1) =  (0.9506 , 0.0221)
 (R2|R2) =  (0.0494 , -0.0221)
 Res^2 = 1.11e-06

 Real part of amplitudes
 Amplitude    Transitions between orbitals
  0.8107       infty       ->    3 (B2g) B                  
 -0.6721       infty       ->    4 (B2g) B                  
  0.2313       infty       ->    2 (B2g) B                  
  0.1255       infty       ->    5 (B2g) B                  

              Summary of significant orbitals:

               Number  Type             Irrep      Energy
               20      Vir  Beta        2 (B2g)      0.0474
               25      Vir  Beta        3 (B2g)      0.0912
               28      Vir  Beta        4 (B2g)      0.1386
               37      Vir  Beta        5 (B2g)      0.2092

 Imaginary part of amplitudes
 Amplitude    Transitions between orbitals
  0.3212       infty       ->    4 (B2g) B                  
  0.2507       infty       ->    2 (B2g) B                  
  0.2168       infty       ->    3 (B2g) B                  
 -0.1104       infty       ->    5 (B2g) B                  
  0.1102       infty       ->    1 (B2g) B                  

              Summary of significant orbitals:

               Number  Type             Irrep      Energy
               13      Vir  Beta        1 (B2g)      0.0000
               20      Vir  Beta        2 (B2g)      0.0000
               25      Vir  Beta        3 (B2g)      0.0000
               28      Vir  Beta        4 (B2g)      0.0000
               37      Vir  Beta        5 (B2g)      0.0000


 CS/CAP-EOMEA-CCSD transition 3/B2g
 Total energy = (-78.27262226 , -0.09518464) a.u.  Excitation energy =  (1.3639 , -2.5901) eV.
 (R1|R1) =  (0.9998 , 0.0001)
 (R2|R2) =  (0.0002 , -0.0001)
 Res^2 = 4.89e-07

 Real part of amplitudes
 Amplitude    Transitions between orbitals
  0.8075       infty       ->    2 (B2g) B                  
  0.5616       infty       ->    1 (B2g) B                  
 -0.3850       infty       ->    3 (B2g) B                  
  0.0469       infty       ->    5 (B2g) B                  

              Summary of significant orbitals:

               Number  Type             Irrep      Energy
               13      Vir  Beta        1 (B2g)      0.0180
               20      Vir  Beta        2 (B2g)      0.0474
               25      Vir  Beta        3 (B2g)      0.0912
               37      Vir  Beta        5 (B2g)      0.2092

 Imaginary part of amplitudes
 Amplitude    Transitions between orbitals
 -0.2543       infty       ->    3 (B2g) B                  
 -0.1802       infty       ->    1 (B2g) B                  
  0.1213       infty       ->    5 (B2g) B                  
  0.0735       infty       ->    6 (B2g) B                  

              Summary of significant orbitals:

               Number  Type             Irrep      Energy
               13      Vir  Beta        1 (B2g)      0.0000
               25      Vir  Beta        3 (B2g)      0.0000
               37      Vir  Beta        5 (B2g)      0.0000
               46      Vir  Beta        6 (B2g)      0.0000


 CS/CAP-EOMEA-CCSD transition 4/B2g
 Total energy = (-78.21783110 , -0.03773146) a.u.  Excitation energy =  (2.8548 , -1.0267) eV.
 (R1|R1) =  (0.9872 , -0.0147)
 (R2|R2) =  (0.0128 , 0.0147)
 Res^2 = 6.64e-07

 Real part of amplitudes
 Amplitude    Transitions between orbitals
  0.8210       infty       ->    4 (B2g) B                  
  0.6692       infty       ->    3 (B2g) B                  
  0.3260       infty       ->    2 (B2g) B                  
 -0.2248       infty       ->    5 (B2g) B                  
  0.1295       infty       ->    1 (B2g) B                  

              Summary of significant orbitals:

               Number  Type             Irrep      Energy
               13      Vir  Beta        1 (B2g)      0.0180
               20      Vir  Beta        2 (B2g)      0.0474
               25      Vir  Beta        3 (B2g)      0.0912
               28      Vir  Beta        4 (B2g)      0.1386
               37      Vir  Beta        5 (B2g)      0.2092

 Imaginary part of amplitudes
 Amplitude    Transitions between orbitals
 -0.4082       infty       ->    3 (B2g) B                  
  0.3352       infty       ->    4 (B2g) B                  
  0.1432       infty       ->    5 (B2g) B                  
  0.0880       infty       ->    1 (B2g) B                  

              Summary of significant orbitals:

               Number  Type             Irrep      Energy
               13      Vir  Beta        1 (B2g)      0.0000
               25      Vir  Beta        3 (B2g)      0.0000
               28      Vir  Beta        4 (B2g)      0.0000
               37      Vir  Beta        5 (B2g)      0.0000


 CS/CAP-EOMEA-CCSD transition 5/B2g
 Total energy = (-78.13695905 , -0.03246754) a.u.  Excitation energy =  (5.0555 , -0.8835) eV.
[...]
               20      Vir  Beta        2 (B2g)      0.0000
               25      Vir  Beta        3 (B2g)      0.0000
               28      Vir  Beta        4 (B2g)      0.0000


 CS/CAP-EOMEA-CCSD transition 2/B2g
 Total energy = (-78.23851601 , -0.00914599) a.u.  Excitation energy =  (2.2920 , -0.2489) eV.
 (R1|R1) =  (0.9444 , 0.0102)
 (R2|R2) =  (0.0556 , -0.0102)
 Res^2 = 6.10e-07

 Real part of amplitudes
 Amplitude    Transitions between orbitals
  0.7777       infty       ->    4 (B2g) B                  
 -0.5672       infty       ->    3 (B2g) B                  
 -0.2178       infty       ->    5 (B2g) B                  
 -0.2013       infty       ->    2 (B2g) B                  

              Summary of significant orbitals:

               Number  Type             Irrep      Energy
               20      Vir  Beta        2 (B2g)      0.0474
               25      Vir  Beta        3 (B2g)      0.0912
               28      Vir  Beta        4 (B2g)      0.1386
               37      Vir  Beta        5 (B2g)      0.2092

 Imaginary part of amplitudes
 Amplitude    Transitions between orbitals
  0.1636       infty       ->    5 (B2g) B                  
 -0.1438       infty       ->    3 (B2g) B                  
 -0.1366       infty       ->    2 (B2g) B                  
 -0.0909       infty       ->    4 (B2g) B                  

              Summary of significant orbitals:

               Number  Type             Irrep      Energy
               20      Vir  Beta        2 (B2g)      0.0000
               25      Vir  Beta        3 (B2g)      0.0000
               28      Vir  Beta        4 (B2g)      0.0000
               37      Vir  Beta        5 (B2g)      0.0000


 CS/CAP-EOMEA-CCSD transition 3/B2g
 Total energy = (-78.16470001 , -0.06939531) a.u.  Excitation energy =  (4.3006 , -1.8883) eV.
 (R1|R1) =  (0.9766 , 0.0004)
 (R2|R2) =  (0.0234 , -0.0004)
 Res^2 = 3.97e-07

 Real part of amplitudes
 Amplitude    Transitions between orbitals
  1.0157       infty       ->    5 (B2g) B                  
 -0.4370       infty       ->    3 (B2g) B                  
 -0.3914       infty       ->    2 (B2g) B                  
 -0.1422       infty       ->    1 (B2g) B                  

              Summary of significant orbitals:

               Number  Type             Irrep      Energy
               13      Vir  Beta        1 (B2g)      0.0180
               20      Vir  Beta        2 (B2g)      0.0474
               25      Vir  Beta        3 (B2g)      0.0912
               37      Vir  Beta        5 (B2g)      0.2092

 Imaginary part of amplitudes
 Amplitude    Transitions between orbitals
 -0.5240       infty       ->    4 (B2g) B                  
  0.2490       infty       ->    6 (B2g) B                  
 -0.2393       infty       ->    2 (B2g) B                  
 -0.1306       infty       ->    5 (B2g) B                  

              Summary of significant orbitals:

               Number  Type             Irrep      Energy
               20      Vir  Beta        2 (B2g)      0.0000
               28      Vir  Beta        4 (B2g)      0.0000
               37      Vir  Beta        5 (B2g)      0.0000
               46      Vir  Beta        6 (B2g)      0.0000


 CS/CAP-EOMEA-CCSD transition 4/B2g
 Total energy = (-78.19157792 , -0.15033160) a.u.  Excitation energy =  (3.5692 , -4.0907) eV.
 (R1|R1) =  (1.0005 , 0.0000)
 (R2|R2) =  (-0.0005 , -0.0000)
 Res^2 = 7.56e-07

 Real part of amplitudes
 Amplitude    Transitions between orbitals
  0.7979       infty       ->    4 (B2g) B                  
  0.5777       infty       ->    3 (B2g) B                  
  0.3987       infty       ->    5 (B2g) B                  
  0.3763       infty       ->    2 (B2g) B                  

              Summary of significant orbitals:

               Number  Type             Irrep      Energy
               20      Vir  Beta        2 (B2g)      0.0474
               25      Vir  Beta        3 (B2g)      0.0912
               28      Vir  Beta        4 (B2g)      0.1386
               37      Vir  Beta        5 (B2g)      0.2092

 Imaginary part of amplitudes
 Amplitude    Transitions between orbitals
  0.4111       infty       ->    5 (B2g) B                  
 -0.2400       infty       ->    3 (B2g) B                  
 -0.2093       infty       ->    2 (B2g) B                  
  0.0701       infty       ->    4 (B2g) B                  

              Summary of significant orbitals:

               Number  Type             Irrep      Energy
               20      Vir  Beta        2 (B2g)      0.0000
               25      Vir  Beta        3 (B2g)      0.0000
               28      Vir  Beta        4 (B2g)      0.0000
               37      Vir  Beta        5 (B2g)      0.0000


 CS/CAP-EOMEA-CCSD transition 5/B2g
 Total energy = (-78.02093634 , -0.05793792) a.u.  Excitation energy =  (8.2126 , -1.5766) eV.
 (R1|R1) =  (0.8998 , -0.0446)
 (R2|R2) =  (0.1002 , 0.0446)
 Res^2 = 5.81e-06

 Real part of amplitudes
 Amplitude    Transitions between orbitals
 -0.9746       infty       ->    6 (B2g) B                  
  0.1383       infty       ->    4 (B2g) B                  
  0.1246       infty       ->    2 (B2g) B                  
 -0.1001       infty       ->    7 (B2g) B                  

              Summary of significant orbitals:

               Number  Type             Irrep      Energy
               20      Vir  Beta        2 (B2g)      0.0474
               28      Vir  Beta        4 (B2g)      0.1386
               46      Vir  Beta        6 (B2g)      0.3456
               54      Vir  Beta        7 (B2g)      0.5104

 Imaginary part of amplitudes
 Amplitude    Transitions between orbitals
  0.2822       infty       ->    5 (B2g) B                  
 -0.1588       infty       ->    3 (B2g) B                  
  0.1012       infty       ->    7 (B2g) B                  
  0.0298       infty       ->    1 (B2g) B                  

              Summary of significant orbitals:

               Number  Type             Irrep      Energy
               13      Vir  Beta        1 (B2g)      0.0000
               25      Vir  Beta        3 (B2g)      0.0000
               37      Vir  Beta        5 (B2g)      0.0000
               54      Vir  Beta        7 (B2g)      0.0000


           Complex-valued EOMEA-CCSD left amplitudes will be solved.
           Alpha= 1.00e+00   Theta= 0.00e+00   Eta= 1.00e-03   Re_Eta= 0.00e+00

        Amplitudes will be solved using MOM  algorithm.
     Hard-coded thresholds: 
     LinDepThresh=1.00e-15  NormThresh=1.00e-06  ReorthogonThresh=1.00e-02

      Roots     MaxVec    MaxIter   Precond   Conv      Shift    
      5         120       60        1         1.00e-05  0.00e+00  
 ------------------------------------------------------------------------------
      Iter ConvRoots NVecs ResNorm Current eigenvalues (eV)
 ------------------------------------------------------------------------------
      0    1      5     7.62e-04   (0.7928,-0.9057)*  (2.2920,-0.2489)   (4.3006,-1.8883)   (3.5692,-4.0907)   (8.2126,-1.5766)   
      1    2      8     1.40e-04   (0.7928,-0.9057)*  (2.2918,-0.2489)   (4.3005,-1.8884)   (3.5692,-4.0907)*  (8.2126,-1.5760)   
      2    2      11    1.56e-05   (0.7928,-0.9057)*  (2.2919,-0.2490)   (4.3006,-1.8885)   (3.5692,-4.0907)*  (8.2130,-1.5724)   
      3    4      14    6.05e-06   (0.7928,-0.9057)*  (2.2919,-0.2490)*  (4.3006,-1.8884)*  (3.5692,-4.0907)*  (8.2142,-1.5700)   
      4    4      15    6.97e-06   (0.7928,-0.9057)*  (2.2919,-0.2490)*  (4.3006,-1.8884)*  (3.5692,-4.0907)*  (8.2138,-1.5692)   
      5    5      16    1.97e-06   (0.7928,-0.9057)*  (2.2919,-0.2490)*  (4.3006,-1.8884)*  (3.5692,-4.0907)*  (8.2146,-1.5694)*  

     Davidson procedure converged
Corrected energies will be calculated in MO basis
Corrected energies will be calculated in MO basis
Corrected energies will be calculated in MO basis
Corrected energies will be calculated in MO basis
Corrected energies will be calculated in MO basis
 Summary of CS/CAP calculations: 
 CS/CAP parameters: Alpha = 1.00e+00; Theta = 0.00e+00; Eta = 1.00e-03; Re_Eta = 0.00e+00

 Properties for CS/CAP-EOM-CCSD/MP2 state 1/B2g

 Total energy: E_tot = (-78.29360752 , -0.03328526) a.u. 
 First order correction: eta * tr[gamma W] = (0.00083522 , -0.03059437) a.u. 
 Absolute value of first-order correction: 0.03060577 a.u.
 Corrected energy: U_tot = (-78.29444273 , -0.00269089) a.u. 
 ||OPDM(AO)||: alpha = (3.63144695 , 0.00253554); beta = (15299.62876904 , 4403.69915887)
 ||OPDM(MO)||: alpha+beta = (3.60744271 , 0.11713641)
  w_im(MO) = 0.00105546
 Trace of 1-e DM (MO) = (13.00000000 , -0.00000000)
 ||eta*W(AO)||: (0.00000000 , 1.32945294)
 One-electron energy: (-171.12145143 , -0.04106741)
 Separable two electron energy: (59.52270901 , 0.00737243)

 Properties for CS/CAP-EOM-CCSD/MP2 state 2/B2g

 Total energy: E_tot = (-78.23851601 , -0.00914599) a.u. 
 First order correction: eta * tr[gamma W] = (0.00491514 , -0.00000312) a.u. 
 Absolute value of first-order correction: 0.00491514 a.u.
 Corrected energy: U_tot = (-78.24343115 , -0.00914287) a.u. 
 ||OPDM(AO)||: alpha = (3.92109015 , 0.15742942); beta = (91.66385268 , 236.09072946)
 ||OPDM(MO)||: alpha+beta = (3.62694800 , 0.40275772)
  w_im(MO) = 0.01248515
 Trace of 1-e DM (MO) = (13.00000000 , 0.00000000)
 ||eta*W(AO)||: (0.00000000 , 1.32945294)
 One-electron energy: (-174.31165583 , 0.39954702)
 Separable two electron energy: (62.88288964 , -0.43423462)

 Properties for CS/CAP-EOM-CCSD/MP2 state 3/B2g

 Total energy: E_tot = (-78.16470001 , -0.06939531) a.u. 
 First order correction: eta * tr[gamma W] = (-0.00415164 , -0.02466304) a.u. 
 Absolute value of first-order correction: 0.02501003 a.u.
 Corrected energy: U_tot = (-78.16054836 , -0.04473227) a.u. 
 ||OPDM(AO)||: alpha = (3.62069498 , 0.15211224); beta = (21236.90511958 , 10110.46999058)
 ||OPDM(MO)||: alpha+beta = (3.76006535 , 1.08604751)
  w_im(MO) = 0.09102063
 Trace of 1-e DM (MO) = (13.00000000 , 0.00000000)
 ||eta*W(AO)||: (0.00000000 , 1.32945294)
 One-electron energy: (-172.72806949 , -0.19363073)
 Separable two electron energy: (61.30068033 , 0.12815340)

 Properties for CS/CAP-EOM-CCSD/MP2 state 4/B2g

 Total energy: E_tot = (-78.19157792 , -0.15033160) a.u. 
 First order correction: eta * tr[gamma W] = (0.01549323 , -0.20146840) a.u. 
 Absolute value of first-order correction: 0.20206324 a.u.
 Corrected energy: U_tot = (-78.20707115 , 0.05113680) a.u. 
 ||OPDM(AO)||: alpha = (3.63521811 , 0.02515370); beta = (34599.87657577 , 26742.65439256)
 ||OPDM(MO)||: alpha+beta = (3.70408170 , 0.84796569)
  w_im(MO) = 0.05530622
 Trace of 1-e DM (MO) = (13.00000000 , 0.00000000)
 ||eta*W(AO)||: (0.00000000 , 1.32945294)
 One-electron energy: (-171.38525810 , 0.01098649)
 Separable two electron energy: (59.88727052 , -0.16215337)

 Properties for CS/CAP-EOM-CCSD/MP2 state 5/B2g

 Total energy: E_tot = (-78.02093634 , -0.05793792) a.u. 
 First order correction: eta * tr[gamma W] = (-0.02138265 , -0.03868674) a.u. 
 Absolute value of first-order correction: 0.04420274 a.u.
 Corrected energy: U_tot = (-77.99955369 , -0.01925118) a.u. 
 ||OPDM(AO)||: alpha = (4.59361477 , 5.63550319); beta = (38689.08143608 , 9532.33236235)
 ||OPDM(MO)||: alpha+beta = (3.61471046 , 0.49634497)
  w_im(MO) = 0.01921706
 Trace of 1-e DM (MO) = (13.00000000 , -0.00000000)
 ||eta*W(AO)||: (0.00000000 , 1.32945294)
 One-electron energy: (-172.65192241 , -0.20473377)
 Separable two electron energy: (61.39971487 , 0.16601568)


 Corrected total energies for CS/CAP-EOM states (alpha = 1.00e+00 | theta = 0.00e+00| eta = 1.00e-03| re_eta = 0.00e+00):
 State         Re(E)            Im(E)
   1      -78.29444273      -0.00269089
   2      -78.24343115      -0.00914287
   3      -78.16054836      -0.04473227
   4      -78.20707115      0.05113680
   5      -77.99955369      -0.01925118

 Excited state properties for EOMEA-CCSD transition 1/B2g
 Dipole moment (a.u.): (real, imaginary) = (0.000000 , 0.000000)
 (X (0.000000 , 0.000000), Y (0.000000 , 0.000000), Z (0.000000 , 0.000000))
 R-squared (a.u.): 594.243424 (real, imaginary) = (594.130806, -11.568594)
 (XX (267.267833 , -4.907056), YY (95.317359 , -1.665300), ZZ (231.545614 , -4.996238))

 Excited state properties for EOMEA-CCSD transition 2/B2g
 Dipole moment (a.u.): (real, imaginary) = (0.000000 , 0.000000)
 (X (0.000000 , 0.000000), Y (0.000000 , 0.000000), Z (0.000000 , 0.000000))
 R-squared (a.u.): 100.964963 (real, imaginary) = (100.719487, 7.036241)
 (XX (56.245625 , 3.111888), YY (25.774267 , 0.746081), ZZ (18.699595 , 3.178272))

 Excited state properties for EOMEA-CCSD transition 3/B2g
 Dipole moment (a.u.): (real, imaginary) = (0.000000 , 0.000000)
 (X (0.000000 , 0.000000), Y (0.000000 , 0.000000), Z (0.000000 , 0.000000))
 R-squared (a.u.): 160.527315 (real, imaginary) = (158.695859, -24.179400)
 (XX (82.750312 , -9.758816), YY (32.938653 , -3.504757), ZZ (43.006894 , -10.915826))

 Excited state properties for EOMEA-CCSD transition 4/B2g
 Dipole moment (a.u.): (real, imaginary) = (0.000000 , 0.000000)
 (X (0.000000 , 0.000000), Y (0.000000 , 0.000000), Z (0.000000 , 0.000000))
 R-squared (a.u.): 325.200202 (real, imaginary) = (319.480731, 60.722597)
 (XX (148.347036 , 26.277856), YY (56.384955 , 8.598299), ZZ (114.748739 , 25.846442))

 Excited state properties for EOMEA-CCSD transition 5/B2g
 Dipole moment (a.u.): (real, imaginary) = (0.000000 , 0.000000)
 (X (0.000000 , 0.000000), Y (0.000000 , 0.000000), Z (0.000000 , 0.000000))
 R-squared (a.u.): 167.192517 (real, imaginary) = (166.394821, -16.312612)
 (XX (81.790604 , -9.197178), YY (35.029362 , -1.746339), ZZ (49.574855 , -5.369095))

 Total ccman2 time:   CPU 4025.59 s  wall 894.75 s

 
 --------------------------------------------------------------
             Orbital Energies (a.u.) and Symmetries
 --------------------------------------------------------------
 
 Alpha MOs, Restricted
 -- Occupied --                  
-11.236 -11.235  -1.042  -0.782  -0.660  -0.567  -0.515  -0.377
  1 Ag    1 B3u   2 Ag    2 B3u   1 B2u   3 Ag    1 B1g   1 B1u                
 -- Virtual --                   
  0.011   0.012   0.012   0.018   0.018   0.021   0.037   0.037
  3 B3u   2 B2u   2 B1u   2 B1g   1 B2g   4 Ag    4 B3u   3 B2u                
  0.040   0.047   0.047   0.047   0.076   0.081   0.084   0.089
  3 B1u   5 Ag    3 B1g   2 B2g   6 Ag    5 B3u   4 B2u   4 B1u                
  0.091   0.097   0.114   0.139   0.156   0.162   0.174   0.176
  3 B2g   4 B1g   7 Ag    4 B2g   6 B3u   5 B2u   8 Ag    5 B1u                
  0.177   0.179   0.197   0.206   0.209   0.254   0.260   0.282
  5 B1g   7 B3u   9 Ag    1 B3g   5 B2g   8 B3u   6 B2u   1 Au                 
  0.291   0.309   0.312   0.320   0.324   0.346   0.360   0.382
  6 B1u  10 Ag    6 B1g   9 B3u   7 B2u   6 B2g   7 B1u  10 B3u                
  0.386   0.419   0.454   0.456   0.489   0.510   0.541   0.567
 11 Ag    7 B1g  12 Ag    8 B2u  11 B3u   7 B2g  13 Ag    8 B1g                
  0.568   0.593   0.653   0.657   0.706   0.713   0.734   0.842
  2 B3g   9 B2u  12 B3u  14 Ag    8 B1u   2 Au   13 B3u   9 B1g                
  0.913   0.927   1.041   1.059   1.074   1.093   1.133   1.198
 14 B3u   8 B2g  10 B2u   9 B1u  15 Ag   10 B1g   9 B2g  15 B3u                
  1.233   1.278   1.515   1.539   1.583   1.647   1.654   1.797
 11 B2u  16 Ag   16 B3u  11 B1g  17 Ag   10 B1u   3 B3g   3 Au                 
  1.805   1.825   1.895   1.946   1.947   1.960   2.028   2.040
 18 Ag   12 B2u  10 B2g  11 B1u  17 B3u  12 B1g   4 B3g  19 Ag                 
  2.239   2.276   2.367   2.474   2.550   2.634   2.661   2.720
 13 B2u  18 B3u  11 B2g   4 Au   20 Ag   13 B1g  19 B3u  20 B3u                
  2.877   2.898   3.453   3.657
 14 B2u  21 Ag   14 B1g  21 B3u                                                
 
 Beta MOs, Restricted
 -- Occupied --                  
-11.236 -11.235  -1.042  -0.782  -0.660  -0.567  -0.515  -0.377
  1 Ag    1 B3u   2 Ag    2 B3u   1 B2u   3 Ag    1 B1g   1 B1u                
 -- Virtual --                   
  0.011   0.012   0.012   0.018   0.018   0.021   0.037   0.037
  3 B3u   2 B2u   2 B1u   2 B1g   1 B2g   4 Ag    4 B3u   3 B2u                
  0.040   0.047   0.047   0.047   0.076   0.081   0.084   0.089
  3 B1u   5 Ag    3 B1g   2 B2g   6 Ag    5 B3u   4 B2u   4 B1u                
  0.091   0.097   0.114   0.139   0.156   0.162   0.174   0.176
  3 B2g   4 B1g   7 Ag    4 B2g   6 B3u   5 B2u   8 Ag    5 B1u                
  0.177   0.179   0.197   0.206   0.209   0.254   0.260   0.282
  5 B1g   7 B3u   9 Ag    1 B3g   5 B2g   8 B3u   6 B2u   1 Au                 
  0.291   0.309   0.312   0.320   0.324   0.346   0.360   0.382
  6 B1u  10 Ag    6 B1g   9 B3u   7 B2u   6 B2g   7 B1u  10 B3u                
  0.386   0.419   0.454   0.456   0.489   0.510   0.541   0.567
 11 Ag    7 B1g  12 Ag    8 B2u  11 B3u   7 B2g  13 Ag    8 B1g                
  0.568   0.593   0.653   0.657   0.706   0.713   0.734   0.842
  2 B3g   9 B2u  12 B3u  14 Ag    8 B1u   2 Au   13 B3u   9 B1g                
  0.913   0.927   1.041   1.059   1.074   1.093   1.133   1.198
 14 B3u   8 B2g  10 B2u   9 B1u  15 Ag   10 B1g   9 B2g  15 B3u                
  1.233   1.278   1.515   1.539   1.583   1.647   1.654   1.797
 11 B2u  16 Ag   16 B3u  11 B1g  17 Ag   10 B1u   3 B3g   3 Au                 
  1.805   1.825   1.895   1.946   1.947   1.960   2.028   2.040
 18 Ag   12 B2u  10 B2g  11 B1u  17 B3u  12 B1g   4 B3g  19 Ag                 
  2.239   2.276   2.367   2.474   2.550   2.634   2.661   2.720
 13 B2u  18 B3u  11 B2g   4 Au   20 Ag   13 B1g  19 B3u  20 B3u                
  2.877   2.898   3.453   3.657
 14 B2u  21 Ag   14 B1g  21 B3u                                                
 --------------------------------------------------------------
 
          Ground-State Mulliken Net Atomic Charges

     Atom                 Charge (a.u.)
  ----------------------------------------
      1 C                    -0.077393
      2 C                    -0.077393
      3 H                     0.038697
      4 H                     0.038697
      5 H                     0.038697
      6 H                     0.038697
  ----------------------------------------
  Sum of atomic charges =     0.000000

 -----------------------------------------------------------------
                    Cartesian Multipole Moments
 -----------------------------------------------------------------
    Charge (ESU x 10^10)
                 0.0000
    Dipole Moment (Debye)
         X       0.0000      Y       0.0000      Z      -0.0000
       Tot       0.0000
    Quadrupole Moments (Debye-Ang)
        XX     -12.9004     XY      -0.0000     YY     -11.9748
        XZ      -0.0000     YZ       0.0000     ZZ     -16.1438
    Octopole Moments (Debye-Ang^2)
       XXX       0.0000    XXY      -0.0000    XYY       0.0000
       YYY       0.0000    XXZ       0.0000    XYZ       0.0000
       YYZ      -0.0000    XZZ       0.0000    YZZ      -0.0000
       ZZZ      -0.0000
    Hexadecapole Moments (Debye-Ang^3)
      XXXX     -68.9338   XXXY      -0.0000   XXYY     -13.4823
      XYYY      -0.0000   YYYY     -27.1242   XXXZ      -0.0000
      XXYZ      -0.0000   XYYZ      -0.0000   YYYZ      -0.0000
      XXZZ     -15.5124   XYZZ      -0.0000   YYZZ      -9.0111
      XZZZ      -0.0000   YZZZ      -0.0000   ZZZZ     -21.8512
 -----------------------------------------------------------------
 Total job time:  922.29s(wall), 4073.91s(cpu) 
 Fri Apr  1 14:23:43 2022

        *************************************************************
        *                                                           *
        *  Thank you very much for using Q-Chem.  Have a nice day.  *
        *                                                           *
        *************************************************************


