CFour on node02
 --invoking executable--
/home/tsommerfeld/zscale/bin/xjoda


   *************************************************************************
         <<<     CCCCCC     CCCCCC   |||     CCCCCC     CCCCCC   >>>
       <<<      CCC        CCC       |||    CCC        CCC         >>>
      <<<      CCC        CCC        |||   CCC        CCC            >>>
    <<<        CCC        CCC        |||   CCC        CCC              >>>
      <<<      CCC        CCC        |||   CCC        CCC            >>>
       <<<      CCC        CCC       |||    CCC        CCC         >>>
         <<<     CCCCCC     CCCCCC   |||     CCCCCC     CCCCCC   >>>
   *************************************************************************

     ****************************************************************
     * CFOUR Coupled-Cluster techniques for Computational Chemistry *
     ****************************************************************
 

   Department of Chemistry                Institut fuer Physikalische Chemie
   University of Florida                  Universitaet Mainz
   Gainesville, FL 32611, USA             D-55099 Mainz, Germany

   Department of Chemistry                Department of Chemistry
   Johns Hopkins University               Southern Methodist University
   Baltimore, MD 21218, USA               Dallas, TX 75275, USA

   Institute of Nanotechnology            Department of Physical Chemistry
   Karlsruhe Inst. of Technology          Eotvos Lorand University
   D-76021 Karlsruhe, Germany             H-1053 Budapest, Hungary

 
                       Version 2.1
 
                     node02                                            
                     Tue Mar 29 16:04:27 CST 2022                      
                     integer*8 version is running
 
********************************************************************************
*                          Input from ZMAT file                                *
********************************************************************************
h_ethylene                                                                      
C       0.000000      0.0   -0.664500                                           
C       0.000000      0.0    0.664500                                           
H       0.962348      0.0   -1.159080                                           
H       0.962348      0.0    1.159080                                           
H      -0.962348      0.0   -1.159080                                           
H      -0.962348      0.0    1.159080                                           
H      0.000000      2.2272727272727275      0.000000                           
                                                                                
*CFOUR(CALC=CCSD                                                                
EXCITE=EOMEE                                                                    
ESTATE_SYM=0/3/0/0                                                              
CC_PROG=VCC                                                                     
CHARGE=-1                                                                       
COORDINATES=CARTESIAN                                                           
BASIS=SPECIAL                                                                   
REFERENCE=RHF                                                                   
MEM_SIZE=90,MEM_UNIT=GB)                                                        
                                                                                
C:CC-PVDZ                                                                       
C:CC-PVDZ                                                                       
H:CC-PVDZ                                                                       
H:CC-PVDZ                                                                       
H:CC-PVDZ                                                                       
H:CC-PVDZ                                                                       
H:AUG-CC-PVDZ                                                                   
                                                                                
********************************************************************************
    -------------------------------------------------------------------
                    CFOUR Control Parameters 
    -------------------------------------------------------------------
        External           Internal           Value            Units
          Name               Name
    -------------------------------------------------------------------
       ABCDTYPE             IABCDT         STANDARD    [  0]    ***   
       ANHARMONIC           IANHAR         OFF         [  0]    ***   
       ANH_ALGORIT          IANALG         STANDARD    [  0]    ***   
       ANH_DERIVAT          IANDER         SECOND      [  1]    ***   
       ANH_MODE             ANHMOD         VIBRATION   [  0]    ***   
       ANH_STEPSIZ          ICUBST             50000          x 10-6  
       ANH_SYMMETR          IANHSM         ABELIAN     [  0]    ***   
       AO_LADDERS           IAOLAD         SINGLEPASS  [  1]    ***   
       AV_SCF               IAVSCF         OFF         [  0]    ***   
       BASIS                IBASIS         SPECIAL     [  0]    ***   
       BOTHVECTORS          BOTHVC         OFF         [  0]    ***   
       BOX_POTENT           IPIAB          OFF         [  0]    ***   
       BREIT                IBREIT         OFF         [  0]    ***   
       BRUCK_CONV           IBRTOL          10D-  4             ***   
       BRUECKNER            IBRKNR         OFF         [  0]    ***   
       BUFFERSIZE           IBUFFS              4096            ***   
       CACHE_RECS           ICHREC             10               ***   
       CALCLEVEL            ICLLVL         CCSD        [ 10]    ***   
       CCORBOPT             ICCORB         OFF         [  0]  x 0.01  
       CC_CONV              ICCCNV          10D-  7             ***   
       CC_EXPORDER          ICCEOR              5               ***   
       CC_EXTRAPOL          ICCEXT         DIIS        [  1]    ***   
       CC_GUESS             ICCGES         MP2         [  0]    ***   
       CC_MAXCYC            ICCCYC            100              cycles 
       CC_PROGRAM           ICCPRO         VCC         [  0]    ***   
       CHARGE               ICHRGE             -1               ***   
       CHOLESKY             ICHOLE         OFF         [  0]    ***   
       CIS_CONV             ICISTL              5               ***   
       COMM_SIZE            IPSIZE            ***               ***   
       CONSTANT             ICONST         OLD         [  1]    ***   
       CONTINUUM            ICONTU         NONE        [  0]    ***   
       CONTRACTION          ICNTYP         GENERAL     [  1]    ***   
       COORDINATES          ICOORD         CARTESIAN   [  1]    ***   
       CPHF_CONVER          ICPHFT          10D- 16             ***   
       CPHF_MAXCYC          ICPHFC             64              cycles 
       CUBIC                ICUBIC         OFF         [  0]    ***   
       CURVILINEAR          ICURVY         OFF         [  0]    ***   
       DBOC                 IDBOC          OFF         [  0]    ***   
       DCT                  IDCT           OFF         [  0]    ***   
       DERIV_LEV            IDRLVL         ZERO        [  0]    ***   
       DEVMEM_SIZE          IDVMEM         *********           MByte  
       DIAG_MRCC            IEOMST          10D-  0             ***   
       DIFF_TYPE            IDIFTY         RELAXED     [  0]    ***   
       DIRECT               IDIRCT         OFF         [  0]    ***   
       DROPMO               IDRPMO      NONE         
       ECP                  IECP           OFF         [  0]    ***   
       EIGENVECTOR          IVEC                1               ***   
       EL_ANHARM            IELANH         OFF         [  0]    ***   
       EOMFOLLOW            IEOMSR         ENERGY      [  0]    ***   
       EOMIP                IEOMIP         OFF         [  0]    ***   
       EOMLEVEL             HBARFM         SAME        [  0]    ***   
       EOM_MRCC             IMRCCE         NEW         [  1]    ***   
       EOM_NONIT            EOMNON         OFF         [  0]    ***   
       EOM_NSING            IEOMSI          10D-  0             ***   
       EOM_NSTATES          IMRCCD         DAVIDSON    [  0]    ***   
       EOM_NTRIP            IEOMTR          10D-  0             ***   
       EOM_ORDER            IEXORD         ENERGY      [  0]    ***   
       EOM_PROPSTA          IEOMST              0               ***   
       ESTATE_CONV          IEXTOL          10D-  5             ***   
       ESTATE_DIAG          IEXDIG         ITERATIVE   [  0]    ***   
       ESTATE_LOCK          IESLOC         ON          [  1]    ***   
       ESTATE_MAXC          IEXMXC             40               ***   
       ESTATE_PROP          IEXPRP         OFF         [  0]    ***   
       ESTATE_SYM           IEXSYM   0,  3,  0,  0,
       EVAL_HESS            IRECAL              0            # of cyc.
       EXCITATION           IEXCIT              0               ***   
       EXCITE               IEXCIT         EOMEE       [  3]    ***   
       EXTERN_POT           IEXPOT         OFF         [  0]    ***   
       FCGRADNEW            IFCGNW         OFF         [  0]    ***   
       FC_FIELD             IFINFC              0             x 10-6  
       FD_CALTYPE           IFDCAL         GRADONLY    [  0]    ***   
       FD_PROJECT           IFDPRJ         OFF         [  1]    ***   
       FD_STEPSIZE          IDISFD              0            10-4 bohr
       FD_USEGROUP          IFDGRP         FULL        [  0]    ***   
       FILE_RECSIZ          IFLREC              4096           words  
       FINITE_PERT          IFIPER              0             x 10-6  
       FIXGEOM              IFIXGM         OFF         [  0]    ***   
       FOCK                 IFOCK          AO          [  1]    ***   
       FREQ_ALGORI          IVIALG         STANDARD    [  0]    ***   
       FROZEN_CORE          IFROCO         OFF         [  0]    ***   
       GAMMA_ABCD           IGABCD         STORE       [  0]    ***   
       GAMMA_ABCI           IGABCI         STORE       [  0]    ***   
       GENBAS_1             IGNBS1              0               ***   
       GENBAS_2             IGNBS2              0               ***   
       GENBAS_3             IGNBS3              0               ***   
       GENBAS_4             IGNBS4              0               ***   
       GEO_CONV             ICONTL              5              H/bohr 
       GEO_MAXCYC           IOPTCY             50               ***   
       GEO_MAXSTEP          IMXSTP            300            millibohr
       GEO_METHOD           INR            SINGLE_POINT[  5]    ***   
       GIAO                 IGIAO          OFF         [  1]    ***   
       GIMIC                IGIMIC         OFF         [  0]    ***   
       GRID                 IGRID          OFF         [  0]    ***   
       GRID_ALGO            IGALGO         SERIAL      [  0]    ***   
       GUESS                IGUESS         MOREAD      [  0]    ***   
       HBAR                 IHBAR          ON          [  1]    ***   
       HESS_TYPE            IHESTP         SCF         [  0]    ***   
       HF2_FILE             IHF2Fl         USE         [  1]    ***   
       HFSTABILITY          ISTABL         OFF         [  0]    ***   
       INCORE               INCORE         OFF         [  0]    ***   
       INPUT_MRCC           IMRCC          ON          [  1]    ***   
       INTEGRALS            INTTYP         VMOL        [  1]    ***   
       JODA_PRINT           IJPRNT              0               ***   
       KEYWORD_OUT          IDMPKW         NO          [  0]    ***   
       LINDEP_TOL           ILINDP              8               ***   
       LINEQ_CONV           IZTACN          10D-  7           cycles  
       LINEQ_EXPOR          ILMAXD              5               ***   
       LINEQ_MAXCY          ILMAXC            100               ***   
       LINEQ_TYPE           ILTYPE         DIIS        [  1]    ***   
       LOCK_ORBOCC          ILOCOC         OFF         [  0]    ***   
       MEMORY_SIZE          IMEMSZ         *********           words  
       MEM_UNIT             IMEMU          GB          [  3]    ***   
       MRCC                 IMRCCC         OFF         [  0]    ***   
       MULTIPLICTY          IMULTP              1               ***   
       NACOUPLING           IVCOUP         OFF         [  0]    ***   
       NEGEVAL              IDIE           ABORT       [  0]    ***   
       NEWNORM              INEWNO         OFF         [  0]    ***   
       NON-HF               INONHF         OFF         [  0]    ***   
       NTOP_TAMP            ITOPT2             15               ***   
       NUC_MODEL            INUCMO         POINT       [  0]    ***   
       OCCUPATION           IOCCU   ESTIMATED BY SCF 
       OPEN-SHELL           IOPEN          SPIN-ORBITAL[  0]    ***   
       OPTVIB               IOPTVB         OFF         [  0]    ***   
       ORBITALS             IORBTP         STANDARD    [  0]    ***   
       PARALLEL             IPARAL         ON          [  1]    ***   
       PARA_INT             IPINTS         ON          [  1]    ***   
       PARA_PRINT           IPPRIN              0               ***   
       PERT_ORB             IPTORB         STANDARD    [  0]    ***   
       POINTS               IGRDFD              0               ***   
       PRINT                IPRNT               0               ***   
       PROPS                IPROPS         OFF         [  0]    ***   
       PROP_INTEGR          IINTYP         INTERNAL    [  0]    ***   
       PSI                  IPSI           OFF         [  0]    ***   
       QC_ALG               IQCALG         FLM         [  0]    ***   
       QC_LINALG            IQCLIN         TRIDIAG     [  2]    ***   
       QC_MAXCYC            IQCMAX          10D-100           cycles  
       QC_MAXSCFCY          IQCMSC          10D- 15           cycles  
       QC_RTRUST            IQCRTR          10D-  0           x 10-3  
       QC_SKIPSCF           IQCSKI         OFF         [  0]    ***   
       QC_START             IQCSTA          10D-  1             ***   
       QRHFGUESS            IQGUES         OFF         [  0]    ***   
       QUARTIC              IQUART         OFF         [  0]    ***   
       RAMAN_INT            IRAMIN         OFF         [  0]    ***   
       RAMAN_ORB            IRAMRE         UNRELAXED   [  0]    ***   
       RDO                  IRDOFM         OFF         [  0]    ***   
       REDUCE_REPR          REDREP         Ir          [  0]    ***   
       REFERENCE            IREFNC         RHF         [  0]    ***   
       RELATIVIST           IRELAT         OFF         [  0]    ***   
       RELAX_DENS           IRDENS         OFF         [  0]    ***   
       RESET_FLAGS          IRESET         OFF         [  0]    ***   
       RESTART_CC           ICCRES         OFF         [  0]    ***   
       ROT_EVEC             ROTVEC              0               ***   
       SAVE_INTS            ISVINT         OFF         [  0]    ***   
       SCALE_ON             ISTCRT              0               ***   
       SCF_CONV             ISCFCV          10D-  7             ***   
       SCF_DAMPING          IDAMP               0             x 10-3  
       SCF_EXPORDE          IRPPOR              6               ***   
       SCF_EXPSTAR          IRPPLS              8               ***   
       SCF_EXTRAPO          IRPP           ON          [  1]    ***   
       SCF_MAXCYC           ISCFCY            150              cycles 
       SCF_NOSTOP           ISCFST         OFF         [  0]    ***   
       SCF_PRINT            ISCFPR              0               ***   
       SCF_PROG             ISCFPR         SCF         [  0]    ***   
       SD_FIELD             IFINSD              0             x 10-6  
       SOPERT               IPERSO         OFF         [  0]    ***   
       SPHERICAL            IDFGHI         ON          [  1]    ***   
       SPINORBIT            ISOCAL         OFF         [  0]    ***   
       SPINROTATIO          ISRCON         OFF         [  0]    ***   
       SPIN_FLIP            ISPFLP         OFF         [  0]    ***   
       SPIN_ORBIT           ISPORB         OFF         [  0]    ***   
       SPIN_SCAL            ISCSMP         OFF         [  0]    ***   
       STEEPSCALE           ISTPSC              1000          x 10-3  
       SUBGROUP             ISUBGP         DEFAULT     [  0]    ***   
       SUBGRPAXIS           ISBXYZ         X           [  0]    ***   
       SYMMETRY             ISYM           ON          [  0]    ***   
       SYM_CHECK            ISYMCK         OVERRIDE    [  1]    ***   
       T3_EXTRAPOL          IT3EXT         OFF         [  0]    ***   
       T4_EXTRAPOL          IT4EXP         OFF         [  0]    ***   
       TAMP_SUM             IEVERY              5               ***   
       TESTSUITE            ITESTS         OFF         [  0]    ***   
       THERMOCH             ITHERM         OFF         [  0]    ***   
       TOL_CHOLESK          ITOLCH          10D-  4             ***   
       TRANGRAD             IRESRM         OFF         [  0]    ***   
       TRANS_INV            ITRAIN         USE         [  0]    ***   
       TREAT_PERT           ITREAT         SIMULTANEOUS[  0]    ***   
       TRIP_ALGORI          ITRALG         NORMAL      [  0]    ***   
       UIJ_THRESHO          IUIJTH              1               ***   
       UNITS                IUNITS         ANGSTROM    [  0]    ***   
       UNOS                 IUNOS          OFF         [  0]    ***   
       UPDATE_HESS          IHUPDT         ON          [  1]    ***   
       VIBPHASE             ISETPH         STANDARD    [  0]    ***   
       VIBRATION            IVIB           NO          [  0]    ***   
       VIB_ALGORIT          IGEALG         STANDARD    [  0]    ***   
       VNATORB              IVNORB         OFF         [  0]    ***   
       VTRAN                IVTRAN         FULL/PARTIAL[  0]    ***   
       XFIELD               IXEFLD              0             x 10-6  
       XFORM_TOL            IXFTOL          10D- 11             ***   
       YFIELD               IYEFLD              0             x 10-6  
       ZFIELD               IZEFLD              0             x 10-6  
       ZSCALE_EXP           IZEXPS         OFF         [  0]    ***   
    -------------------------------------------------------------------
  @GETXYZ-I,     7 atoms read from ZMAT.
   Rotational constants (in cm-1): 
          0.8089303359             0.8536890782             1.9694667263
   Rotational constants (in MHz): 
      24251.1247740168         25592.9582983935         59043.1353556165
********************************************************************************
   The full molecular point group is C2v .
   The largest Abelian subgroup of the full molecular point group is C2v .
   The computational point group is C2v .
********************************************************************************


 ----------------------------------------------------------------
         Coordinates used in calculation (QCOMP) 
 ----------------------------------------------------------------
 Z-matrix   Atomic            Coordinates (in bohr)
  Symbol    Number           X              Y              Z
 ----------------------------------------------------------------
     C         6         0.00000000    -1.25572327     0.14607435
     C         6         0.00000000     1.25572327     0.14607435
     H         1         1.81857454    -2.19034422     0.14607435
     H         1         1.81857454     2.19034422     0.14607435
     H         1        -1.81857454    -2.19034422     0.14607435
     H         1        -1.81857454     2.19034422     0.14607435
     H         1         0.00000000     0.00000000    -4.06286199
 ----------------------------------------------------------------
 
   Interatomic distance matrix (Angstroms) 
 
                 C             C             H             H             H    
                [ 1]        [ 2]        [ 3]        [ 4]        [ 5]
  C    [ 1]     0.00000
  C    [ 2]     1.32900     0.00000
  H    [ 3]     1.08200     2.06193     0.00000
  H    [ 4]     2.06193     1.08200     2.31816     0.00000
  H    [ 5]     1.08200     2.06193     1.92470     3.01303     0.00000
  H    [ 6]     2.06193     1.08200     3.01303     1.92470     2.31816
  H    [ 7]     2.32429     2.32429     2.68893     2.68893     2.68893
 
                 H             H    
                [ 6]        [ 7]
  H    [ 6]     0.00000
  H    [ 7]     2.68893     0.00000
 rotcon2
   Rotational constants (in cm-1): 
          0.8089303359             1.9694667263             0.8536890782
   Rotational constants (in MHz): 
      24251.1247740168         59043.1353556165         25592.9582983935
  ECPDATA file not present.   Using default ECPDATA. 
  There are   57 basis functions.
 @GEOPT-W, Archive file not created for single-point calculation.
 @CHECKOUT-I, Total execution time (CPU/WALL):        0.13/       0.15 seconds.
--executable xjoda finished with status     0 in        0.16 seconds (walltime).
 --invoking executable--
/home/tsommerfeld/zscale/bin/xvmol
 SERIAL VERSION OF MOLECULE STARTED
********************************************************************************
                    INPUT FROM MOL FILE
********************************************************************************
INTGRL        1    0    1    0    0    0    0    0    0                         
         *** CFOUR Program System (Release V0.1) ***                            
h_ethylene                                                                      
    3    2 X  Y       0.10E-08              0    0                              
   9999.00      3.00                                                            
          6.00000000    1    3    1    1    1                                   
C #1   0.000000000000000  -1.255723272983657   0.146074352795029                
    9    3                                                                      
   6665.00000000000       6.920000000000000E-004 -1.460000000000000E-004        
  0.000000000000000E+000                                                        
   1000.00000000000       5.329000000000000E-003 -1.154000000000000E-003        
  0.000000000000000E+000                                                        
   228.000000000000       2.707700000000000E-002 -5.725000000000000E-003        
  0.000000000000000E+000                                                        
   64.7100000000000       0.101718000000000      -2.331200000000000E-002        
  0.000000000000000E+000                                                        
   21.0600000000000       0.274740000000000      -6.395500000000000E-002        
  0.000000000000000E+000                                                        
   7.49500000000000       0.448564000000000      -0.149981000000000             
  0.000000000000000E+000                                                        
   2.79700000000000       0.285074000000000      -0.127262000000000             
  0.000000000000000E+000                                                        
  0.521500000000000       1.520400000000000E-002  0.544529000000000             
  0.000000000000000E+000                                                        
  0.159600000000000      -3.191000000000000E-003  0.580496000000000             
   1.00000000000000                                                             
    4    2                                                                      
   9.43900000000000       3.810900000000000E-002  0.000000000000000E+000        
   2.00200000000000       0.209480000000000       0.000000000000000E+000        
  0.545600000000000       0.508557000000000       0.000000000000000E+000        
  0.151700000000000       0.468842000000000        1.00000000000000             
    1    1                                                                      
  0.550000000000000        1.00000000000000                                     
          1.00000000    1    2    1    1                                        
H #2   1.818574537711477  -2.190344215575466   0.146074352795029                
    4    2                                                                      
   13.0100000000000       1.968500000000000E-002  0.000000000000000E+000        
   1.96200000000000       0.137977000000000       0.000000000000000E+000        
  0.444600000000000       0.478148000000000       0.000000000000000E+000        
  0.122000000000000       0.501240000000000        1.00000000000000             
    1    1                                                                      
  0.727000000000000        1.00000000000000                                     
          1.00000000    1    2    1    1                                        
H #3   0.000000000000000   0.000000000000000  -4.062861988692022                
    5    3                                                                      
   13.0100000000000       1.968500000000000E-002  0.000000000000000E+000        
  0.000000000000000E+000                                                        
   1.96200000000000       0.137977000000000       0.000000000000000E+000        
  0.000000000000000E+000                                                        
  0.444600000000000       0.478148000000000       0.000000000000000E+000        
  0.000000000000000E+000                                                        
  0.122000000000000       0.501240000000000        1.00000000000000             
  0.000000000000000E+000                                                        
  2.974000000000000E-002  0.000000000000000E+000  0.000000000000000E+000        
   1.00000000000000                                                             
    2    2                                                                      
  0.727000000000000        1.00000000000000       0.000000000000000E+000        
  0.141000000000000       0.000000000000000E+000   1.00000000000000             
FINISH                                                                          
 
********************************************************************************
 ONE- AND TWO-ELECTRON INTEGRALS OVER SYMMETRY-ADAPTED AOS ARE CALCULATED.

  SPHERICAL HARMONICS ARE USED.
  
  INTEGRALS LESS THAN  0.10E-13 ARE NEGLECTED.

  NUCLEAR REPULSION ENERGY :   37.1084862050 A.U.
  @MOLECU-I, ONE ELECTRON INTEGRALS (CPU/WALL):        0.01/       0.01 SECONDS.
  @TWOEL-I,      29572 INTEGRALS OF SYMMETRY TYPE  I I I I
  @TWOEL-I,     102291 INTEGRALS OF SYMMETRY TYPE  I J I J
  @TWOEL-I,      58089 INTEGRALS OF SYMMETRY TYPE  I I J J
  @TWOEL-I,      75480 INTEGRALS OF SYMMETRY TYPE  I J K L
  @TWOEL-I, TOTAL NUMBER OF 2-E INTEGRALS     265432.
  @MOLECU-I, TWO ELECTRON INTEGRALS (CPU/WALL):        0.21/       0.22 SECONDS.
 @CHECKOUT-I, Total execution time (CPU/WALL):        0.23/       0.24 seconds.

Running with 8 threads/proc

--executable xvmol finished with status     0 in        0.26 seconds (walltime).
 --invoking executable--
/home/tsommerfeld/zscale/bin/xvmol2ja
 @GETMEM-I,  Allocated   85830 MB of main memory.
 @CHECKOUT-I, Total execution time (CPU/WALL):        0.02/       0.01 seconds.
--executable xvmol2ja finished with status     0 in        0.03 seconds (walltime).
 --invoking executable--
/home/tsommerfeld/zscale/bin/xvscf
  There are   57 functions in the AO basis.

  There are 4 irreducible representations.

       Irrep        # of functions
         1                 20
         2                 11
         3                 17
         4                  9


  Parameters for SCF calculation: 
        SCF reference function:  RHF  
  Maximum number of iterations:  150
     Full symmetry point group: C2v 
     Computational point group: C2v 
        Initial density matrix: MOREAD                 
     SCF convergence tolerance: 10**(- 7)
  DIIS convergence acceleration:  ON
          Latest start for DIIS:   8
                     DIIS order:   6

  Memory information:     156410 words required.
  Fock matrices are constructed from AO integral file.
 @GETMEM-I,  Allocated       1 MB of main memory.
  Initialization and symmetry analysis required      0.001 seconds.

  @INITGES-I, Occupancies from core Hamiltonian:

          Alpha population by irrep:   3    1    4    1
           Beta population by irrep:   3    1    4    1


 total no. of electrons in initial guess :  0.000000000000000E+000
  --------------------------------------------------------------------
  Iteration         Total Energy            Largest Density Difference
  --------------------------------------------------------------------
       0            37.108486205044507              0.0000000000D+00
   current occupation vector 
     3  1  4  1
     3  1  4  1
       1           -61.254196252517708              0.8868674612D+01
   current occupation vector 
     3  1  4  1
     3  1  4  1
       2           -63.301633061484118              0.8699051464D+01
   current occupation vector 
     4  1  3  1
     4  1  3  1
       3           -70.886932394796020              0.5364838390D+01
   current occupation vector 
     4  1  3  1
     4  1  3  1
       4           -67.425541626654336              0.5101300164D+01
   current occupation vector 
     4  1  3  1
     4  1  3  1
       5           -72.289241285547405              0.5101282498D+01
   current occupation vector 
     4  1  3  1
     4  1  3  1
       6           -68.728991476042211              0.5015914451D+01
   current occupation vector 
     4  1  3  1
     4  1  3  1
       7           -72.754826312179404              0.5015891657D+01
   current occupation vector 
     4  1  3  1
     4  1  3  1
       8           -69.182041750971194              0.4988682720D+01
   current occupation vector 
     4  1  3  1
     4  1  3  1
       9           -77.528455941734279              0.4988645008D+01
   current occupation vector 
     4  1  3  1
     4  1  3  1
      10           -78.403574433336928              0.1320652638D+01
   current occupation vector 
     5  1  2  1
     5  1  2  1
      11           -78.463753739045757              0.4679900670D+00
   current occupation vector 
     5  1  2  1
     5  1  2  1
      12           -78.475164082264911              0.8205275160D-01
   current occupation vector 
     5  1  2  1
     5  1  2  1
      13           -78.476753415647835              0.3416450078D-01
   current occupation vector 
     5  1  2  1
     5  1  2  1
      14           -78.476805535896744              0.5425857633D-02
   current occupation vector 
     5  1  2  1
     5  1  2  1
      15           -78.476808040045455              0.2009580372D-02
   current occupation vector 
     5  1  2  1
     5  1  2  1
      16           -78.476808275268041              0.7011914997D-03
   current occupation vector 
     5  1  2  1
     5  1  2  1
      17           -78.476808284351961              0.1151404656D-03
   current occupation vector 
     5  1  2  1
     5  1  2  1
      18           -78.476808284578368              0.1766728721D-04
   current occupation vector 
     5  1  2  1
     5  1  2  1
      19           -78.476808284580727              0.3827454406D-05
   current occupation vector 
     5  1  2  1
     5  1  2  1
      20           -78.476808284580727              0.8289031741D-06
   current occupation vector 
     5  1  2  1
     5  1  2  1
      21           -78.476808284580869              0.2195108321D-06
   current occupation vector 
     5  1  2  1
     5  1  2  1

  SCF has converged.

 Density matrix saved to file den.dat
 total electron number:   18.0000000000000     
     E(SCF)=       -78.476808284580642              0.5039782724D-07


  Final occupancies:

     Alpha population by irrep:   5    1    2    1
      Beta population by irrep:   5    1    2    1


  Eigenvector printing suppressed.

 @PUTMOS-I, Writing converged MOs to NEWMOS. 
 @PUTMOS-I, Symmetry   1 Full Blocks  5 Partial Blocksize   0
 @PUTMOS-I, Symmetry   2 Full Blocks  2 Partial Blocksize   3
 @PUTMOS-I, Symmetry   3 Full Blocks  4 Partial Blocksize   1
 @PUTMOS-I, Symmetry   4 Full Blocks  2 Partial Blocksize   1
 @PUTFOCK-I, Writing converged Fock matrix to NEWFOCK. 
 @PUTFOCK-I, Symmetry   1 Full Blocks  5 Partial Blocksize   0
 @PUTFOCK-I, Symmetry   2 Full Blocks  2 Partial Blocksize   3
 @PUTFOCK-I, Symmetry   3 Full Blocks  4 Partial Blocksize   1
 @PUTFOCK-I, Symmetry   4 Full Blocks  2 Partial Blocksize   1


 
  ORBITAL EIGENVALUES (ALPHA)  (1H = 27.2113834 eV)

       MO #        E(hartree)               E(eV)           FULLSYM    COMPSYM
       ----   --------------------   --------------------   -------   ---------
    1     1         -11.0623538204        -301.0219511137      A1        A1 (1)
    2    32         -11.0606402493        -300.9753224741      B2        B2 (3)
    3     2          -0.8670236316         -23.5929124559      A1        A1 (1)
    4    33          -0.6118105814         -16.6482122999      B2        B2 (3)
    5    21          -0.4885427128         -13.2939230663      B1        B1 (2)
    6     3          -0.3954532164         -10.7608290893      A1        A1 (1)
    7    49          -0.3464345439          -9.4269631969      A2        A2 (4)
    8     4          -0.2186634503          -5.9501349818      A1        A1 (1)
    9     5          -0.0116081204          -0.3158730138      A1        A1 (1)
  +++++++++++++++++++++++++++++++++++++++++++++++++++++++++++++++++++++++++++++
   10     6           0.2793706009           7.6020605324      A1        A1 (1)
   11    34           0.3389794847           9.2241007242      B2        B2 (3)
   12     7           0.3726352840          10.1399215825      A1        A1 (1)
   13    22           0.3752047562          10.2098404744      B1        B1 (2)
   14    35           0.3918067619          10.6616040178      B2        B2 (3)
   15    50           0.4465731081          12.1518720610      A2        A2 (4)
   16    23           0.5612017482          15.2710759361      B1        B1 (2)
   17    36           0.5838433582          15.8871854656      B2        B2 (3)
   18    37           0.6204190627          16.8824609836      B2        B2 (3)
   19     8           0.6389640472          17.3870956673      A1        A1 (1)
   20     9           0.7328631737          19.9422207993      A1        A1 (1)
   21    24           0.8386319579          22.8203357376      B1        B1 (2)
   22    10           0.8596993700          23.3936091652      A1        A1 (1)
   23    38           0.9603500335          26.1324529589      B2        B2 (3)
   24    25           1.0302226416          28.0337832870      B1        B1 (2)
   25    39           1.0422773472          28.3618085037      B2        B2 (3)
   26    11           1.0432684640          28.3887781620      A1        A1 (1)
   27    51           1.1010364012          29.9607236513      A2        A2 (4)
   28    12           1.1256961877          30.6317505566      A1        A1 (1)
   29    40           1.1376728403          30.9576518412      B2        B2 (3)
   30    26           1.3155771103          35.7986731415      B1        B1 (2)
   31    13           1.3922468202          37.8849620116      A1        A1 (1)
   32    52           1.4554582906          39.6050335691      A2        A2 (4)
   33    41           1.4560611165          39.6214372940      B2        B2 (3)
   34    53           1.5117336952          41.1363651795      A2        A2 (4)
   35    14           1.5176125163          41.2963360331      A1        A1 (1)
   36    15           1.7667433729          48.0755312904      A1        A1 (1)
   37    54           1.7786792768          48.4003237454      A2        A2 (4)
   38    27           1.8788159104          51.1251800751      B1        B1 (2)
   39    42           2.0054648277          54.5714723211      B2        B2 (3)
   40    43           2.0566711379          55.9648668608      B2        B2 (3)
   41    16           2.0813154872          56.6354736996      A1        A1 (1)
   42    17           2.0966731449          57.0533768117      A1        A1 (1)
   43    28           2.1288866198          57.9299500253      B1        B1 (2)
   44    29           2.1659803796          58.9393225449      B1        B1 (2)
   45    44           2.1775744783          59.2548140119      B2        B2 (3)
   46    30           2.2084947878          60.0961984067      B1        B1 (2)
   47    18           2.3092072395          62.8367235441      A1        A1 (1)
   48    45           2.3442068151          63.7891104141      B2        B2 (3)
   49    46           2.4479083655          66.6109730620      B2        B2 (3)
   50    55           2.5844885108          70.3275077615      A2        A2 (4)
   51    19           2.5932898682          70.5670048700      A1        A1 (1)
   52    56           2.6539944697          72.2188610569      A2        A2 (4)
   53    47           2.7040507878          73.5809627192      B2        B2 (3)
   54    31           2.9585090504          80.5051240641      B1        B1 (2)
   55    20           2.9601783075          80.5505468590      A1        A1 (1)
   56    48           3.4190811508          93.0379280715      B2        B2 (3)
   57    57           3.5070380854          95.4313579389      A2        A2 (4)


  VSCF finished.

 @CHECKOUT-I, Total execution time (CPU/WALL):        0.27/       0.11 seconds.
--executable xvscf finished with status     0 in        0.13 seconds (walltime).
 --invoking executable--
/home/tsommerfeld/zscale/bin/xvtran
 @GETMEM-I,  Allocated   85830 MB of main memory.
  Full RHF integral transformation
  Transformation of IIII integrals :
  1 pass through the AO integral file was required.
       29572 AO integrals were read.
       37182 MO integrals were written to HF2.
  Transformation of IIJJ integrals :
  1 pass through the AO integral file was required.
       58089 AO integrals were read.
       75393 MO integrals were written to HF2.
  Transformation of IJIJ integrals :
  1 pass through the AO integral file was required.
      102291 AO integrals were read.
      132879 MO integrals were written to HF2.
  Transformation of IJKL integrals :
  1 pass through the AO integral file was required.
       75480 AO integrals were read.
      100980 MO integrals were written to HF2.
  Summary of active molecular orbitals: 
------------------------------------------------------------------------
 
  Index      Eigenvalue    Symmetry    Index      Eigenvalue    Symmetry
------------------------------------------------------------------------
     1       -11.0623538        1        30         1.8788159        2
     2        -0.8670236        1        31         2.1288866        2
     3        -0.3954532        1        32         2.1659804        2
     4        -0.2186635        1        33         2.2084948        2
     5        -0.0116081        1        34         2.9585091        2
     6        -0.4885427        2        35         0.3389795        3
     7       -11.0606402        3        36         0.3918068        3
     8        -0.6118106        3        37         0.5838434        3
     9        -0.3464345        4        38         0.6204191        3
    10         0.2793706        1        39         0.9603500        3
    11         0.3726353        1        40         1.0422773        3
    12         0.6389640        1        41         1.1376728        3
    13         0.7328632        1        42         1.4560611        3
    14         0.8596994        1        43         2.0054648        3
    15         1.0432685        1        44         2.0566711        3
    16         1.1256962        1        45         2.1775745        3
    17         1.3922468        1        46         2.3442068        3
    18         1.5176125        1        47         2.4479084        3
    19         1.7667434        1        48         2.7040508        3
    20         2.0813155        1        49         3.4190812        3
    21         2.0966731        1        50         0.4465731        4
    22         2.3092072        1        51         1.1010364        4
    23         2.5932899        1        52         1.4554583        4
    24         2.9601783        1        53         1.5117337        4
    25         0.3752048        2        54         1.7786793        4
    26         0.5612017        2        55         2.5844885        4
    27         0.8386320        2        56         2.6539945        4
    28         1.0302226        2        57         3.5070381        4
    29         1.3155771        2
------------------------------------------------------------------------
  -11.0623538204138      -0.867023631583700      -0.395453216440215     
 -0.218663450305958      -1.160812036401858E-002 -0.488542712836264     
  -11.0606402493342      -0.611810581447048      -0.346434543892617     
  0.279370600924246       0.372635284042781       0.638964047203816     
  0.732863173699952       0.859699369976460        1.04326846396327     
   1.12569618774408        1.39224682018797        1.51761251627822     
   1.76674337293536        2.08131548723890        2.09667314494944     
   2.30920723950115        2.59328986816437        2.96017830754696     
  0.375204756198644       0.561201748239222       0.838631957888126     
   1.03022264156697        1.31557711033072        1.87881591036993     
   2.12888661975649        2.16598037955172        2.20849478776197     
   2.95850905044842       0.338979484746329       0.391806761936923     
  0.583843358202261       0.620419062692881       0.960350033467620     
   1.04227734719665        1.13767284030028        1.45606111646464     
   2.00546482767454        2.05667113788929        2.17757447832961     
   2.34420681508119        2.44790836551293        2.70405078777574     
   3.41908115084979       0.446573108111488        1.10103640123381     
   1.45545829063129        1.51173369522707        1.77867927675272     
   2.58448851084325        2.65399446971377        3.50703808535284     
 @CHECKOUT-I, Total execution time (CPU/WALL):        0.54/       0.09 seconds.
--executable xvtran finished with status     0 in        0.11 seconds (walltime).
 --invoking executable--
/home/tsommerfeld/zscale/bin/xintprc
 @GETMEM-I,  Allocated   85830 MB of main memory.
  Processing integrals for CCSD calculation.
  @GMOIAA-I, Processing MO integrals for spin case AA.
  @GMOIAA-I, Generation of integral list completed.
                      TYPE                NUMBER
                      ----               --------
                      PPPP                174781
                      PPPH                128448
                      PPHH                 24003
                      PHPH                 13755
                      PHHH                  5115
                      HHHH                   332

                     TOTAL                346434

  @FORMT2-I, Second-order MP correlation energies:
            ------------------------------------------------
            E(SCF)                  =    -78.476808284581 a.u.
            E2(AA)                  =     -0.033117103941 a.u.
            E2(AB)                  =     -0.250507909718 a.u.
            E2(TOT)                 =     -0.316742117600 a.u.
            Total MP2 energy        =    -78.793550402181 a.u.
            ------------------------------------------------
   Largest T2 amplitudes for spin case AB:
       _       _                 _       _                 _       _
   i   j   a   b             i   j   a   b             i   j   a   b
-----------------------------------------------------------------------------
[  5   5  10  10]-0.09243 [  4   4  35  35]-0.08084 [  5   5  26  26]-0.03826
[  5   4  35  35]-0.02814 [  4   5  35  35]-0.02814 [  4   3  35  41] 0.02576
[  3   4  41  35] 0.02576 [  5   5  12  12]-0.02575 [  5   5  16  10] 0.02510
[  5   5  10  16] 0.02510 [  5   4  10  10] 0.02445 [  4   5  10  10] 0.02445
[  4   4  14  14]-0.02325 [  3   3  41  41]-0.02302 [  5   5  16  16]-0.02122
-----------------------------------------------------------------------------
   Norm of T2AB vector (    47574 symmetry allowed elements):  0.3240593524.
-----------------------------------------------------------------------------
 @CHECKOUT-I, Total execution time (CPU/WALL):        0.42/       0.10 seconds.
--executable xintprc finished with status     0 in        0.11 seconds (walltime).
  calling xvcc 
 --invoking executable--
/home/tsommerfeld/zscale/bin/xvcc
 @GETMEM-I,  Allocated   85830 MB of main memory.
   CCSD energy will be calculated.
   The total correlation energy is -0.316742117600 a.u.
   The total correlation energy is -0.341319758589 a.u.
  Convergence information after     1 iterations: 
  Largest element of residual vector : -0.35846463E-01.
  Largest element of DIIS residual   : -0.35846463E-01.
   The total correlation energy is -0.351551501257 a.u.
  Convergence information after     2 iterations: 
  Largest element of residual vector : -0.18604563E-01.
  Largest element of DIIS residual   : -0.11293400E-01.
   The total correlation energy is -0.355677250508 a.u.
  Convergence information after     3 iterations: 
  Largest element of residual vector : -0.75100877E-02.
  Largest element of DIIS residual   : -0.41802596E-02.
   The total correlation energy is -0.357000962731 a.u.
  Convergence information after     4 iterations: 
  Largest element of residual vector : -0.31575143E-02.
  Largest element of DIIS residual   : -0.15358441E-02.
   The total correlation energy is -0.357207439236 a.u.
  Convergence information after     5 iterations: 
  Largest element of residual vector : -0.87751932E-03.
  Largest element of DIIS residual   : -0.41766806E-03.
   The total correlation energy is -0.357195953258 a.u.
  Convergence information after     6 iterations: 
  Largest element of residual vector : -0.28593399E-03.
  Largest element of DIIS residual   : -0.15779738E-03.
   The total correlation energy is -0.357180350861 a.u.
  Convergence information after     7 iterations: 
  Largest element of residual vector : -0.10168464E-03.
  Largest element of DIIS residual   : -0.49706867E-04.
   The total correlation energy is -0.357175843711 a.u.
  Convergence information after     8 iterations: 
  Largest element of residual vector : -0.35087174E-04.
  Largest element of DIIS residual   : -0.27805453E-04.
   The total correlation energy is -0.357176055186 a.u.
  Convergence information after     9 iterations: 
  Largest element of residual vector : -0.11488258E-04.
  Largest element of DIIS residual   : -0.63593529E-05.
   The total correlation energy is -0.357176284117 a.u.
  Convergence information after    10 iterations: 
  Largest element of residual vector : -0.69671910E-05.
  Largest element of DIIS residual   : -0.46200579E-05.
   The total correlation energy is -0.357176753156 a.u.
  Convergence information after    11 iterations: 
  Largest element of residual vector : -0.22684128E-05.
  Largest element of DIIS residual   : -0.15490795E-05.
   The total correlation energy is -0.357176943650 a.u.
  Convergence information after    12 iterations: 
  Largest element of residual vector : -0.95238774E-06.
  Largest element of DIIS residual   : -0.57818271E-06.
   The total correlation energy is -0.357177007509 a.u.
  Convergence information after    13 iterations: 
  Largest element of residual vector : -0.36205903E-06.
  Largest element of DIIS residual   : -0.24169182E-06.
   The total correlation energy is -0.357177008257 a.u.
  Convergence information after    14 iterations: 
  Largest element of residual vector : -0.19683997E-06.
  Largest element of DIIS residual   : -0.11396963E-06.
   The total correlation energy is -0.357177007594 a.u.
  Convergence information after    15 iterations: 
  Largest element of residual vector : -0.62221217E-07.
  Largest element of DIIS residual   : -0.45110069E-07.
  Amplitude equations converged in    15iterations.
   The total correlation energy is -0.357177006299 a.u.
   The CC iterations have converged.

   Largest T1 amplitudes for spin case AA:
   i       a                 i       a                 i       a    
-----------------------------------------------------------------------------
[  5      10    ]-0.02907 [  4      14    ]-0.01816 [  4      10    ] 0.01721
[  5      14    ]-0.01604 [  4      18    ] 0.01246 [  5      16    ]-0.00932
[  5      18    ] 0.00910 [  4      17    ]-0.00904 [  4      15    ]-0.00733
[  6      27    ]-0.00680 [  5      11    ]-0.00606 [  5      12    ] 0.00520
[  5      15    ] 0.00507 [  4      21    ] 0.00507 [  9      50    ]-0.00478
-----------------------------------------------------------------------------
   Norm of T1AA vector (      123 symmetry allowed elements):  0.0515610280.
-----------------------------------------------------------------------------
   Largest T2 amplitudes for spin case AB:
       _       _                 _       _                 _       _
   i   j   a   b             i   j   a   b             i   j   a   b
-----------------------------------------------------------------------------
[  5   5  10  10]-0.17675 [  4   4  35  35]-0.11604 [  5   5  26  26]-0.05313
[  5   5  16  10] 0.04820 [  5   5  10  16] 0.04820 [  5   4  35  35]-0.04655
[  4   5  35  35]-0.04655 [  5   4  10  10] 0.04108 [  4   5  10  10] 0.04108
[  5   5  15  10]-0.03677 [  5   5  10  15]-0.03677 [  5   5  12  12]-0.03281
[  5   5  35  35]-0.02929 [  5   5  38  38]-0.02531 [  4   4  39  35] 0.02470
-----------------------------------------------------------------------------
   Norm of T2AB vector (    47574 symmetry allowed elements):  0.4243369930.
-----------------------------------------------------------------------------
       Summary of iterative solution of CC equations 
      -----------------------------------------------------------
                       Correlation           Total
       Iteration         Energy              Energy
      -----------------------------------------------------------
            0        -0.316742117600     -78.793550402181  DIIS 
            1        -0.341319758589     -78.818128043169  DIIS 
            2        -0.351551501257     -78.828359785838  DIIS 
            3        -0.355677250508     -78.832485535089  DIIS 
            4        -0.357000962731     -78.833809247311  DIIS 
            5        -0.357207439236     -78.834015723817  DIIS 
            6        -0.357195953258     -78.834004237838  DIIS 
            7        -0.357180350861     -78.833988635442  DIIS 
            8        -0.357175843711     -78.833984128292  DIIS 
            9        -0.357176055186     -78.833984339767  DIIS 
           10        -0.357176284117     -78.833984568698  DIIS 
           11        -0.357176753156     -78.833985037737  DIIS 
           12        -0.357176943650     -78.833985228231  DIIS 
           13        -0.357177007509     -78.833985292089  DIIS 
           14        -0.357177008257     -78.833985292838  DIIS 
           15        -0.357177006299     -78.833985290880  DIIS 
      -----------------------------------------------------------
      A miracle has come to pass. The CC iterations have converged.
      The reference energy is       -78.47680828458064 a.u.
      The correlation energy is      -0.35717700629943 a.u.
      The total energy is           -78.83398529088008 a.u.
 @CHECKOUT-I, Total execution time (CPU/WALL):        5.15/       0.65 seconds.
--executable xvcc finished with status     0 in        0.68 seconds (walltime).
 --invoking executable--
/home/tsommerfeld/zscale/bin/xlambda
 @GETMEM-I,  Allocated   85830 MB of main memory.
 Hbar is calculated for a CCSD wave function.
 Calculation of Hbar completed.
 @CHECKOUT-I, Total execution time (CPU/WALL):        1.06/       0.15 seconds.
--executable xlambda finished with status     0 in        0.16 seconds (walltime).
 --invoking executable--
/home/tsommerfeld/zscale/bin/xvee
 @GETMEM-I,  Allocated   85830 MB of main memory.
  cc2 and ccprog  F                     0
  EOMEE-CCSD excitation energies will be evaluated.
  @SETMET-I, VPROP property integrals are used.
  @SETMET-I, A total of   3 target states will be studied.
  Summary of active alpha molecular orbitals:
------------------------------------------------------------------------------
Orbital      Sym   Eigenvalue  <xx>     <yy>     <zz>     <xy>     <xz>     <yz>
        SCF
  #  position
------------------------------------------------------------------------------
   1      1    1     -11.0624   0.000    0.000    0.000    0.000    0.000    0.000
   2      3    1      -0.8670   0.000    0.000    0.000    0.000    0.000    0.000
   3      6    1      -0.3955   0.000    0.000    0.000    0.000    0.000    0.000
   4      8    1      -0.2187   0.000    0.000    0.000    0.000    0.000    0.000
   5      9    1      -0.0116   0.000    0.000    0.000    0.000    0.000    0.000
   6      5    2      -0.4885   0.000    0.000    0.000    0.000    0.000    0.000
   7      2    3     -11.0606   0.000    0.000    0.000    0.000    0.000    0.000
   8      4    3      -0.6118   0.000    0.000    0.000    0.000    0.000    0.000
   9      7    4      -0.3464   0.000    0.000    0.000    0.000    0.000    0.000
  10     10    1       0.2794   0.000    0.000    0.000    0.000    0.000    0.000
  11     12    1       0.3726   0.000    0.000    0.000    0.000    0.000    0.000
  12     19    1       0.6390   0.000    0.000    0.000    0.000    0.000    0.000
  13     20    1       0.7329   0.000    0.000    0.000    0.000    0.000    0.000
  14     22    1       0.8597   0.000    0.000    0.000    0.000    0.000    0.000
  15     26    1       1.0433   0.000    0.000    0.000    0.000    0.000    0.000
  16     28    1       1.1257   0.000    0.000    0.000    0.000    0.000    0.000
  17     31    1       1.3922   0.000    0.000    0.000    0.000    0.000    0.000
  18     35    1       1.5176   0.000    0.000    0.000    0.000    0.000    0.000
  19     36    1       1.7667   0.000    0.000    0.000    0.000    0.000    0.000
  20     41    1       2.0813   0.000    0.000    0.000    0.000    0.000    0.000
  21     42    1       2.0967   0.000    0.000    0.000    0.000    0.000    0.000
  22     47    1       2.3092   0.000    0.000    0.000    0.000    0.000    0.000
  23     51    1       2.5933   0.000    0.000    0.000    0.000    0.000    0.000
  24     55    1       2.9602   0.000    0.000    0.000    0.000    0.000    0.000
  25     13    2       0.3752   0.000    0.000    0.000    0.000    0.000    0.000
  26     16    2       0.5612   0.000    0.000    0.000    0.000    0.000    0.000
  27     21    2       0.8386   0.000    0.000    0.000    0.000    0.000    0.000
  28     24    2       1.0302   0.000    0.000    0.000    0.000    0.000    0.000
  29     30    2       1.3156   0.000    0.000    0.000    0.000    0.000    0.000
  30     38    2       1.8788   0.000    0.000    0.000    0.000    0.000    0.000
  31     43    2       2.1289   0.000    0.000    0.000    0.000    0.000    0.000
  32     44    2       2.1660   0.000    0.000    0.000    0.000    0.000    0.000
  33     46    2       2.2085   0.000    0.000    0.000    0.000    0.000    0.000
  34     54    2       2.9585   0.000    0.000    0.000    0.000    0.000    0.000
  35     11    3       0.3390   0.000    0.000    0.000    0.000    0.000    0.000
  36     14    3       0.3918   0.000    0.000    0.000    0.000    0.000    0.000
  37     17    3       0.5838   0.000    0.000    0.000    0.000    0.000    0.000
  38     18    3       0.6204   0.000    0.000    0.000    0.000    0.000    0.000
  39     23    3       0.9604   0.000    0.000    0.000    0.000    0.000    0.000
  40     25    3       1.0423   0.000    0.000    0.000    0.000    0.000    0.000
  41     29    3       1.1377   0.000    0.000    0.000    0.000    0.000    0.000
  42     33    3       1.4561   0.000    0.000    0.000    0.000    0.000    0.000
  43     39    3       2.0055   0.000    0.000    0.000    0.000    0.000    0.000
  44     40    3       2.0567   0.000    0.000    0.000    0.000    0.000    0.000
  45     45    3       2.1776   0.000    0.000    0.000    0.000    0.000    0.000
  46     48    3       2.3442   0.000    0.000    0.000    0.000    0.000    0.000
  47     49    3       2.4479   0.000    0.000    0.000    0.000    0.000    0.000
  48     53    3       2.7041   0.000    0.000    0.000    0.000    0.000    0.000
  49     56    3       3.4191   0.000    0.000    0.000    0.000    0.000    0.000
  50     15    4       0.4466   0.000    0.000    0.000    0.000    0.000    0.000
  51     27    4       1.1010   0.000    0.000    0.000    0.000    0.000    0.000
  52     32    4       1.4555   0.000    0.000    0.000    0.000    0.000    0.000
  53     34    4       1.5117   0.000    0.000    0.000    0.000    0.000    0.000
  54     37    4       1.7787   0.000    0.000    0.000    0.000    0.000    0.000
  55     50    4       2.5845   0.000    0.000    0.000    0.000    0.000    0.000
  56     52    4       2.6540   0.000    0.000    0.000    0.000    0.000    0.000
  57     57    4       3.5070   0.000    0.000    0.000    0.000    0.000    0.000
------------------------------------------------------------------------------
  @DRVTDA-I, Roots obtained by Davidson method.
  calling tda davidson                       6                     2
  after tda davidson                      6                     6
                     3                     3
  kroot is                      3
__________________________________________________________________________
    Tamm-Dancoff (CIS) Excitation Energies and Transition Moments

                Excitation         Transition Dipole         Oscillator
 Root  Symmetry  Energy         x           y           z     Strength
__________________________________________________________________________
   1       2    0.21430      0.0000      0.0000      0.0000  .00000000D+00
__________________________________________________________________________
 
__________________________________________________________________________
  TDA excitation ergy:             0.214302312410 a.u.    5.8315 eV
  Total TDA electronic energy:   -78.262505972171 a.u.
 
  Dominant contributions: 
  SCF eigenvalue ordering used in list below. 
--------------------------------------------------------------------------------
    I    j    A    b
--------------------------------------------------------------------------------
    9    0   13    0  -0.9799428683 AA  
    8    0   13    0  -0.1747200698 AA  
    8    0   24    0  -0.0388884691 AA  
    9    0   21    0   0.0387231021 AA  
    9    0   24    0  -0.0379137217 AA  
    8    0   21    0   0.0304028601 AA  
    7    0   11    0   0.0270678183 AA  
    9    0   16    0   0.0240022856 AA  
    7    0   14    0   0.0233634288 AA  
    6    0   13    0   0.0222718059 AA  
    5    0   12    0   0.0193580066 AA  
    8    0   16    0  -0.0154699323 AA  
    7    0   17    0  -0.0133062460 AA  
    8    0   30    0  -0.0099840783 AA  
    5    0   10    0   0.0089852680 AA  
--------------------------------------------------------------------------------
   2       2    0.34671      0.0000      0.0000      0.0000  .00000000D+00
__________________________________________________________________________
 
__________________________________________________________________________
  TDA excitation ergy:             0.346706716919 a.u.    9.4344 eV
  Total TDA electronic energy:   -78.130101567662 a.u.
 
  Dominant contributions: 
  SCF eigenvalue ordering used in list below. 
--------------------------------------------------------------------------------
    I    j    A    b
--------------------------------------------------------------------------------
    9    0   16    0  -0.7529089884 AA  
    8    0   13    0  -0.6346183692 AA  
    9    0   13    0   0.0961315289 AA  
    8    0   21    0   0.0794600324 AA  
    8    0   24    0  -0.0616163752 AA  
    7    0   11    0  -0.0593029883 AA  
    7    0   14    0  -0.0496431684 AA  
    5    0   12    0  -0.0376891850 AA  
    6    0   13    0  -0.0337977054 AA  
    9    0   21    0   0.0289259930 AA  
    7    0   17    0   0.0174395801 AA  
    5    0   10    0  -0.0153653715 AA  
    8    0   30    0   0.0147380468 AA  
    9    0   24    0  -0.0134715751 AA  
    4    0   15    0  -0.0092988389 AA  
--------------------------------------------------------------------------------
   3       2    0.35742      0.0000      0.0000      0.0000  .00000000D+00
__________________________________________________________________________
 
__________________________________________________________________________
  TDA excitation ergy:             0.357415368024 a.u.    9.7258 eV
  Total TDA electronic energy:   -78.119392916557 a.u.
 
  Dominant contributions: 
  SCF eigenvalue ordering used in list below. 
--------------------------------------------------------------------------------
    I    j    A    b
--------------------------------------------------------------------------------
    8    0   13    0   0.6041333004 AA  
    7    0   11    0  -0.5968702593 AA  
    9    0   16    0  -0.4874957974 AA  
    9    0   13    0  -0.1453050381 AA  
    8    0   24    0   0.0617706325 AA  
    8    0   21    0  -0.0531038535 AA  
    8    0   16    0   0.0493811052 AA  
    7    0   17    0   0.0410843519 AA  
    7    0   23    0   0.0391641473 AA  
    7    0   25    0   0.0383599311 AA  
    7    0   14    0  -0.0376948994 AA  
    7    0   18    0  -0.0335106533 AA  
    5    0   10    0  -0.0286918277 AA  
    9    0   24    0   0.0242990702 AA  
    5    0   35    0  -0.0197647915 AA  
--------------------------------------------------------------------------------
__________________________________________________________________________
  @DOEOMEE-I, Excitation energies computed by the EOMEE-CCSD/CCSD-LR method.
  @DOEOMEE-I, right-hand eigenvectors will be computed.
  Beginning symmetry block   2.   3 roots requested.
  @DOEOMEE-I, Matrix dimension for diagonalization:    45852
  Creating initial guess for root
________________________________________________________________________
            Subspace          Eigenvalue           
 Iteration  Dimension   (a.u.)         (eV)       Overlap      Residual
________________________________________________________________________
  @NEWGES-I, Using TDA initial guess.
  1   1  0.2795667138D+00  0.7607397034D+01  0.0000000000D+00  0.1613858914D+01
  2   2  0.2160963800D+00  0.5880281447D+01  0.9449800923D+00  0.2993038676D+00
  3   3  0.1960438229D+00  0.5334623628D+01  0.9804691059D+00  0.4951019379D-01
  4   4  0.1929751880D+00  0.5251121827D+01  0.9976765879D+00  0.3173595209D-01
  5   5  0.1924777032D+00  0.5237584578D+01  0.9991901120D+00  0.7422699850D-02
  6   6  0.1924156005D+00  0.5235894677D+01  0.9999493733D+00  0.2310006323D-02
  L-O-C-K-I-N-G O-N R-O-O-T 
  7   7  0.1924185614D+00  0.5235975248D+01  0.9999965023D+00  0.8185518795D-03
  8   8  0.1924133616D+00  0.5235833754D+01  0.9999995575D+00  0.4561144223D-03
  9   9  0.1924136229D+00  0.5235840864D+01  0.9999998467D+00  0.1096244639D-03
 10  10  0.1924137366D+00  0.5235843957D+01  0.9999999860D+00  0.7223925108D-04
 11  11  0.1924135702D+00  0.5235839429D+01  0.9999999964D+00  0.2236731994D-04
 12  12  0.1924136704D+00  0.5235842157D+01  0.9999999997D+00  0.7075678661D-05
  Converged eigenvalue:   0.192413670408215       a.u.
   Total EOMEE-CCSD electronic energy      -78.641571620471865 a.u.
  Converged eigenvector 
  SCF eigenvalue ordering used in list below. 
--------------------------------------------------------------------------------
    I    j    A    b
--------------------------------------------------------------------------------
    9    0   13    0   0.6572199562 AA  
    9    9   13   10   0.1984232510 ABAB
    9    9   10   13   0.1984232510 ABAB
    9    9   13   28  -0.0527383525 ABAB
    9    9   28   13  -0.0527383525 ABAB
    9    8   13   10  -0.0452634087 ABAB
    8    9   10   13  -0.0452634087 ABAB
    9    9   13   26   0.0405090807 ABAB
    9    9   26   13   0.0405090807 ABAB
    9    0   24    0   0.0365010296 AA  
    9    8   10   13  -0.0322299343 ABAB
    8    9   13   10  -0.0322299343 ABAB
    9    8   15   11  -0.0319939466 ABAB
    8    9   11   15  -0.0319939466 ABAB
    9    9   13   19  -0.0315535775 ABAB
--------------------------------------------------------------------------------
  Converged eigenvector, normalized to one 
  SCF eigenvalue ordering used in list below. 
--------------------------------------------------------------------------------
    I    j    A    b
--------------------------------------------------------------------------------
    9    0   13    0   0.6572199562 AA  
    9    9   13   10   0.1984232510 ABAB
    9    9   10   13   0.1984232510 ABAB
    9    9   13   28  -0.0527383525 ABAB
    9    9   28   13  -0.0527383525 ABAB
    9    8   13   10  -0.0452634087 ABAB
    8    9   10   13  -0.0452634087 ABAB
    9    9   13   26   0.0405090807 ABAB
    9    9   26   13   0.0405090807 ABAB
    9    0   24    0   0.0365010296 AA  
    9    8   10   13  -0.0322299343 ABAB
    8    9   13   10  -0.0322299343 ABAB
    9    8   15   11  -0.0319939466 ABAB
    8    9   11   15  -0.0319939466 ABAB
    9    9   13   19  -0.0315535775 ABAB
--------------------------------------------------------------------------------

  Eigenvector is saved on CCRE_2_1  

  Adding new vector to expansion space.
  Guess for next eigenvalue   0.346706716918630     
 13  13  0.3494588965D+00  0.9509260016D+01  0.5106589345D+00  0.2740068629D+00
 14  14  0.3408021473D+00  0.9273697893D+01  0.9865222817D+00  0.8610438774D-01
 15  15  0.3396573129D+00  0.9242545365D+01  0.9963044873D+00  0.2156824513D-01
 16  16  0.3393855995D+00  0.9235151669D+01  0.9987768991D+00  0.1177192501D-01
 17  17  0.3393348012D+00  0.9233769376D+01  0.9991508917D+00  0.5612740048D-02
  L-O-C-K-I-N-G O-N R-O-O-T 
 18  18  0.3393167454D+00  0.9233278054D+01  0.9997253002D+00  0.3262576908D-02
 19  19  0.3393104152D+00  0.9233105799D+01  0.9999805711D+00  0.1539413095D-02
 20  20  0.3393107996D+00  0.9233116261D+01  0.9999966601D+00  0.5719643838D-03
 21  21  0.3393102446D+00  0.9233101157D+01  0.9999993853D+00  0.2683657879D-03
 22  22  0.3393096132D+00  0.9233083977D+01  0.9999998950D+00  0.7859408904D-04
 23  23  0.3393096850D+00  0.9233085929D+01  0.9999999940D+00  0.4138929099D-04
 24  24  0.3393096722D+00  0.9233085581D+01  0.9999999991D+00  0.1164449217D-04
 25  25  0.3393096885D+00  0.9233086025D+01  0.9999999999D+00  0.4210683742D-05
  Converged eigenvalue:   0.339309688504177       a.u.
   Total EOMEE-CCSD electronic energy      -78.494675602375906 a.u.
  Converged eigenvector 
  SCF eigenvalue ordering used in list below. 
--------------------------------------------------------------------------------
    I    j    A    b
--------------------------------------------------------------------------------
    7    0   11    0   0.4934868291 AA  
    8    0   13    0  -0.4468829693 AA  
    9    9   13   10   0.1053311212 ABAB
    9    9   10   13   0.1053311212 ABAB
    5    8   11   11   0.0637778155 ABAB
    8    5   11   11   0.0637778155 ABAB
    8    0   24    0  -0.0462814622 AA  
    8    0   21    0   0.0459951092 AA  
    7    0   23    0  -0.0412113136 AA  
    7    0   25    0  -0.0383333256 AA  
    8    8   15   11   0.0327324494 ABAB
    8    8   11   15   0.0327324494 ABAB
    9    8   10   13  -0.0325747426 ABAB
    8    9   13   10  -0.0325747426 ABAB
    7    0   18    0   0.0313177005 AA  
--------------------------------------------------------------------------------
  Converged eigenvector, normalized to one 
  SCF eigenvalue ordering used in list below. 
--------------------------------------------------------------------------------
    I    j    A    b
--------------------------------------------------------------------------------
    7    0   11    0   0.4934868291 AA  
    8    0   13    0  -0.4468829693 AA  
    9    9   13   10   0.1053311212 ABAB
    9    9   10   13   0.1053311212 ABAB
    5    8   11   11   0.0637778155 ABAB
    8    5   11   11   0.0637778155 ABAB
    8    0   24    0  -0.0462814622 AA  
    8    0   21    0   0.0459951092 AA  
    7    0   23    0  -0.0412113136 AA  
    7    0   25    0  -0.0383333256 AA  
    8    8   15   11   0.0327324494 ABAB
    8    8   11   15   0.0327324494 ABAB
    9    8   10   13  -0.0325747426 ABAB
    8    9   13   10  -0.0325747426 ABAB
    7    0   18    0   0.0313177005 AA  
--------------------------------------------------------------------------------

  Eigenvector is saved on CCRE_2_2  

  Adding new vector to expansion space.
  Guess for next eigenvalue   0.357415368023682     
 26  26  0.3495523091D+00  0.9511801900D+01  0.1522530680D+00  0.9124732469D-01
 27  27  0.3485371145D+00  0.9484177053D+01  0.9962034999D+00  0.1689793078D-01
 28  28  0.3483278403D+00  0.9478482412D+01  0.9997111204D+00  0.7637223056D-02
 29  29  0.3482848753D+00  0.9477313273D+01  0.9999603168D+00  0.2071337760D-02
  L-O-C-K-I-N-G O-N R-O-O-T 
 30  30  0.3482838069D+00  0.9477284201D+01  0.9999970137D+00  0.9486296118D-03
 31  31  0.3482837682D+00  0.9477283149D+01  0.9999993636D+00  0.3222270443D-03
 32  32  0.3482835382D+00  0.9477276889D+01  0.9999999002D+00  0.1248699107D-03
 33  33  0.3482836637D+00  0.9477280305D+01  0.9999999869D+00  0.4929412903D-04
 34  34  0.3482836656D+00  0.9477280357D+01  0.9999999979D+00  0.1811676728D-04
 35  35  0.3482836825D+00  0.9477280816D+01  0.9999999996D+00  0.8897892865D-05
  Converged eigenvalue:   0.348283682492999       a.u.
   Total EOMEE-CCSD electronic energy      -78.485701608387075 a.u.
  Converged eigenvector 
  SCF eigenvalue ordering used in list below. 
--------------------------------------------------------------------------------
    I    j    A    b
--------------------------------------------------------------------------------
    8    0   13    0  -0.4435559264 AA  
    7    0   11    0  -0.4303228710 AA  
    9    0   16    0  -0.2523289297 AA  
    9    9   13   10   0.1011253216 ABAB
    9    9   10   13   0.1011253216 ABAB
    9    9   16   10  -0.0757850983 ABAB
    9    9   10   16  -0.0757850983 ABAB
    5    8   11   11  -0.0519907254 ABAB
    8    5   11   11  -0.0519907254 ABAB
    8    0   24    0  -0.0443913291 AA  
    8    0   21    0   0.0345575527 AA  
    9    8   10   13  -0.0328376351 ABAB
    8    9   13   10  -0.0328376351 ABAB
    7    0   25    0   0.0313978530 AA  
    7    0   23    0   0.0308367524 AA  
--------------------------------------------------------------------------------
  Converged eigenvector, normalized to one 
  SCF eigenvalue ordering used in list below. 
--------------------------------------------------------------------------------
    I    j    A    b
--------------------------------------------------------------------------------
    8    0   13    0  -0.4435559264 AA  
    7    0   11    0  -0.4303228710 AA  
    9    0   16    0  -0.2523289297 AA  
    9    9   13   10   0.1011253216 ABAB
    9    9   10   13   0.1011253216 ABAB
    9    9   16   10  -0.0757850983 ABAB
    9    9   10   16  -0.0757850983 ABAB
    5    8   11   11  -0.0519907254 ABAB
    8    5   11   11  -0.0519907254 ABAB
    8    0   24    0  -0.0443913291 AA  
    8    0   21    0   0.0345575527 AA  
    9    8   10   13  -0.0328376351 ABAB
    8    9   13   10  -0.0328376351 ABAB
    7    0   25    0   0.0313978530 AA  
    7    0   23    0   0.0308367524 AA  
--------------------------------------------------------------------------------

  Eigenvector is saved on CCRE_2_3  

  Solution of   3 roots required   35 iterations.
 @CHECKOUT-I, Total execution time (CPU/WALL):       20.80/       2.61 seconds.
--executable xvee finished with status     0 in        2.63 seconds (walltime).
  The final electronic energy is       -78.485701608387075 a.u. 
  This computation required                            4.29 seconds (walltime).
