CFour on node02
 --invoking executable--
/home/tsommerfeld/zscale/bin/xjoda


   *************************************************************************
         <<<     CCCCCC     CCCCCC   |||     CCCCCC     CCCCCC   >>>
       <<<      CCC        CCC       |||    CCC        CCC         >>>
      <<<      CCC        CCC        |||   CCC        CCC            >>>
    <<<        CCC        CCC        |||   CCC        CCC              >>>
      <<<      CCC        CCC        |||   CCC        CCC            >>>
       <<<      CCC        CCC       |||    CCC        CCC         >>>
         <<<     CCCCCC     CCCCCC   |||     CCCCCC     CCCCCC   >>>
   *************************************************************************

     ****************************************************************
     * CFOUR Coupled-Cluster techniques for Computational Chemistry *
     ****************************************************************
 

   Department of Chemistry                Institut fuer Physikalische Chemie
   University of Florida                  Universitaet Mainz
   Gainesville, FL 32611, USA             D-55099 Mainz, Germany

   Department of Chemistry                Department of Chemistry
   Johns Hopkins University               Southern Methodist University
   Baltimore, MD 21218, USA               Dallas, TX 75275, USA

   Institute of Nanotechnology            Department of Physical Chemistry
   Karlsruhe Inst. of Technology          Eotvos Lorand University
   D-76021 Karlsruhe, Germany             H-1053 Budapest, Hungary

 
                       Version 2.1
 
                     node02                                            
                     Tue Mar 29 16:04:22 CST 2022                      
                     integer*8 version is running
 
********************************************************************************
*                          Input from ZMAT file                                *
********************************************************************************
h_ethylene                                                                      
C       0.000000      0.0   -0.664500                                           
C       0.000000      0.0    0.664500                                           
H       0.962348      0.0   -1.159080                                           
H       0.962348      0.0    1.159080                                           
H      -0.962348      0.0   -1.159080                                           
H      -0.962348      0.0    1.159080                                           
H      0.000000      2.1818181818181817      0.000000                           
                                                                                
*CFOUR(CALC=CCSD                                                                
EXCITE=EOMEE                                                                    
ESTATE_SYM=0/3/0/0                                                              
CC_PROG=VCC                                                                     
CHARGE=-1                                                                       
COORDINATES=CARTESIAN                                                           
BASIS=SPECIAL                                                                   
REFERENCE=RHF                                                                   
MEM_SIZE=90,MEM_UNIT=GB)                                                        
                                                                                
C:CC-PVDZ                                                                       
C:CC-PVDZ                                                                       
H:CC-PVDZ                                                                       
H:CC-PVDZ                                                                       
H:CC-PVDZ                                                                       
H:CC-PVDZ                                                                       
H:AUG-CC-PVDZ                                                                   
                                                                                
********************************************************************************
    -------------------------------------------------------------------
                    CFOUR Control Parameters 
    -------------------------------------------------------------------
        External           Internal           Value            Units
          Name               Name
    -------------------------------------------------------------------
       ABCDTYPE             IABCDT         STANDARD    [  0]    ***   
       ANHARMONIC           IANHAR         OFF         [  0]    ***   
       ANH_ALGORIT          IANALG         STANDARD    [  0]    ***   
       ANH_DERIVAT          IANDER         SECOND      [  1]    ***   
       ANH_MODE             ANHMOD         VIBRATION   [  0]    ***   
       ANH_STEPSIZ          ICUBST             50000          x 10-6  
       ANH_SYMMETR          IANHSM         ABELIAN     [  0]    ***   
       AO_LADDERS           IAOLAD         SINGLEPASS  [  1]    ***   
       AV_SCF               IAVSCF         OFF         [  0]    ***   
       BASIS                IBASIS         SPECIAL     [  0]    ***   
       BOTHVECTORS          BOTHVC         OFF         [  0]    ***   
       BOX_POTENT           IPIAB          OFF         [  0]    ***   
       BREIT                IBREIT         OFF         [  0]    ***   
       BRUCK_CONV           IBRTOL          10D-  4             ***   
       BRUECKNER            IBRKNR         OFF         [  0]    ***   
       BUFFERSIZE           IBUFFS              4096            ***   
       CACHE_RECS           ICHREC             10               ***   
       CALCLEVEL            ICLLVL         CCSD        [ 10]    ***   
       CCORBOPT             ICCORB         OFF         [  0]  x 0.01  
       CC_CONV              ICCCNV          10D-  7             ***   
       CC_EXPORDER          ICCEOR              5               ***   
       CC_EXTRAPOL          ICCEXT         DIIS        [  1]    ***   
       CC_GUESS             ICCGES         MP2         [  0]    ***   
       CC_MAXCYC            ICCCYC            100              cycles 
       CC_PROGRAM           ICCPRO         VCC         [  0]    ***   
       CHARGE               ICHRGE             -1               ***   
       CHOLESKY             ICHOLE         OFF         [  0]    ***   
       CIS_CONV             ICISTL              5               ***   
       COMM_SIZE            IPSIZE            ***               ***   
       CONSTANT             ICONST         OLD         [  1]    ***   
       CONTINUUM            ICONTU         NONE        [  0]    ***   
       CONTRACTION          ICNTYP         GENERAL     [  1]    ***   
       COORDINATES          ICOORD         CARTESIAN   [  1]    ***   
       CPHF_CONVER          ICPHFT          10D- 16             ***   
       CPHF_MAXCYC          ICPHFC             64              cycles 
       CUBIC                ICUBIC         OFF         [  0]    ***   
       CURVILINEAR          ICURVY         OFF         [  0]    ***   
       DBOC                 IDBOC          OFF         [  0]    ***   
       DCT                  IDCT           OFF         [  0]    ***   
       DERIV_LEV            IDRLVL         ZERO        [  0]    ***   
       DEVMEM_SIZE          IDVMEM         *********           MByte  
       DIAG_MRCC            IEOMST          10D-  0             ***   
       DIFF_TYPE            IDIFTY         RELAXED     [  0]    ***   
       DIRECT               IDIRCT         OFF         [  0]    ***   
       DROPMO               IDRPMO      NONE         
       ECP                  IECP           OFF         [  0]    ***   
       EIGENVECTOR          IVEC                1               ***   
       EL_ANHARM            IELANH         OFF         [  0]    ***   
       EOMFOLLOW            IEOMSR         ENERGY      [  0]    ***   
       EOMIP                IEOMIP         OFF         [  0]    ***   
       EOMLEVEL             HBARFM         SAME        [  0]    ***   
       EOM_MRCC             IMRCCE         NEW         [  1]    ***   
       EOM_NONIT            EOMNON         OFF         [  0]    ***   
       EOM_NSING            IEOMSI          10D-  0             ***   
       EOM_NSTATES          IMRCCD         DAVIDSON    [  0]    ***   
       EOM_NTRIP            IEOMTR          10D-  0             ***   
       EOM_ORDER            IEXORD         ENERGY      [  0]    ***   
       EOM_PROPSTA          IEOMST              0               ***   
       ESTATE_CONV          IEXTOL          10D-  5             ***   
       ESTATE_DIAG          IEXDIG         ITERATIVE   [  0]    ***   
       ESTATE_LOCK          IESLOC         ON          [  1]    ***   
       ESTATE_MAXC          IEXMXC             40               ***   
       ESTATE_PROP          IEXPRP         OFF         [  0]    ***   
       ESTATE_SYM           IEXSYM   0,  3,  0,  0,
       EVAL_HESS            IRECAL              0            # of cyc.
       EXCITATION           IEXCIT              0               ***   
       EXCITE               IEXCIT         EOMEE       [  3]    ***   
       EXTERN_POT           IEXPOT         OFF         [  0]    ***   
       FCGRADNEW            IFCGNW         OFF         [  0]    ***   
       FC_FIELD             IFINFC              0             x 10-6  
       FD_CALTYPE           IFDCAL         GRADONLY    [  0]    ***   
       FD_PROJECT           IFDPRJ         OFF         [  1]    ***   
       FD_STEPSIZE          IDISFD              0            10-4 bohr
       FD_USEGROUP          IFDGRP         FULL        [  0]    ***   
       FILE_RECSIZ          IFLREC              4096           words  
       FINITE_PERT          IFIPER              0             x 10-6  
       FIXGEOM              IFIXGM         OFF         [  0]    ***   
       FOCK                 IFOCK          AO          [  1]    ***   
       FREQ_ALGORI          IVIALG         STANDARD    [  0]    ***   
       FROZEN_CORE          IFROCO         OFF         [  0]    ***   
       GAMMA_ABCD           IGABCD         STORE       [  0]    ***   
       GAMMA_ABCI           IGABCI         STORE       [  0]    ***   
       GENBAS_1             IGNBS1              0               ***   
       GENBAS_2             IGNBS2              0               ***   
       GENBAS_3             IGNBS3              0               ***   
       GENBAS_4             IGNBS4              0               ***   
       GEO_CONV             ICONTL              5              H/bohr 
       GEO_MAXCYC           IOPTCY             50               ***   
       GEO_MAXSTEP          IMXSTP            300            millibohr
       GEO_METHOD           INR            SINGLE_POINT[  5]    ***   
       GIAO                 IGIAO          OFF         [  1]    ***   
       GIMIC                IGIMIC         OFF         [  0]    ***   
       GRID                 IGRID          OFF         [  0]    ***   
       GRID_ALGO            IGALGO         SERIAL      [  0]    ***   
       GUESS                IGUESS         MOREAD      [  0]    ***   
       HBAR                 IHBAR          ON          [  1]    ***   
       HESS_TYPE            IHESTP         SCF         [  0]    ***   
       HF2_FILE             IHF2Fl         USE         [  1]    ***   
       HFSTABILITY          ISTABL         OFF         [  0]    ***   
       INCORE               INCORE         OFF         [  0]    ***   
       INPUT_MRCC           IMRCC          ON          [  1]    ***   
       INTEGRALS            INTTYP         VMOL        [  1]    ***   
       JODA_PRINT           IJPRNT              0               ***   
       KEYWORD_OUT          IDMPKW         NO          [  0]    ***   
       LINDEP_TOL           ILINDP              8               ***   
       LINEQ_CONV           IZTACN          10D-  7           cycles  
       LINEQ_EXPOR          ILMAXD              5               ***   
       LINEQ_MAXCY          ILMAXC            100               ***   
       LINEQ_TYPE           ILTYPE         DIIS        [  1]    ***   
       LOCK_ORBOCC          ILOCOC         OFF         [  0]    ***   
       MEMORY_SIZE          IMEMSZ         *********           words  
       MEM_UNIT             IMEMU          GB          [  3]    ***   
       MRCC                 IMRCCC         OFF         [  0]    ***   
       MULTIPLICTY          IMULTP              1               ***   
       NACOUPLING           IVCOUP         OFF         [  0]    ***   
       NEGEVAL              IDIE           ABORT       [  0]    ***   
       NEWNORM              INEWNO         OFF         [  0]    ***   
       NON-HF               INONHF         OFF         [  0]    ***   
       NTOP_TAMP            ITOPT2             15               ***   
       NUC_MODEL            INUCMO         POINT       [  0]    ***   
       OCCUPATION           IOCCU   ESTIMATED BY SCF 
       OPEN-SHELL           IOPEN          SPIN-ORBITAL[  0]    ***   
       OPTVIB               IOPTVB         OFF         [  0]    ***   
       ORBITALS             IORBTP         STANDARD    [  0]    ***   
       PARALLEL             IPARAL         ON          [  1]    ***   
       PARA_INT             IPINTS         ON          [  1]    ***   
       PARA_PRINT           IPPRIN              0               ***   
       PERT_ORB             IPTORB         STANDARD    [  0]    ***   
       POINTS               IGRDFD              0               ***   
       PRINT                IPRNT               0               ***   
       PROPS                IPROPS         OFF         [  0]    ***   
       PROP_INTEGR          IINTYP         INTERNAL    [  0]    ***   
       PSI                  IPSI           OFF         [  0]    ***   
       QC_ALG               IQCALG         FLM         [  0]    ***   
       QC_LINALG            IQCLIN         TRIDIAG     [  2]    ***   
       QC_MAXCYC            IQCMAX          10D-100           cycles  
       QC_MAXSCFCY          IQCMSC          10D- 15           cycles  
       QC_RTRUST            IQCRTR          10D-  0           x 10-3  
       QC_SKIPSCF           IQCSKI         OFF         [  0]    ***   
       QC_START             IQCSTA          10D-  1             ***   
       QRHFGUESS            IQGUES         OFF         [  0]    ***   
       QUARTIC              IQUART         OFF         [  0]    ***   
       RAMAN_INT            IRAMIN         OFF         [  0]    ***   
       RAMAN_ORB            IRAMRE         UNRELAXED   [  0]    ***   
       RDO                  IRDOFM         OFF         [  0]    ***   
       REDUCE_REPR          REDREP         Ir          [  0]    ***   
       REFERENCE            IREFNC         RHF         [  0]    ***   
       RELATIVIST           IRELAT         OFF         [  0]    ***   
       RELAX_DENS           IRDENS         OFF         [  0]    ***   
       RESET_FLAGS          IRESET         OFF         [  0]    ***   
       RESTART_CC           ICCRES         OFF         [  0]    ***   
       ROT_EVEC             ROTVEC              0               ***   
       SAVE_INTS            ISVINT         OFF         [  0]    ***   
       SCALE_ON             ISTCRT              0               ***   
       SCF_CONV             ISCFCV          10D-  7             ***   
       SCF_DAMPING          IDAMP               0             x 10-3  
       SCF_EXPORDE          IRPPOR              6               ***   
       SCF_EXPSTAR          IRPPLS              8               ***   
       SCF_EXTRAPO          IRPP           ON          [  1]    ***   
       SCF_MAXCYC           ISCFCY            150              cycles 
       SCF_NOSTOP           ISCFST         OFF         [  0]    ***   
       SCF_PRINT            ISCFPR              0               ***   
       SCF_PROG             ISCFPR         SCF         [  0]    ***   
       SD_FIELD             IFINSD              0             x 10-6  
       SOPERT               IPERSO         OFF         [  0]    ***   
       SPHERICAL            IDFGHI         ON          [  1]    ***   
       SPINORBIT            ISOCAL         OFF         [  0]    ***   
       SPINROTATIO          ISRCON         OFF         [  0]    ***   
       SPIN_FLIP            ISPFLP         OFF         [  0]    ***   
       SPIN_ORBIT           ISPORB         OFF         [  0]    ***   
       SPIN_SCAL            ISCSMP         OFF         [  0]    ***   
       STEEPSCALE           ISTPSC              1000          x 10-3  
       SUBGROUP             ISUBGP         DEFAULT     [  0]    ***   
       SUBGRPAXIS           ISBXYZ         X           [  0]    ***   
       SYMMETRY             ISYM           ON          [  0]    ***   
       SYM_CHECK            ISYMCK         OVERRIDE    [  1]    ***   
       T3_EXTRAPOL          IT3EXT         OFF         [  0]    ***   
       T4_EXTRAPOL          IT4EXP         OFF         [  0]    ***   
       TAMP_SUM             IEVERY              5               ***   
       TESTSUITE            ITESTS         OFF         [  0]    ***   
       THERMOCH             ITHERM         OFF         [  0]    ***   
       TOL_CHOLESK          ITOLCH          10D-  4             ***   
       TRANGRAD             IRESRM         OFF         [  0]    ***   
       TRANS_INV            ITRAIN         USE         [  0]    ***   
       TREAT_PERT           ITREAT         SIMULTANEOUS[  0]    ***   
       TRIP_ALGORI          ITRALG         NORMAL      [  0]    ***   
       UIJ_THRESHO          IUIJTH              1               ***   
       UNITS                IUNITS         ANGSTROM    [  0]    ***   
       UNOS                 IUNOS          OFF         [  0]    ***   
       UPDATE_HESS          IHUPDT         ON          [  1]    ***   
       VIBPHASE             ISETPH         STANDARD    [  0]    ***   
       VIBRATION            IVIB           NO          [  0]    ***   
       VIB_ALGORIT          IGEALG         STANDARD    [  0]    ***   
       VNATORB              IVNORB         OFF         [  0]    ***   
       VTRAN                IVTRAN         FULL/PARTIAL[  0]    ***   
       XFIELD               IXEFLD              0             x 10-6  
       XFORM_TOL            IXFTOL          10D- 11             ***   
       YFIELD               IYEFLD              0             x 10-6  
       ZFIELD               IZEFLD              0             x 10-6  
       ZSCALE_EXP           IZEXPS         OFF         [  0]    ***   
    -------------------------------------------------------------------
  @GETXYZ-I,     7 atoms read from ZMAT.
   Rotational constants (in cm-1): 
          0.8165700880             0.8536890782             2.0153737264
   Rotational constants (in MHz): 
      24480.1588097611         25592.9582983935         60419.3927860235
********************************************************************************
   The full molecular point group is C2v .
   The largest Abelian subgroup of the full molecular point group is C2v .
   The computational point group is C2v .
********************************************************************************


 ----------------------------------------------------------------
         Coordinates used in calculation (QCOMP) 
 ----------------------------------------------------------------
 Z-matrix   Atomic            Coordinates (in bohr)
  Symbol    Number           X              Y              Z
 ----------------------------------------------------------------
     C         6         0.00000000    -1.25572327     0.14309324
     C         6         0.00000000     1.25572327     0.14309324
     H         1         1.81857454    -2.19034422     0.14309324
     H         1         1.81857454     2.19034422     0.14309324
     H         1        -1.81857454    -2.19034422     0.14309324
     H         1        -1.81857454     2.19034422     0.14309324
     H         1         0.00000000     0.00000000    -3.97994644
 ----------------------------------------------------------------
 
   Interatomic distance matrix (Angstroms) 
 
                 C             C             H             H             H    
                [ 1]        [ 2]        [ 3]        [ 4]        [ 5]
  C    [ 1]     0.00000
  C    [ 2]     1.32900     0.00000
  H    [ 3]     1.08200     2.06193     0.00000
  H    [ 4]     2.06193     1.08200     2.31816     0.00000
  H    [ 5]     1.08200     2.06193     1.92470     3.01303     0.00000
  H    [ 6]     2.06193     1.08200     3.01303     1.92470     2.31816
  H    [ 7]     2.28077     2.28077     2.65140     2.65140     2.65140
 
                 H             H    
                [ 6]        [ 7]
  H    [ 6]     0.00000
  H    [ 7]     2.65140     0.00000
 rotcon2
   Rotational constants (in cm-1): 
          0.8165700880             2.0153737264             0.8536890782
   Rotational constants (in MHz): 
      24480.1588097611         60419.3927860235         25592.9582983935
  ECPDATA file not present.   Using default ECPDATA. 
  There are   57 basis functions.
 @GEOPT-W, Archive file not created for single-point calculation.
 @CHECKOUT-I, Total execution time (CPU/WALL):        0.12/       0.13 seconds.
--executable xjoda finished with status     0 in        0.15 seconds (walltime).
 --invoking executable--
/home/tsommerfeld/zscale/bin/xvmol
 SERIAL VERSION OF MOLECULE STARTED
********************************************************************************
                    INPUT FROM MOL FILE
********************************************************************************
INTGRL        1    0    1    0    0    0    0    0    0                         
         *** CFOUR Program System (Release V0.1) ***                            
h_ethylene                                                                      
    3    2 X  Y       0.10E-08              0    0                              
   9999.00      3.00                                                            
          6.00000000    1    3    1    1    1                                   
C #1   0.000000000000000  -1.255723272983657   0.143093243554314                
    9    3                                                                      
   6665.00000000000       6.920000000000000E-004 -1.460000000000000E-004        
  0.000000000000000E+000                                                        
   1000.00000000000       5.329000000000000E-003 -1.154000000000000E-003        
  0.000000000000000E+000                                                        
   228.000000000000       2.707700000000000E-002 -5.725000000000000E-003        
  0.000000000000000E+000                                                        
   64.7100000000000       0.101718000000000      -2.331200000000000E-002        
  0.000000000000000E+000                                                        
   21.0600000000000       0.274740000000000      -6.395500000000000E-002        
  0.000000000000000E+000                                                        
   7.49500000000000       0.448564000000000      -0.149981000000000             
  0.000000000000000E+000                                                        
   2.79700000000000       0.285074000000000      -0.127262000000000             
  0.000000000000000E+000                                                        
  0.521500000000000       1.520400000000000E-002  0.544529000000000             
  0.000000000000000E+000                                                        
  0.159600000000000      -3.191000000000000E-003  0.580496000000000             
   1.00000000000000                                                             
    4    2                                                                      
   9.43900000000000       3.810900000000000E-002  0.000000000000000E+000        
   2.00200000000000       0.209480000000000       0.000000000000000E+000        
  0.545600000000000       0.508557000000000       0.000000000000000E+000        
  0.151700000000000       0.468842000000000        1.00000000000000             
    1    1                                                                      
  0.550000000000000        1.00000000000000                                     
          1.00000000    1    2    1    1                                        
H #2   1.818574537711477  -2.190344215575466   0.143093243554314                
    4    2                                                                      
   13.0100000000000       1.968500000000000E-002  0.000000000000000E+000        
   1.96200000000000       0.137977000000000       0.000000000000000E+000        
  0.444600000000000       0.478148000000000       0.000000000000000E+000        
  0.122000000000000       0.501240000000000        1.00000000000000             
    1    1                                                                      
  0.727000000000000        1.00000000000000                                     
          1.00000000    1    2    1    1                                        
H #3   0.000000000000000   0.000000000000000  -3.979946437902389                
    5    3                                                                      
   13.0100000000000       1.968500000000000E-002  0.000000000000000E+000        
  0.000000000000000E+000                                                        
   1.96200000000000       0.137977000000000       0.000000000000000E+000        
  0.000000000000000E+000                                                        
  0.444600000000000       0.478148000000000       0.000000000000000E+000        
  0.000000000000000E+000                                                        
  0.122000000000000       0.501240000000000        1.00000000000000             
  0.000000000000000E+000                                                        
  2.974000000000000E-002  0.000000000000000E+000  0.000000000000000E+000        
   1.00000000000000                                                             
    2    2                                                                      
  0.727000000000000        1.00000000000000       0.000000000000000E+000        
  0.141000000000000       0.000000000000000E+000   1.00000000000000             
FINISH                                                                          
 
********************************************************************************
 ONE- AND TWO-ELECTRON INTEGRALS OVER SYMMETRY-ADAPTED AOS ARE CALCULATED.

  SPHERICAL HARMONICS ARE USED.
  
  INTEGRALS LESS THAN  0.10E-13 ARE NEGLECTED.

  NUCLEAR REPULSION ENERGY :   37.1717602413 A.U.
  @MOLECU-I, ONE ELECTRON INTEGRALS (CPU/WALL):        0.01/       0.01 SECONDS.
  @TWOEL-I,      29572 INTEGRALS OF SYMMETRY TYPE  I I I I
  @TWOEL-I,     102291 INTEGRALS OF SYMMETRY TYPE  I J I J
  @TWOEL-I,      58089 INTEGRALS OF SYMMETRY TYPE  I I J J
  @TWOEL-I,      75480 INTEGRALS OF SYMMETRY TYPE  I J K L
  @TWOEL-I, TOTAL NUMBER OF 2-E INTEGRALS     265432.
  @MOLECU-I, TWO ELECTRON INTEGRALS (CPU/WALL):        0.19/       0.20 SECONDS.
 @CHECKOUT-I, Total execution time (CPU/WALL):        0.21/       0.22 seconds.

Running with 8 threads/proc

--executable xvmol finished with status     0 in        0.24 seconds (walltime).
 --invoking executable--
/home/tsommerfeld/zscale/bin/xvmol2ja
 @GETMEM-I,  Allocated   85830 MB of main memory.
 @CHECKOUT-I, Total execution time (CPU/WALL):        0.02/       0.01 seconds.
--executable xvmol2ja finished with status     0 in        0.03 seconds (walltime).
 --invoking executable--
/home/tsommerfeld/zscale/bin/xvscf
  There are   57 functions in the AO basis.

  There are 4 irreducible representations.

       Irrep        # of functions
         1                 20
         2                 11
         3                 17
         4                  9


  Parameters for SCF calculation: 
        SCF reference function:  RHF  
  Maximum number of iterations:  150
     Full symmetry point group: C2v 
     Computational point group: C2v 
        Initial density matrix: MOREAD                 
     SCF convergence tolerance: 10**(- 7)
  DIIS convergence acceleration:  ON
          Latest start for DIIS:   8
                     DIIS order:   6

  Memory information:     156410 words required.
  Fock matrices are constructed from AO integral file.
 @GETMEM-I,  Allocated       1 MB of main memory.
  Initialization and symmetry analysis required      0.002 seconds.

  @INITGES-I, Occupancies from core Hamiltonian:

          Alpha population by irrep:   3    1    4    1
           Beta population by irrep:   3    1    4    1


 total no. of electrons in initial guess :  0.000000000000000E+000
  --------------------------------------------------------------------
  Iteration         Total Energy            Largest Density Difference
  --------------------------------------------------------------------
       0            37.171760241308938              0.0000000000D+00
   current occupation vector 
     3  1  4  1
     3  1  4  1
       1           -61.269771443947185              0.8872970668D+01
   current occupation vector 
     3  1  4  1
     3  1  4  1
       2           -63.407795800783653              0.8699147102D+01
   current occupation vector 
     4  1  3  1
     4  1  3  1
       3           -70.909566455420901              0.5456174740D+01
   current occupation vector 
     4  1  3  1
     4  1  3  1
       4           -67.567854927788915              0.5173757083D+01
   current occupation vector 
     4  1  3  1
     4  1  3  1
       5           -72.328375289994568              0.5173732173D+01
   current occupation vector 
     4  1  3  1
     4  1  3  1
       6           -68.862782139818762              0.5082641957D+01
   current occupation vector 
     4  1  3  1
     4  1  3  1
       7           -72.798950643799202              0.5082615072D+01
   current occupation vector 
     4  1  3  1
     4  1  3  1
       8           -69.308485140393714              0.5052704530D+01
   current occupation vector 
     4  1  3  1
     4  1  3  1
       9           -77.543757196511308              0.5052645833D+01
   current occupation vector 
     4  1  3  1
     4  1  3  1
      10           -78.407208154151959              0.1280881254D+01
   current occupation vector 
     5  1  2  1
     5  1  2  1
      11           -78.462138616467485              0.4416010921D+00
   current occupation vector 
     5  1  2  1
     5  1  2  1
      12           -78.472038368236269              0.7174436979D-01
   current occupation vector 
     5  1  2  1
     5  1  2  1
      13           -78.473425378085352              0.2643895708D-01
   current occupation vector 
     5  1  2  1
     5  1  2  1
      14           -78.473472975766981              0.5370977131D-02
   current occupation vector 
     5  1  2  1
     5  1  2  1
      15           -78.473475375228332              0.1962957521D-02
   current occupation vector 
     5  1  2  1
     5  1  2  1
      16           -78.473475602784788              0.6863614625D-03
   current occupation vector 
     5  1  2  1
     5  1  2  1
      17           -78.473475611992370              0.1147012092D-03
   current occupation vector 
     5  1  2  1
     5  1  2  1
      18           -78.473475612247910              0.2190550968D-04
   current occupation vector 
     5  1  2  1
     5  1  2  1
      19           -78.473475612250695              0.4519739109D-05
   current occupation vector 
     5  1  2  1
     5  1  2  1
      20           -78.473475612251178              0.9527187728D-06
   current occupation vector 
     5  1  2  1
     5  1  2  1
      21           -78.473475612250724              0.2869723233D-06
   current occupation vector 
     5  1  2  1
     5  1  2  1

  SCF has converged.

 Density matrix saved to file den.dat
 total electron number:   18.0000000000000     
     E(SCF)=       -78.473475612250979              0.5794583124D-07


  Final occupancies:

     Alpha population by irrep:   5    1    2    1
      Beta population by irrep:   5    1    2    1


  Eigenvector printing suppressed.

 @PUTMOS-I, Writing converged MOs to NEWMOS. 
 @PUTMOS-I, Symmetry   1 Full Blocks  5 Partial Blocksize   0
 @PUTMOS-I, Symmetry   2 Full Blocks  2 Partial Blocksize   3
 @PUTMOS-I, Symmetry   3 Full Blocks  4 Partial Blocksize   1
 @PUTMOS-I, Symmetry   4 Full Blocks  2 Partial Blocksize   1
 @PUTFOCK-I, Writing converged Fock matrix to NEWFOCK. 
 @PUTFOCK-I, Symmetry   1 Full Blocks  5 Partial Blocksize   0
 @PUTFOCK-I, Symmetry   2 Full Blocks  2 Partial Blocksize   3
 @PUTFOCK-I, Symmetry   3 Full Blocks  4 Partial Blocksize   1
 @PUTFOCK-I, Symmetry   4 Full Blocks  2 Partial Blocksize   1


 
  ORBITAL EIGENVALUES (ALPHA)  (1H = 27.2113834 eV)

       MO #        E(hartree)               E(eV)           FULLSYM    COMPSYM
       ----   --------------------   --------------------   -------   ---------
    1     1         -11.0619977320        -301.0122614553      A1        A1 (1)
    2    32         -11.0602841745        -300.9656331862      B2        B2 (3)
    3     2          -0.8668867613         -23.5891880267      A1        A1 (1)
    4    33          -0.6114880315         -16.6394352696      B2        B2 (3)
    5    21          -0.4882043417         -13.2847155183      B1        B1 (2)
    6     3          -0.3951395775         -10.7522945393      A1        A1 (1)
    7    49          -0.3460598231          -9.4167665262      A2        A2 (4)
    8     4          -0.2202663217          -5.9937513297      A1        A1 (1)
    9     5          -0.0092989019          -0.2530359851      A1        A1 (1)
  +++++++++++++++++++++++++++++++++++++++++++++++++++++++++++++++++++++++++++++
   10     6           0.2790899554           7.5944237785      A1        A1 (1)
   11    34           0.3391108649           9.2276757595      B2        B2 (3)
   12     7           0.3736738039          10.1681811433      A1        A1 (1)
   13    22           0.3755076791          10.2180834245      B1        B1 (2)
   14    35           0.3921381621          10.6706218737      B2        B2 (3)
   15    50           0.4469158683          12.1611990407      A2        A2 (4)
   16    23           0.5606633369          15.2564250195      B1        B1 (2)
   17    36           0.5844994731          15.9050392609      B2        B2 (3)
   18    37           0.6220489395          16.9268121866      B2        B2 (3)
   19     8           0.6408422219          17.4382033991      A1        A1 (1)
   20     9           0.7334852960          19.9591496065      A1        A1 (1)
   21    24           0.8395007687          22.8439772816      B1        B1 (2)
   22    10           0.8613004155          23.4371758284      A1        A1 (1)
   23    38           0.9607933467          26.1445161260      B2        B2 (3)
   24    25           1.0305895355          28.0437669773      B1        B1 (2)
   25    39           1.0441815131          28.4136234913      B2        B2 (3)
   26    11           1.0461710428          28.4677613474      A1        A1 (1)
   27    51           1.1013783130          29.9700275432      A2        A2 (4)
   28    12           1.1285696228          30.7099407004      A1        A1 (1)
   29    40           1.1387281822          30.9863691545      B2        B2 (3)
   30    26           1.3191658531          35.8963277960      B1        B1 (2)
   31    13           1.3968391139          38.0099246774      A1        A1 (1)
   32    52           1.4558392139          39.6153990182      A2        A2 (4)
   33    41           1.4596971871          39.7203798064      B2        B2 (3)
   34    53           1.5120260705          41.1443211146      A2        A2 (4)
   35    14           1.5156172629          41.2420424287      A1        A1 (1)
   36    15           1.7636879453          47.9923888772      A1        A1 (1)
   37    54           1.7790645829          48.4108084595      A2        A2 (4)
   38    27           1.8803885519          51.1679738273      B1        B1 (2)
   39    42           2.0012347252          54.4563653817      B2        B2 (3)
   40    43           2.0582907615          56.0089390607      B2        B2 (3)
   41    16           2.0834353308          56.6931575742      A1        A1 (1)
   42    17           2.0957801722          57.0290777872      A1        A1 (1)
   43    28           2.1233573955          57.7794921851      B1        B1 (2)
   44    29           2.1650958651          58.9152536821      B1        B1 (2)
   45    44           2.1815934612          59.3641760962      B2        B2 (3)
   46    30           2.2142577043          60.2530153374      B1        B1 (2)
   47    18           2.3191307317          63.1067554959      A1        A1 (1)
   48    45           2.3455233095          63.8249340488      B2        B2 (3)
   49    46           2.4486147804          66.6301955893      B2        B2 (3)
   50    55           2.5847601577          70.3348996482      A2        A2 (4)
   51    19           2.5937716039          70.5801135661      A1        A1 (1)
   52    56           2.6543644954          72.2289299671      A2        A2 (4)
   53    47           2.7048267424          73.6020775175      B2        B2 (3)
   54    31           2.9593949872          80.5292316290      B1        B1 (2)
   55    20           2.9605657777          80.5610904569      A1        A1 (1)
   56    48           3.4211315652          93.0937226821      B2        B2 (3)
   57    57           3.5074065258          95.4413837128      A2        A2 (4)


  VSCF finished.

 @CHECKOUT-I, Total execution time (CPU/WALL):        0.26/       0.11 seconds.
--executable xvscf finished with status     0 in        0.13 seconds (walltime).
 --invoking executable--
/home/tsommerfeld/zscale/bin/xvtran
 @GETMEM-I,  Allocated   85830 MB of main memory.
  Full RHF integral transformation
  Transformation of IIII integrals :
  1 pass through the AO integral file was required.
       29572 AO integrals were read.
       37182 MO integrals were written to HF2.
  Transformation of IIJJ integrals :
  1 pass through the AO integral file was required.
       58089 AO integrals were read.
       75393 MO integrals were written to HF2.
  Transformation of IJIJ integrals :
  1 pass through the AO integral file was required.
      102291 AO integrals were read.
      132879 MO integrals were written to HF2.
  Transformation of IJKL integrals :
  1 pass through the AO integral file was required.
       75480 AO integrals were read.
      100980 MO integrals were written to HF2.
  Summary of active molecular orbitals: 
------------------------------------------------------------------------
 
  Index      Eigenvalue    Symmetry    Index      Eigenvalue    Symmetry
------------------------------------------------------------------------
     1       -11.0619977        1        30         1.8803886        2
     2        -0.8668868        1        31         2.1233574        2
     3        -0.3951396        1        32         2.1650959        2
     4        -0.2202663        1        33         2.2142577        2
     5        -0.0092989        1        34         2.9593950        2
     6        -0.4882043        2        35         0.3391109        3
     7       -11.0602842        3        36         0.3921382        3
     8        -0.6114880        3        37         0.5844995        3
     9        -0.3460598        4        38         0.6220489        3
    10         0.2790900        1        39         0.9607933        3
    11         0.3736738        1        40         1.0441815        3
    12         0.6408422        1        41         1.1387282        3
    13         0.7334853        1        42         1.4596972        3
    14         0.8613004        1        43         2.0012347        3
    15         1.0461710        1        44         2.0582908        3
    16         1.1285696        1        45         2.1815935        3
    17         1.3968391        1        46         2.3455233        3
    18         1.5156173        1        47         2.4486148        3
    19         1.7636879        1        48         2.7048267        3
    20         2.0834353        1        49         3.4211316        3
    21         2.0957802        1        50         0.4469159        4
    22         2.3191307        1        51         1.1013783        4
    23         2.5937716        1        52         1.4558392        4
    24         2.9605658        1        53         1.5120261        4
    25         0.3755077        2        54         1.7790646        4
    26         0.5606633        2        55         2.5847602        4
    27         0.8395008        2        56         2.6543645        4
    28         1.0305895        2        57         3.5074065        4
    29         1.3191659        2
------------------------------------------------------------------------
  -11.0619977319960      -0.866886761320115      -0.395139577478965     
 -0.220266321692185      -9.298901911143458E-003 -0.488204341655913     
  -11.0602841745327      -0.611488031498092      -0.346059823116401     
  0.279089955364459       0.373673803857057       0.640842221902584     
  0.733485295954897       0.861300415488478        1.04617104279192     
   1.12856962282749        1.39683911393330        1.51561726290959     
   1.76368794528771        2.08343533075197        2.09578017217513     
   2.31913073173194        2.59377160391355        2.96056577766111     
  0.375507679057928       0.560663336929825       0.839500768694855     
   1.03058953545451        1.31916585306542        1.88038855192051     
   2.12335739553480        2.16509586506734        2.21425770427286     
   2.95939498721119       0.339110864886124       0.392138162064802     
  0.584499473145255       0.622048939512657       0.960793346728418     
   1.04418151306998        1.13872818221138        1.45969718711352     
   2.00123472523342        2.05829076153132        2.18159346122017     
   2.34552330951296        2.44861478043421        2.70482674238020     
   3.42113156518597       0.446915868332084        1.10137831299025     
   1.45583921390150        1.51202607047816        1.77906458292995     
   2.58476015770031        2.65436449537724        3.50740652578456     
 @CHECKOUT-I, Total execution time (CPU/WALL):        0.54/       0.09 seconds.
--executable xvtran finished with status     0 in        0.11 seconds (walltime).
 --invoking executable--
/home/tsommerfeld/zscale/bin/xintprc
 @GETMEM-I,  Allocated   85830 MB of main memory.
  Processing integrals for CCSD calculation.
  @GMOIAA-I, Processing MO integrals for spin case AA.
  @GMOIAA-I, Generation of integral list completed.
                      TYPE                NUMBER
                      ----               --------
                      PPPP                174781
                      PPPH                128448
                      PPHH                 24003
                      PHPH                 13755
                      PHHH                  5115
                      HHHH                   332

                     TOTAL                346434

  @FORMT2-I, Second-order MP correlation energies:
            ------------------------------------------------
            E(SCF)                  =    -78.473475612251 a.u.
            E2(AA)                  =     -0.033241633991 a.u.
            E2(AB)                  =     -0.250862906419 a.u.
            E2(TOT)                 =     -0.317346174401 a.u.
            Total MP2 energy        =    -78.790821786652 a.u.
            ------------------------------------------------
   Largest T2 amplitudes for spin case AB:
       _       _                 _       _                 _       _
   i   j   a   b             i   j   a   b             i   j   a   b
-----------------------------------------------------------------------------
[  5   5  10  10]-0.09318 [  4   4  35  35]-0.07995 [  5   5  26  26]-0.03780
[  5   4  35  35]-0.02896 [  4   5  35  35]-0.02896 [  4   3  35  41] 0.02563
[  3   4  41  35] 0.02563 [  5   4  10  10] 0.02543 [  4   5  10  10] 0.02543
[  5   5  12  12]-0.02531 [  5   5  16  10] 0.02517 [  5   5  10  16] 0.02517
[  3   3  41  41]-0.02300 [  4   4  14  14]-0.02286 [  5   5  16  16]-0.02168
-----------------------------------------------------------------------------
   Norm of T2AB vector (    47574 symmetry allowed elements):  0.3247084861.
-----------------------------------------------------------------------------
 @CHECKOUT-I, Total execution time (CPU/WALL):        0.39/       0.09 seconds.
--executable xintprc finished with status     0 in        0.10 seconds (walltime).
  calling xvcc 
 --invoking executable--
/home/tsommerfeld/zscale/bin/xvcc
 @GETMEM-I,  Allocated   85830 MB of main memory.
   CCSD energy will be calculated.
   The total correlation energy is -0.317346174401 a.u.
   The total correlation energy is -0.341807498825 a.u.
  Convergence information after     1 iterations: 
  Largest element of residual vector : -0.36235058E-01.
  Largest element of DIIS residual   : -0.36235058E-01.
   The total correlation energy is -0.352067637555 a.u.
  Convergence information after     2 iterations: 
  Largest element of residual vector : -0.18956354E-01.
  Largest element of DIIS residual   : -0.11622763E-01.
   The total correlation energy is -0.356204760609 a.u.
  Convergence information after     3 iterations: 
  Largest element of residual vector : -0.76585564E-02.
  Largest element of DIIS residual   : -0.40519372E-02.
   The total correlation energy is -0.357551714960 a.u.
  Convergence information after     4 iterations: 
  Largest element of residual vector : -0.31852138E-02.
  Largest element of DIIS residual   : -0.15900189E-02.
   The total correlation energy is -0.357757751702 a.u.
  Convergence information after     5 iterations: 
  Largest element of residual vector : -0.88338534E-03.
  Largest element of DIIS residual   : -0.41897747E-03.
   The total correlation energy is -0.357746363160 a.u.
  Convergence information after     6 iterations: 
  Largest element of residual vector : -0.30004254E-03.
  Largest element of DIIS residual   : -0.16762146E-03.
   The total correlation energy is -0.357730500130 a.u.
  Convergence information after     7 iterations: 
  Largest element of residual vector : -0.10432699E-03.
  Largest element of DIIS residual   : -0.52853658E-04.
   The total correlation energy is -0.357726145722 a.u.
  Convergence information after     8 iterations: 
  Largest element of residual vector : -0.36535230E-04.
  Largest element of DIIS residual   : -0.28586655E-04.
   The total correlation energy is -0.357726394401 a.u.
  Convergence information after     9 iterations: 
  Largest element of residual vector : -0.12309109E-04.
  Largest element of DIIS residual   : -0.67565628E-05.
   The total correlation energy is -0.357726601695 a.u.
  Convergence information after    10 iterations: 
  Largest element of residual vector : -0.72586514E-05.
  Largest element of DIIS residual   : -0.47512610E-05.
   The total correlation energy is -0.357727075609 a.u.
  Convergence information after    11 iterations: 
  Largest element of residual vector : -0.23277197E-05.
  Largest element of DIIS residual   : -0.15242079E-05.
   The total correlation energy is -0.357727249090 a.u.
  Convergence information after    12 iterations: 
  Largest element of residual vector : -0.94810730E-06.
  Largest element of DIIS residual   : -0.52922078E-06.
   The total correlation energy is -0.357727307179 a.u.
  Convergence information after    13 iterations: 
  Largest element of residual vector : -0.36337380E-06.
  Largest element of DIIS residual   : -0.22377631E-06.
   The total correlation energy is -0.357727306733 a.u.
  Convergence information after    14 iterations: 
  Largest element of residual vector : -0.18784279E-06.
  Largest element of DIIS residual   : -0.10979397E-06.
   The total correlation energy is -0.357727305766 a.u.
  Convergence information after    15 iterations: 
  Largest element of residual vector : -0.58058472E-07.
  Largest element of DIIS residual   : -0.45434053E-07.
  Amplitude equations converged in    15iterations.
   The total correlation energy is -0.357727304505 a.u.
   The CC iterations have converged.

   Largest T1 amplitudes for spin case AA:
   i       a                 i       a                 i       a    
-----------------------------------------------------------------------------
[  5      10    ]-0.02823 [  4      10    ] 0.01813 [  4      14    ]-0.01794
[  5      14    ]-0.01687 [  4      18    ] 0.01222 [  5      16    ]-0.00962
[  4      17    ]-0.00924 [  5      18    ] 0.00908 [  4      15    ]-0.00704
[  6      27    ]-0.00682 [  5      11    ]-0.00630 [  5      12    ] 0.00515
[  5      15    ] 0.00500 [  9      50    ]-0.00484 [  4      21    ] 0.00459
-----------------------------------------------------------------------------
   Norm of T1AA vector (      123 symmetry allowed elements):  0.0516629326.
-----------------------------------------------------------------------------
   Largest T2 amplitudes for spin case AB:
       _       _                 _       _                 _       _
   i   j   a   b             i   j   a   b             i   j   a   b
-----------------------------------------------------------------------------
[  5   5  10  10]-0.17880 [  4   4  35  35]-0.11448 [  5   5  26  26]-0.05243
[  5   5  16  10] 0.04852 [  5   5  10  16] 0.04852 [  5   4  35  35]-0.04798
[  4   5  35  35]-0.04798 [  5   4  10  10] 0.04293 [  4   5  10  10] 0.04293
[  5   5  15  10]-0.03499 [  5   5  10  15]-0.03499 [  5   5  12  12]-0.03205
[  5   5  35  35]-0.03150 [  5   5  38  38]-0.02586 [  4   4  39  35] 0.02465
-----------------------------------------------------------------------------
   Norm of T2AB vector (    47574 symmetry allowed elements):  0.4256827640.
-----------------------------------------------------------------------------
       Summary of iterative solution of CC equations 
      -----------------------------------------------------------
                       Correlation           Total
       Iteration         Energy              Energy
      -----------------------------------------------------------
            0        -0.317346174401     -78.790821786652  DIIS 
            1        -0.341807498825     -78.815283111076  DIIS 
            2        -0.352067637555     -78.825543249806  DIIS 
            3        -0.356204760609     -78.829680372859  DIIS 
            4        -0.357551714960     -78.831027327211  DIIS 
            5        -0.357757751702     -78.831233363953  DIIS 
            6        -0.357746363160     -78.831221975411  DIIS 
            7        -0.357730500130     -78.831206112381  DIIS 
            8        -0.357726145722     -78.831201757973  DIIS 
            9        -0.357726394401     -78.831202006652  DIIS 
           10        -0.357726601695     -78.831202213945  DIIS 
           11        -0.357727075609     -78.831202687860  DIIS 
           12        -0.357727249090     -78.831202861341  DIIS 
           13        -0.357727307179     -78.831202919430  DIIS 
           14        -0.357727306733     -78.831202918984  DIIS 
           15        -0.357727304505     -78.831202916756  DIIS 
      -----------------------------------------------------------
      A miracle has come to pass. The CC iterations have converged.
      The reference energy is       -78.47347561225098 a.u.
      The correlation energy is      -0.35772730450475 a.u.
      The total energy is           -78.83120291675573 a.u.
 @CHECKOUT-I, Total execution time (CPU/WALL):        5.37/       0.68 seconds.
--executable xvcc finished with status     0 in        0.70 seconds (walltime).
 --invoking executable--
/home/tsommerfeld/zscale/bin/xlambda
 @GETMEM-I,  Allocated   85830 MB of main memory.
 Hbar is calculated for a CCSD wave function.
 Calculation of Hbar completed.
 @CHECKOUT-I, Total execution time (CPU/WALL):        0.91/       0.13 seconds.
--executable xlambda finished with status     0 in        0.14 seconds (walltime).
 --invoking executable--
/home/tsommerfeld/zscale/bin/xvee
 @GETMEM-I,  Allocated   85830 MB of main memory.
  cc2 and ccprog  F                     0
  EOMEE-CCSD excitation energies will be evaluated.
  @SETMET-I, VPROP property integrals are used.
  @SETMET-I, A total of   3 target states will be studied.
  Summary of active alpha molecular orbitals:
------------------------------------------------------------------------------
Orbital      Sym   Eigenvalue  <xx>     <yy>     <zz>     <xy>     <xz>     <yz>
        SCF
  #  position
------------------------------------------------------------------------------
   1      1    1     -11.0620   0.000    0.000    0.000    0.000    0.000    0.000
   2      3    1      -0.8669   0.000    0.000    0.000    0.000    0.000    0.000
   3      6    1      -0.3951   0.000    0.000    0.000    0.000    0.000    0.000
   4      8    1      -0.2203   0.000    0.000    0.000    0.000    0.000    0.000
   5      9    1      -0.0093   0.000    0.000    0.000    0.000    0.000    0.000
   6      5    2      -0.4882   0.000    0.000    0.000    0.000    0.000    0.000
   7      2    3     -11.0603   0.000    0.000    0.000    0.000    0.000    0.000
   8      4    3      -0.6115   0.000    0.000    0.000    0.000    0.000    0.000
   9      7    4      -0.3461   0.000    0.000    0.000    0.000    0.000    0.000
  10     10    1       0.2791   0.000    0.000    0.000    0.000    0.000    0.000
  11     12    1       0.3737   0.000    0.000    0.000    0.000    0.000    0.000
  12     19    1       0.6408   0.000    0.000    0.000    0.000    0.000    0.000
  13     20    1       0.7335   0.000    0.000    0.000    0.000    0.000    0.000
  14     22    1       0.8613   0.000    0.000    0.000    0.000    0.000    0.000
  15     26    1       1.0462   0.000    0.000    0.000    0.000    0.000    0.000
  16     28    1       1.1286   0.000    0.000    0.000    0.000    0.000    0.000
  17     31    1       1.3968   0.000    0.000    0.000    0.000    0.000    0.000
  18     35    1       1.5156   0.000    0.000    0.000    0.000    0.000    0.000
  19     36    1       1.7637   0.000    0.000    0.000    0.000    0.000    0.000
  20     41    1       2.0834   0.000    0.000    0.000    0.000    0.000    0.000
  21     42    1       2.0958   0.000    0.000    0.000    0.000    0.000    0.000
  22     47    1       2.3191   0.000    0.000    0.000    0.000    0.000    0.000
  23     51    1       2.5938   0.000    0.000    0.000    0.000    0.000    0.000
  24     55    1       2.9606   0.000    0.000    0.000    0.000    0.000    0.000
  25     13    2       0.3755   0.000    0.000    0.000    0.000    0.000    0.000
  26     16    2       0.5607   0.000    0.000    0.000    0.000    0.000    0.000
  27     21    2       0.8395   0.000    0.000    0.000    0.000    0.000    0.000
  28     24    2       1.0306   0.000    0.000    0.000    0.000    0.000    0.000
  29     30    2       1.3192   0.000    0.000    0.000    0.000    0.000    0.000
  30     38    2       1.8804   0.000    0.000    0.000    0.000    0.000    0.000
  31     43    2       2.1234   0.000    0.000    0.000    0.000    0.000    0.000
  32     44    2       2.1651   0.000    0.000    0.000    0.000    0.000    0.000
  33     46    2       2.2143   0.000    0.000    0.000    0.000    0.000    0.000
  34     54    2       2.9594   0.000    0.000    0.000    0.000    0.000    0.000
  35     11    3       0.3391   0.000    0.000    0.000    0.000    0.000    0.000
  36     14    3       0.3921   0.000    0.000    0.000    0.000    0.000    0.000
  37     17    3       0.5845   0.000    0.000    0.000    0.000    0.000    0.000
  38     18    3       0.6220   0.000    0.000    0.000    0.000    0.000    0.000
  39     23    3       0.9608   0.000    0.000    0.000    0.000    0.000    0.000
  40     25    3       1.0442   0.000    0.000    0.000    0.000    0.000    0.000
  41     29    3       1.1387   0.000    0.000    0.000    0.000    0.000    0.000
  42     33    3       1.4597   0.000    0.000    0.000    0.000    0.000    0.000
  43     39    3       2.0012   0.000    0.000    0.000    0.000    0.000    0.000
  44     40    3       2.0583   0.000    0.000    0.000    0.000    0.000    0.000
  45     45    3       2.1816   0.000    0.000    0.000    0.000    0.000    0.000
  46     48    3       2.3455   0.000    0.000    0.000    0.000    0.000    0.000
  47     49    3       2.4486   0.000    0.000    0.000    0.000    0.000    0.000
  48     53    3       2.7048   0.000    0.000    0.000    0.000    0.000    0.000
  49     56    3       3.4211   0.000    0.000    0.000    0.000    0.000    0.000
  50     15    4       0.4469   0.000    0.000    0.000    0.000    0.000    0.000
  51     27    4       1.1014   0.000    0.000    0.000    0.000    0.000    0.000
  52     32    4       1.4558   0.000    0.000    0.000    0.000    0.000    0.000
  53     34    4       1.5120   0.000    0.000    0.000    0.000    0.000    0.000
  54     37    4       1.7791   0.000    0.000    0.000    0.000    0.000    0.000
  55     50    4       2.5848   0.000    0.000    0.000    0.000    0.000    0.000
  56     52    4       2.6544   0.000    0.000    0.000    0.000    0.000    0.000
  57     57    4       3.5074   0.000    0.000    0.000    0.000    0.000    0.000
------------------------------------------------------------------------------
  @DRVTDA-I, Roots obtained by Davidson method.
  calling tda davidson                       6                     2
  after tda davidson                      6                     6
                     3                     3
  kroot is                      3
__________________________________________________________________________
    Tamm-Dancoff (CIS) Excitation Energies and Transition Moments

                Excitation         Transition Dipole         Oscillator
 Root  Symmetry  Energy         x           y           z     Strength
__________________________________________________________________________
   1       2    0.21098      0.0000      0.0000      0.0000  .00000000D+00
__________________________________________________________________________
 
__________________________________________________________________________
  TDA excitation ergy:             0.210978346204 a.u.    5.7410 eV
  Total TDA electronic energy:   -78.262497266047 a.u.
 
  Dominant contributions: 
  SCF eigenvalue ordering used in list below. 
--------------------------------------------------------------------------------
    I    j    A    b
--------------------------------------------------------------------------------
    9    0   13    0  -0.9807757740 AA  
    8    0   13    0  -0.1699012226 AA  
    9    0   21    0   0.0399051756 AA  
    9    0   24    0  -0.0389554061 AA  
    8    0   24    0  -0.0384809759 AA  
    8    0   21    0   0.0302319328 AA  
    7    0   11    0   0.0267196990 AA  
    7    0   14    0   0.0236630615 AA  
    6    0   13    0   0.0224399710 AA  
    9    0   16    0   0.0210783749 AA  
    5    0   12    0   0.0196588843 AA  
    8    0   16    0  -0.0147520791 AA  
    7    0   17    0  -0.0136571948 AA  
    8    0   30    0  -0.0101902126 AA  
    5    0   10    0   0.0092275397 AA  
--------------------------------------------------------------------------------
   2       2    0.34553      0.0000      0.0000      0.0000  .00000000D+00
__________________________________________________________________________
 
__________________________________________________________________________
  TDA excitation ergy:             0.345527665357 a.u.    9.4023 eV
  Total TDA electronic energy:   -78.127947946894 a.u.
 
  Dominant contributions: 
  SCF eigenvalue ordering used in list below. 
--------------------------------------------------------------------------------
    I    j    A    b
--------------------------------------------------------------------------------
    9    0   16    0  -0.8452447795 AA  
    8    0   13    0  -0.5026224514 AA  
    7    0   11    0  -0.1131003783 AA  
    8    0   21    0   0.0682044779 AA  
    9    0   13    0   0.0671771819 AA  
    7    0   14    0  -0.0549756234 AA  
    8    0   24    0  -0.0479183041 AA  
    5    0   12    0  -0.0408542578 AA  
    6    0   13    0  -0.0355407345 AA  
    9    0   21    0   0.0275852800 AA  
    7    0   17    0   0.0217993804 AA  
    5    0   10    0  -0.0189091720 AA  
    8    0   30    0   0.0167525775 AA  
    4    0   15    0  -0.0098065384 AA  
    7    0   25    0   0.0084772337 AA  
--------------------------------------------------------------------------------
   3       2    0.35789      0.0000      0.0000      0.0000  .00000000D+00
__________________________________________________________________________
 
__________________________________________________________________________
  TDA excitation ergy:             0.357894306814 a.u.    9.7388 eV
  Total TDA electronic energy:   -78.115581305437 a.u.
 
  Dominant contributions: 
  SCF eigenvalue ordering used in list below. 
--------------------------------------------------------------------------------
    I    j    A    b
--------------------------------------------------------------------------------
    8    0   13    0   0.6845348846 AA  
    7    0   11    0  -0.6072613242 AA  
    9    0   16    0  -0.3431441938 AA  
    9    0   13    0  -0.1519304813 AA  
    8    0   24    0   0.0688540581 AA  
    8    0   21    0  -0.0646226156 AA  
    8    0   16    0   0.0483868333 AA  
    7    0   23    0   0.0419494981 AA  
    7    0   17    0   0.0381290925 AA  
    7    0   25    0   0.0380168137 AA  
    7    0   18    0  -0.0370032540 AA  
    7    0   14    0  -0.0293828706 AA  
    5    0   10    0  -0.0277953066 AA  
    9    0   24    0   0.0265081674 AA  
    9    0   21    0  -0.0235236630 AA  
--------------------------------------------------------------------------------
__________________________________________________________________________
  @DOEOMEE-I, Excitation energies computed by the EOMEE-CCSD/CCSD-LR method.
  @DOEOMEE-I, right-hand eigenvectors will be computed.
  Beginning symmetry block   2.   3 roots requested.
  @DOEOMEE-I, Matrix dimension for diagonalization:    45852
  Creating initial guess for root
________________________________________________________________________
            Subspace          Eigenvalue           
 Iteration  Dimension   (a.u.)         (eV)       Overlap      Residual
________________________________________________________________________
  @NEWGES-I, Using TDA initial guess.
  1   1  0.2767472112D+00  0.7530674468D+01  0.0000000000D+00  0.1573130484D+01
  2   2  0.2128726545D+00  0.5792559418D+01  0.9450895155D+00  0.2889357216D+00
  3   3  0.1935246864D+00  0.5266074439D+01  0.9818029570D+00  0.4803280516D-01
  4   4  0.1906634895D+00  0.5188217314D+01  0.9978684159D+00  0.3058017087D-01
  5   5  0.1902017333D+00  0.5175652288D+01  0.9992571257D+00  0.7156480784D-02
  6   6  0.1901437976D+00  0.5174075779D+01  0.9999540033D+00  0.2222638904D-02
  L-O-C-K-I-N-G O-N R-O-O-T 
  7   7  0.1901462641D+00  0.5174142895D+01  0.9999968028D+00  0.7908354944D-03
  8   8  0.1901414001D+00  0.5174010538D+01  0.9999995959D+00  0.4289823947D-03
  9   9  0.1901416967D+00  0.5174018609D+01  0.9999998649D+00  0.1030568909D-03
 10  10  0.1901417899D+00  0.5174021144D+01  0.9999999876D+00  0.6780666853D-04
 11  11  0.1901416341D+00  0.5174016906D+01  0.9999999968D+00  0.2109497189D-04
 12  12  0.1901417263D+00  0.5174019414D+01  0.9999999997D+00  0.6692032355D-05
  Converged eigenvalue:   0.190141726257760       a.u.
   Total EOMEE-CCSD electronic energy      -78.641061190497965 a.u.
  Converged eigenvector 
  SCF eigenvalue ordering used in list below. 
--------------------------------------------------------------------------------
    I    j    A    b
--------------------------------------------------------------------------------
    9    0   13    0  -0.6577344040 AA  
    9    9   13   10  -0.1965029917 ABAB
    9    9   10   13  -0.1965029917 ABAB
    9    9   13   28   0.0520999723 ABAB
    9    9   28   13   0.0520999723 ABAB
    9    8   13   10   0.0468987299 ABAB
    8    9   10   13   0.0468987299 ABAB
    9    9   13   26  -0.0380415892 ABAB
    9    9   26   13  -0.0380415892 ABAB
    9    0   24    0  -0.0368809777 AA  
    9    8   10   13   0.0330432517 ABAB
    8    9   13   10   0.0330432517 ABAB
    9    8   15   11   0.0319224329 ABAB
    8    9   11   15   0.0319224329 ABAB
    9    9   13   19   0.0310591385 ABAB
--------------------------------------------------------------------------------
  Converged eigenvector, normalized to one 
  SCF eigenvalue ordering used in list below. 
--------------------------------------------------------------------------------
    I    j    A    b
--------------------------------------------------------------------------------
    9    0   13    0  -0.6577344040 AA  
    9    9   13   10  -0.1965029917 ABAB
    9    9   10   13  -0.1965029917 ABAB
    9    9   13   28   0.0520999723 ABAB
    9    9   28   13   0.0520999723 ABAB
    9    8   13   10   0.0468987299 ABAB
    8    9   10   13   0.0468987299 ABAB
    9    9   13   26  -0.0380415892 ABAB
    9    9   26   13  -0.0380415892 ABAB
    9    0   24    0  -0.0368809777 AA  
    9    8   10   13   0.0330432517 ABAB
    8    9   13   10   0.0330432517 ABAB
    9    8   15   11   0.0319224329 ABAB
    8    9   11   15   0.0319224329 ABAB
    9    9   13   19   0.0310591385 ABAB
--------------------------------------------------------------------------------

  Eigenvector is saved on CCRE_2_1  

  Adding new vector to expansion space.
  Guess for next eigenvalue   0.345527665356612     
 13  13  0.3509267902D+00  0.9549203434D+01  0.4103896375D+00  0.2472973630D+00
 14  14  0.3411092830D+00  0.9282055482D+01  0.9853493660D+00  0.6954966080D-01
 15  15  0.3398890857D+00  0.9248852226D+01  0.9968969501D+00  0.2098875997D-01
 16  16  0.3396290333D+00  0.9241775838D+01  0.9987619803D+00  0.1299923549D-01
 17  17  0.3395805443D+00  0.9240456386D+01  0.9988756705D+00  0.6319826493D-02
  L-O-C-K-I-N-G O-N R-O-O-T 
 18  18  0.3395522941D+00  0.9239687660D+01  0.9996502608D+00  0.3243555467D-02
 19  19  0.3395454242D+00  0.9239500719D+01  0.9999742011D+00  0.1834430734D-02
 20  20  0.3395456312D+00  0.9239506353D+01  0.9999954602D+00  0.6255311719D-03
 21  21  0.3395447647D+00  0.9239482774D+01  0.9999992881D+00  0.3331476765D-03
 22  22  0.3395440191D+00  0.9239462486D+01  0.9999998485D+00  0.9231799741D-04
 23  23  0.3395440624D+00  0.9239463663D+01  0.9999999903D+00  0.5159283746D-04
 24  24  0.3395440592D+00  0.9239463575D+01  0.9999999985D+00  0.1370219376D-04
 25  25  0.3395440862D+00  0.9239464310D+01  0.9999999999D+00  0.4826807026D-05
  Converged eigenvalue:   0.339544086187517       a.u.
   Total EOMEE-CCSD electronic energy      -78.491658830568213 a.u.
  Converged eigenvector 
  SCF eigenvalue ordering used in list below. 
--------------------------------------------------------------------------------
    I    j    A    b
--------------------------------------------------------------------------------
    7    0   11    0   0.5204832996 AA  
    8    0   13    0  -0.4144607716 AA  
    9    9   13   10   0.1062531848 ABAB
    9    9   10   13   0.1062531848 ABAB
    5    8   11   11   0.0664594471 ABAB
    8    5   11   11   0.0664594471 ABAB
    7    0   23    0  -0.0437490690 AA  
    8    0   21    0   0.0432893798 AA  
    8    0   24    0  -0.0427223257 AA  
    7    0   25    0  -0.0396055819 AA  
    7    0   18    0   0.0332498643 AA  
    9    8   10   13  -0.0318713923 ABAB
    8    9   13   10  -0.0318713923 ABAB
    8    8   15   11   0.0304237711 ABAB
    8    8   11   15   0.0304237711 ABAB
--------------------------------------------------------------------------------
  Converged eigenvector, normalized to one 
  SCF eigenvalue ordering used in list below. 
--------------------------------------------------------------------------------
    I    j    A    b
--------------------------------------------------------------------------------
    7    0   11    0   0.5204832996 AA  
    8    0   13    0  -0.4144607716 AA  
    9    9   13   10   0.1062531848 ABAB
    9    9   10   13   0.1062531848 ABAB
    5    8   11   11   0.0664594471 ABAB
    8    5   11   11   0.0664594471 ABAB
    7    0   23    0  -0.0437490690 AA  
    8    0   21    0   0.0432893798 AA  
    8    0   24    0  -0.0427223257 AA  
    7    0   25    0  -0.0396055819 AA  
    7    0   18    0   0.0332498643 AA  
    9    8   10   13  -0.0318713923 ABAB
    8    9   13   10  -0.0318713923 ABAB
    8    8   15   11   0.0304237711 ABAB
    8    8   11   15   0.0304237711 ABAB
--------------------------------------------------------------------------------

  Eigenvector is saved on CCRE_2_2  

  Adding new vector to expansion space.
  Guess for next eigenvalue   0.357894306814255     
 26  26  0.3491501105D+00  0.9500857520D+01  0.5673664515D-01  0.1020131458D+00
 27  27  0.3482977962D+00  0.9477664870D+01  0.9960958801D+00  0.2090254872D-01
 28  28  0.3480883446D+00  0.9471965401D+01  0.9996724624D+00  0.9028393214D-02
 29  29  0.3480436476D+00  0.9470749134D+01  0.9999433356D+00  0.2202686828D-02
  L-O-C-K-I-N-G O-N R-O-O-T 
 30  30  0.3480418046D+00  0.9470698985D+01  0.9999964891D+00  0.1035722220D-02
 31  31  0.3480418907D+00  0.9470701326D+01  0.9999992217D+00  0.3460125636D-03
 32  32  0.3480419581D+00  0.9470703162D+01  0.9999998815D+00  0.1422269122D-03
 33  33  0.3480420320D+00  0.9470705173D+01  0.9999999833D+00  0.5216947285D-04
 34  34  0.3480420794D+00  0.9470706461D+01  0.9999999975D+00  0.1914185171D-04
 35  35  0.3480420932D+00  0.9470706837D+01  0.9999999995D+00  0.8640937341D-05
  Converged eigenvalue:   0.348042093175479       a.u.
   Total EOMEE-CCSD electronic energy      -78.483160823580249 a.u.
  Converged eigenvector 
  SCF eigenvalue ordering used in list below. 
--------------------------------------------------------------------------------
    I    j    A    b
--------------------------------------------------------------------------------
    8    0   13    0   0.4536972309 AA  
    7    0   11    0   0.3885001015 AA  
    9    0   16    0   0.2912723596 AA  
    9    9   13   10  -0.1140760136 ABAB
    9    9   10   13  -0.1140760136 ABAB
    9    9   16   10   0.0861643364 ABAB
    9    9   10   16   0.0861643364 ABAB
    5    8   11   11   0.0463036711 ABAB
    8    5   11   11   0.0463036711 ABAB
    8    0   24    0   0.0450256218 AA  
    8    0   21    0  -0.0367247539 AA  
    9    8   10   13   0.0355887421 ABAB
    8    9   13   10   0.0355887421 ABAB
    7    0   14    0   0.0323263069 AA  
    9    9   13   28   0.0285848397 ABAB
--------------------------------------------------------------------------------
  Converged eigenvector, normalized to one 
  SCF eigenvalue ordering used in list below. 
--------------------------------------------------------------------------------
    I    j    A    b
--------------------------------------------------------------------------------
    8    0   13    0   0.4536972309 AA  
    7    0   11    0   0.3885001015 AA  
    9    0   16    0   0.2912723596 AA  
    9    9   13   10  -0.1140760136 ABAB
    9    9   10   13  -0.1140760136 ABAB
    9    9   16   10   0.0861643364 ABAB
    9    9   10   16   0.0861643364 ABAB
    5    8   11   11   0.0463036711 ABAB
    8    5   11   11   0.0463036711 ABAB
    8    0   24    0   0.0450256218 AA  
    8    0   21    0  -0.0367247539 AA  
    9    8   10   13   0.0355887421 ABAB
    8    9   13   10   0.0355887421 ABAB
    7    0   14    0   0.0323263069 AA  
    9    9   13   28   0.0285848397 ABAB
--------------------------------------------------------------------------------

  Eigenvector is saved on CCRE_2_3  

  Solution of   3 roots required   35 iterations.
 @CHECKOUT-I, Total execution time (CPU/WALL):       20.40/       2.56 seconds.
--executable xvee finished with status     0 in        2.58 seconds (walltime).
  The final electronic energy is       -78.483160823580249 a.u. 
  This computation required                            4.22 seconds (walltime).
