CFour on node02
 --invoking executable--
/home/tsommerfeld/zscale/bin/xjoda


   *************************************************************************
         <<<     CCCCCC     CCCCCC   |||     CCCCCC     CCCCCC   >>>
       <<<      CCC        CCC       |||    CCC        CCC         >>>
      <<<      CCC        CCC        |||   CCC        CCC            >>>
    <<<        CCC        CCC        |||   CCC        CCC              >>>
      <<<      CCC        CCC        |||   CCC        CCC            >>>
       <<<      CCC        CCC       |||    CCC        CCC         >>>
         <<<     CCCCCC     CCCCCC   |||     CCCCCC     CCCCCC   >>>
   *************************************************************************

     ****************************************************************
     * CFOUR Coupled-Cluster techniques for Computational Chemistry *
     ****************************************************************
 

   Department of Chemistry                Institut fuer Physikalische Chemie
   University of Florida                  Universitaet Mainz
   Gainesville, FL 32611, USA             D-55099 Mainz, Germany

   Department of Chemistry                Department of Chemistry
   Johns Hopkins University               Southern Methodist University
   Baltimore, MD 21218, USA               Dallas, TX 75275, USA

   Institute of Nanotechnology            Department of Physical Chemistry
   Karlsruhe Inst. of Technology          Eotvos Lorand University
   D-76021 Karlsruhe, Germany             H-1053 Budapest, Hungary

 
                       Version 2.1
 
                     node02                                            
                     Tue Mar 29 16:04:35 CST 2022                      
                     integer*8 version is running
 
********************************************************************************
*                          Input from ZMAT file                                *
********************************************************************************
h_ethylene                                                                      
C       0.000000      0.0   -0.664500                                           
C       0.000000      0.0    0.664500                                           
H       0.962348      0.0   -1.159080                                           
H       0.962348      0.0    1.159080                                           
H      -0.962348      0.0   -1.159080                                           
H      -0.962348      0.0    1.159080                                           
H      0.000000      2.3181818181818183      0.000000                           
                                                                                
*CFOUR(CALC=CCSD                                                                
EXCITE=EOMEE                                                                    
ESTATE_SYM=0/3/0/0                                                              
CC_PROG=VCC                                                                     
CHARGE=-1                                                                       
COORDINATES=CARTESIAN                                                           
BASIS=SPECIAL                                                                   
REFERENCE=RHF                                                                   
MEM_SIZE=90,MEM_UNIT=GB)                                                        
                                                                                
C:CC-PVDZ                                                                       
C:CC-PVDZ                                                                       
H:CC-PVDZ                                                                       
H:CC-PVDZ                                                                       
H:CC-PVDZ                                                                       
H:CC-PVDZ                                                                       
H:AUG-CC-PVDZ                                                                   
                                                                                
********************************************************************************
    -------------------------------------------------------------------
                    CFOUR Control Parameters 
    -------------------------------------------------------------------
        External           Internal           Value            Units
          Name               Name
    -------------------------------------------------------------------
       ABCDTYPE             IABCDT         STANDARD    [  0]    ***   
       ANHARMONIC           IANHAR         OFF         [  0]    ***   
       ANH_ALGORIT          IANALG         STANDARD    [  0]    ***   
       ANH_DERIVAT          IANDER         SECOND      [  1]    ***   
       ANH_MODE             ANHMOD         VIBRATION   [  0]    ***   
       ANH_STEPSIZ          ICUBST             50000          x 10-6  
       ANH_SYMMETR          IANHSM         ABELIAN     [  0]    ***   
       AO_LADDERS           IAOLAD         SINGLEPASS  [  1]    ***   
       AV_SCF               IAVSCF         OFF         [  0]    ***   
       BASIS                IBASIS         SPECIAL     [  0]    ***   
       BOTHVECTORS          BOTHVC         OFF         [  0]    ***   
       BOX_POTENT           IPIAB          OFF         [  0]    ***   
       BREIT                IBREIT         OFF         [  0]    ***   
       BRUCK_CONV           IBRTOL          10D-  4             ***   
       BRUECKNER            IBRKNR         OFF         [  0]    ***   
       BUFFERSIZE           IBUFFS              4096            ***   
       CACHE_RECS           ICHREC             10               ***   
       CALCLEVEL            ICLLVL         CCSD        [ 10]    ***   
       CCORBOPT             ICCORB         OFF         [  0]  x 0.01  
       CC_CONV              ICCCNV          10D-  7             ***   
       CC_EXPORDER          ICCEOR              5               ***   
       CC_EXTRAPOL          ICCEXT         DIIS        [  1]    ***   
       CC_GUESS             ICCGES         MP2         [  0]    ***   
       CC_MAXCYC            ICCCYC            100              cycles 
       CC_PROGRAM           ICCPRO         VCC         [  0]    ***   
       CHARGE               ICHRGE             -1               ***   
       CHOLESKY             ICHOLE         OFF         [  0]    ***   
       CIS_CONV             ICISTL              5               ***   
       COMM_SIZE            IPSIZE            ***               ***   
       CONSTANT             ICONST         OLD         [  1]    ***   
       CONTINUUM            ICONTU         NONE        [  0]    ***   
       CONTRACTION          ICNTYP         GENERAL     [  1]    ***   
       COORDINATES          ICOORD         CARTESIAN   [  1]    ***   
       CPHF_CONVER          ICPHFT          10D- 16             ***   
       CPHF_MAXCYC          ICPHFC             64              cycles 
       CUBIC                ICUBIC         OFF         [  0]    ***   
       CURVILINEAR          ICURVY         OFF         [  0]    ***   
       DBOC                 IDBOC          OFF         [  0]    ***   
       DCT                  IDCT           OFF         [  0]    ***   
       DERIV_LEV            IDRLVL         ZERO        [  0]    ***   
       DEVMEM_SIZE          IDVMEM         *********           MByte  
       DIAG_MRCC            IEOMST          10D-  0             ***   
       DIFF_TYPE            IDIFTY         RELAXED     [  0]    ***   
       DIRECT               IDIRCT         OFF         [  0]    ***   
       DROPMO               IDRPMO      NONE         
       ECP                  IECP           OFF         [  0]    ***   
       EIGENVECTOR          IVEC                1               ***   
       EL_ANHARM            IELANH         OFF         [  0]    ***   
       EOMFOLLOW            IEOMSR         ENERGY      [  0]    ***   
       EOMIP                IEOMIP         OFF         [  0]    ***   
       EOMLEVEL             HBARFM         SAME        [  0]    ***   
       EOM_MRCC             IMRCCE         NEW         [  1]    ***   
       EOM_NONIT            EOMNON         OFF         [  0]    ***   
       EOM_NSING            IEOMSI          10D-  0             ***   
       EOM_NSTATES          IMRCCD         DAVIDSON    [  0]    ***   
       EOM_NTRIP            IEOMTR          10D-  0             ***   
       EOM_ORDER            IEXORD         ENERGY      [  0]    ***   
       EOM_PROPSTA          IEOMST              0               ***   
       ESTATE_CONV          IEXTOL          10D-  5             ***   
       ESTATE_DIAG          IEXDIG         ITERATIVE   [  0]    ***   
       ESTATE_LOCK          IESLOC         ON          [  1]    ***   
       ESTATE_MAXC          IEXMXC             40               ***   
       ESTATE_PROP          IEXPRP         OFF         [  0]    ***   
       ESTATE_SYM           IEXSYM   0,  3,  0,  0,
       EVAL_HESS            IRECAL              0            # of cyc.
       EXCITATION           IEXCIT              0               ***   
       EXCITE               IEXCIT         EOMEE       [  3]    ***   
       EXTERN_POT           IEXPOT         OFF         [  0]    ***   
       FCGRADNEW            IFCGNW         OFF         [  0]    ***   
       FC_FIELD             IFINFC              0             x 10-6  
       FD_CALTYPE           IFDCAL         GRADONLY    [  0]    ***   
       FD_PROJECT           IFDPRJ         OFF         [  1]    ***   
       FD_STEPSIZE          IDISFD              0            10-4 bohr
       FD_USEGROUP          IFDGRP         FULL        [  0]    ***   
       FILE_RECSIZ          IFLREC              4096           words  
       FINITE_PERT          IFIPER              0             x 10-6  
       FIXGEOM              IFIXGM         OFF         [  0]    ***   
       FOCK                 IFOCK          AO          [  1]    ***   
       FREQ_ALGORI          IVIALG         STANDARD    [  0]    ***   
       FROZEN_CORE          IFROCO         OFF         [  0]    ***   
       GAMMA_ABCD           IGABCD         STORE       [  0]    ***   
       GAMMA_ABCI           IGABCI         STORE       [  0]    ***   
       GENBAS_1             IGNBS1              0               ***   
       GENBAS_2             IGNBS2              0               ***   
       GENBAS_3             IGNBS3              0               ***   
       GENBAS_4             IGNBS4              0               ***   
       GEO_CONV             ICONTL              5              H/bohr 
       GEO_MAXCYC           IOPTCY             50               ***   
       GEO_MAXSTEP          IMXSTP            300            millibohr
       GEO_METHOD           INR            SINGLE_POINT[  5]    ***   
       GIAO                 IGIAO          OFF         [  1]    ***   
       GIMIC                IGIMIC         OFF         [  0]    ***   
       GRID                 IGRID          OFF         [  0]    ***   
       GRID_ALGO            IGALGO         SERIAL      [  0]    ***   
       GUESS                IGUESS         MOREAD      [  0]    ***   
       HBAR                 IHBAR          ON          [  1]    ***   
       HESS_TYPE            IHESTP         SCF         [  0]    ***   
       HF2_FILE             IHF2Fl         USE         [  1]    ***   
       HFSTABILITY          ISTABL         OFF         [  0]    ***   
       INCORE               INCORE         OFF         [  0]    ***   
       INPUT_MRCC           IMRCC          ON          [  1]    ***   
       INTEGRALS            INTTYP         VMOL        [  1]    ***   
       JODA_PRINT           IJPRNT              0               ***   
       KEYWORD_OUT          IDMPKW         NO          [  0]    ***   
       LINDEP_TOL           ILINDP              8               ***   
       LINEQ_CONV           IZTACN          10D-  7           cycles  
       LINEQ_EXPOR          ILMAXD              5               ***   
       LINEQ_MAXCY          ILMAXC            100               ***   
       LINEQ_TYPE           ILTYPE         DIIS        [  1]    ***   
       LOCK_ORBOCC          ILOCOC         OFF         [  0]    ***   
       MEMORY_SIZE          IMEMSZ         *********           words  
       MEM_UNIT             IMEMU          GB          [  3]    ***   
       MRCC                 IMRCCC         OFF         [  0]    ***   
       MULTIPLICTY          IMULTP              1               ***   
       NACOUPLING           IVCOUP         OFF         [  0]    ***   
       NEGEVAL              IDIE           ABORT       [  0]    ***   
       NEWNORM              INEWNO         OFF         [  0]    ***   
       NON-HF               INONHF         OFF         [  0]    ***   
       NTOP_TAMP            ITOPT2             15               ***   
       NUC_MODEL            INUCMO         POINT       [  0]    ***   
       OCCUPATION           IOCCU   ESTIMATED BY SCF 
       OPEN-SHELL           IOPEN          SPIN-ORBITAL[  0]    ***   
       OPTVIB               IOPTVB         OFF         [  0]    ***   
       ORBITALS             IORBTP         STANDARD    [  0]    ***   
       PARALLEL             IPARAL         ON          [  1]    ***   
       PARA_INT             IPINTS         ON          [  1]    ***   
       PARA_PRINT           IPPRIN              0               ***   
       PERT_ORB             IPTORB         STANDARD    [  0]    ***   
       POINTS               IGRDFD              0               ***   
       PRINT                IPRNT               0               ***   
       PROPS                IPROPS         OFF         [  0]    ***   
       PROP_INTEGR          IINTYP         INTERNAL    [  0]    ***   
       PSI                  IPSI           OFF         [  0]    ***   
       QC_ALG               IQCALG         FLM         [  0]    ***   
       QC_LINALG            IQCLIN         TRIDIAG     [  2]    ***   
       QC_MAXCYC            IQCMAX          10D-100           cycles  
       QC_MAXSCFCY          IQCMSC          10D- 15           cycles  
       QC_RTRUST            IQCRTR          10D-  0           x 10-3  
       QC_SKIPSCF           IQCSKI         OFF         [  0]    ***   
       QC_START             IQCSTA          10D-  1             ***   
       QRHFGUESS            IQGUES         OFF         [  0]    ***   
       QUARTIC              IQUART         OFF         [  0]    ***   
       RAMAN_INT            IRAMIN         OFF         [  0]    ***   
       RAMAN_ORB            IRAMRE         UNRELAXED   [  0]    ***   
       RDO                  IRDOFM         OFF         [  0]    ***   
       REDUCE_REPR          REDREP         Ir          [  0]    ***   
       REFERENCE            IREFNC         RHF         [  0]    ***   
       RELATIVIST           IRELAT         OFF         [  0]    ***   
       RELAX_DENS           IRDENS         OFF         [  0]    ***   
       RESET_FLAGS          IRESET         OFF         [  0]    ***   
       RESTART_CC           ICCRES         OFF         [  0]    ***   
       ROT_EVEC             ROTVEC              0               ***   
       SAVE_INTS            ISVINT         OFF         [  0]    ***   
       SCALE_ON             ISTCRT              0               ***   
       SCF_CONV             ISCFCV          10D-  7             ***   
       SCF_DAMPING          IDAMP               0             x 10-3  
       SCF_EXPORDE          IRPPOR              6               ***   
       SCF_EXPSTAR          IRPPLS              8               ***   
       SCF_EXTRAPO          IRPP           ON          [  1]    ***   
       SCF_MAXCYC           ISCFCY            150              cycles 
       SCF_NOSTOP           ISCFST         OFF         [  0]    ***   
       SCF_PRINT            ISCFPR              0               ***   
       SCF_PROG             ISCFPR         SCF         [  0]    ***   
       SD_FIELD             IFINSD              0             x 10-6  
       SOPERT               IPERSO         OFF         [  0]    ***   
       SPHERICAL            IDFGHI         ON          [  1]    ***   
       SPINORBIT            ISOCAL         OFF         [  0]    ***   
       SPINROTATIO          ISRCON         OFF         [  0]    ***   
       SPIN_FLIP            ISPFLP         OFF         [  0]    ***   
       SPIN_ORBIT           ISPORB         OFF         [  0]    ***   
       SPIN_SCAL            ISCSMP         OFF         [  0]    ***   
       STEEPSCALE           ISTPSC              1000          x 10-3  
       SUBGROUP             ISUBGP         DEFAULT     [  0]    ***   
       SUBGRPAXIS           ISBXYZ         X           [  0]    ***   
       SYMMETRY             ISYM           ON          [  0]    ***   
       SYM_CHECK            ISYMCK         OVERRIDE    [  1]    ***   
       T3_EXTRAPOL          IT3EXT         OFF         [  0]    ***   
       T4_EXTRAPOL          IT4EXP         OFF         [  0]    ***   
       TAMP_SUM             IEVERY              5               ***   
       TESTSUITE            ITESTS         OFF         [  0]    ***   
       THERMOCH             ITHERM         OFF         [  0]    ***   
       TOL_CHOLESK          ITOLCH          10D-  4             ***   
       TRANGRAD             IRESRM         OFF         [  0]    ***   
       TRANS_INV            ITRAIN         USE         [  0]    ***   
       TREAT_PERT           ITREAT         SIMULTANEOUS[  0]    ***   
       TRIP_ALGORI          ITRALG         NORMAL      [  0]    ***   
       UIJ_THRESHO          IUIJTH              1               ***   
       UNITS                IUNITS         ANGSTROM    [  0]    ***   
       UNOS                 IUNOS          OFF         [  0]    ***   
       UPDATE_HESS          IHUPDT         ON          [  1]    ***   
       VIBPHASE             ISETPH         STANDARD    [  0]    ***   
       VIBRATION            IVIB           NO          [  0]    ***   
       VIB_ALGORIT          IGEALG         STANDARD    [  0]    ***   
       VNATORB              IVNORB         OFF         [  0]    ***   
       VTRAN                IVTRAN         FULL/PARTIAL[  0]    ***   
       XFIELD               IXEFLD              0             x 10-6  
       XFORM_TOL            IXFTOL          10D- 11             ***   
       YFIELD               IYEFLD              0             x 10-6  
       ZFIELD               IZEFLD              0             x 10-6  
       ZSCALE_EXP           IZEXPS         OFF         [  0]    ***   
    -------------------------------------------------------------------
  @GETXYZ-I,     7 atoms read from ZMAT.
   Rotational constants (in cm-1): 
          0.7936209705             0.8536890782             1.8811185192
   Rotational constants (in MHz): 
      23792.1614787577         25592.9582983935         56394.5223663284
********************************************************************************
   The full molecular point group is C2v .
   The largest Abelian subgroup of the full molecular point group is C2v .
   The computational point group is C2v .
********************************************************************************


 ----------------------------------------------------------------
         Coordinates used in calculation (QCOMP) 
 ----------------------------------------------------------------
 Z-matrix   Atomic            Coordinates (in bohr)
  Symbol    Number           X              Y              Z
 ----------------------------------------------------------------
     C         6         0.00000000    -1.25572327     0.15203657
     C         6         0.00000000     1.25572327     0.15203657
     H         1         1.81857454    -2.19034422     0.15203657
     H         1         1.81857454     2.19034422     0.15203657
     H         1        -1.81857454    -2.19034422     0.15203657
     H         1        -1.81857454     2.19034422     0.15203657
     H         1         0.00000000     0.00000000    -4.22869309
 ----------------------------------------------------------------
 
   Interatomic distance matrix (Angstroms) 
 
                 C             C             H             H             H    
                [ 1]        [ 2]        [ 3]        [ 4]        [ 5]
  C    [ 1]     0.00000
  C    [ 2]     1.32900     0.00000
  H    [ 3]     1.08200     2.06193     0.00000
  H    [ 4]     2.06193     1.08200     2.31816     0.00000
  H    [ 5]     1.08200     2.06193     1.92470     3.01303     0.00000
  H    [ 6]     2.06193     1.08200     3.01303     1.92470     2.31816
  H    [ 7]     2.41154     2.41154     2.76470     2.76470     2.76470
 
                 H             H    
                [ 6]        [ 7]
  H    [ 6]     0.00000
  H    [ 7]     2.76470     0.00000
 rotcon2
   Rotational constants (in cm-1): 
          0.7936209705             1.8811185192             0.8536890782
   Rotational constants (in MHz): 
      23792.1614787577         56394.5223663284         25592.9582983935
  ECPDATA file not present.   Using default ECPDATA. 
  There are   57 basis functions.
 @GEOPT-W, Archive file not created for single-point calculation.
 @CHECKOUT-I, Total execution time (CPU/WALL):        0.12/       0.13 seconds.
--executable xjoda finished with status     0 in        0.15 seconds (walltime).
 --invoking executable--
/home/tsommerfeld/zscale/bin/xvmol
 SERIAL VERSION OF MOLECULE STARTED
********************************************************************************
                    INPUT FROM MOL FILE
********************************************************************************
INTGRL        1    0    1    0    0    0    0    0    0                         
         *** CFOUR Program System (Release V0.1) ***                            
h_ethylene                                                                      
    3    2 X  Y       0.10E-08              0    0                              
   9999.00      3.00                                                            
          6.00000000    1    3    1    1    1                                   
C #1   0.000000000000000  -1.255723272983657   0.152036571276459                
    9    3                                                                      
   6665.00000000000       6.920000000000000E-004 -1.460000000000000E-004        
  0.000000000000000E+000                                                        
   1000.00000000000       5.329000000000000E-003 -1.154000000000000E-003        
  0.000000000000000E+000                                                        
   228.000000000000       2.707700000000000E-002 -5.725000000000000E-003        
  0.000000000000000E+000                                                        
   64.7100000000000       0.101718000000000      -2.331200000000000E-002        
  0.000000000000000E+000                                                        
   21.0600000000000       0.274740000000000      -6.395500000000000E-002        
  0.000000000000000E+000                                                        
   7.49500000000000       0.448564000000000      -0.149981000000000             
  0.000000000000000E+000                                                        
   2.79700000000000       0.285074000000000      -0.127262000000000             
  0.000000000000000E+000                                                        
  0.521500000000000       1.520400000000000E-002  0.544529000000000             
  0.000000000000000E+000                                                        
  0.159600000000000      -3.191000000000000E-003  0.580496000000000             
   1.00000000000000                                                             
    4    2                                                                      
   9.43900000000000       3.810900000000000E-002  0.000000000000000E+000        
   2.00200000000000       0.209480000000000       0.000000000000000E+000        
  0.545600000000000       0.508557000000000       0.000000000000000E+000        
  0.151700000000000       0.468842000000000        1.00000000000000             
    1    1                                                                      
  0.550000000000000        1.00000000000000                                     
          1.00000000    1    2    1    1                                        
H #2   1.818574537711477  -2.190344215575466   0.152036571276459                
    4    2                                                                      
   13.0100000000000       1.968500000000000E-002  0.000000000000000E+000        
   1.96200000000000       0.137977000000000       0.000000000000000E+000        
  0.444600000000000       0.478148000000000       0.000000000000000E+000        
  0.122000000000000       0.501240000000000        1.00000000000000             
    1    1                                                                      
  0.727000000000000        1.00000000000000                                     
          1.00000000    1    2    1    1                                        
H #3   0.000000000000000   0.000000000000000  -4.228693090271289                
    5    3                                                                      
   13.0100000000000       1.968500000000000E-002  0.000000000000000E+000        
  0.000000000000000E+000                                                        
   1.96200000000000       0.137977000000000       0.000000000000000E+000        
  0.000000000000000E+000                                                        
  0.444600000000000       0.478148000000000       0.000000000000000E+000        
  0.000000000000000E+000                                                        
  0.122000000000000       0.501240000000000        1.00000000000000             
  0.000000000000000E+000                                                        
  2.974000000000000E-002  0.000000000000000E+000  0.000000000000000E+000        
   1.00000000000000                                                             
    2    2                                                                      
  0.727000000000000        1.00000000000000       0.000000000000000E+000        
  0.141000000000000       0.000000000000000E+000   1.00000000000000             
FINISH                                                                          
 
********************************************************************************
 ONE- AND TWO-ELECTRON INTEGRALS OVER SYMMETRY-ADAPTED AOS ARE CALCULATED.

  SPHERICAL HARMONICS ARE USED.
  
  INTEGRALS LESS THAN  0.10E-13 ARE NEGLECTED.

  NUCLEAR REPULSION ENERGY :   36.9880596518 A.U.
  @MOLECU-I, ONE ELECTRON INTEGRALS (CPU/WALL):        0.01/       0.01 SECONDS.
  @TWOEL-I,      29572 INTEGRALS OF SYMMETRY TYPE  I I I I
  @TWOEL-I,     102291 INTEGRALS OF SYMMETRY TYPE  I J I J
  @TWOEL-I,      58089 INTEGRALS OF SYMMETRY TYPE  I I J J
  @TWOEL-I,      75480 INTEGRALS OF SYMMETRY TYPE  I J K L
  @TWOEL-I, TOTAL NUMBER OF 2-E INTEGRALS     265432.
  @MOLECU-I, TWO ELECTRON INTEGRALS (CPU/WALL):        0.22/       0.23 SECONDS.
 @CHECKOUT-I, Total execution time (CPU/WALL):        0.24/       0.25 seconds.

Running with 8 threads/proc

--executable xvmol finished with status     0 in        0.27 seconds (walltime).
 --invoking executable--
/home/tsommerfeld/zscale/bin/xvmol2ja
 @GETMEM-I,  Allocated   85830 MB of main memory.
 @CHECKOUT-I, Total execution time (CPU/WALL):        0.02/       0.01 seconds.
--executable xvmol2ja finished with status     0 in        0.03 seconds (walltime).
 --invoking executable--
/home/tsommerfeld/zscale/bin/xvscf
  There are   57 functions in the AO basis.

  There are 4 irreducible representations.

       Irrep        # of functions
         1                 20
         2                 11
         3                 17
         4                  9


  Parameters for SCF calculation: 
        SCF reference function:  RHF  
  Maximum number of iterations:  150
     Full symmetry point group: C2v 
     Computational point group: C2v 
        Initial density matrix: MOREAD                 
     SCF convergence tolerance: 10**(- 7)
  DIIS convergence acceleration:  ON
          Latest start for DIIS:   8
                     DIIS order:   6

  Memory information:     156410 words required.
  Fock matrices are constructed from AO integral file.
 @GETMEM-I,  Allocated       1 MB of main memory.
  Initialization and symmetry analysis required      0.002 seconds.

  @INITGES-I, Occupancies from core Hamiltonian:

          Alpha population by irrep:   3    1    4    1
           Beta population by irrep:   3    1    4    1


 total no. of electrons in initial guess :  0.000000000000000E+000
  --------------------------------------------------------------------
  Iteration         Total Energy            Largest Density Difference
  --------------------------------------------------------------------
       0            36.988059651762235              0.0000000000D+00
   current occupation vector 
     3  1  4  1
     3  1  4  1
       1           -61.225981073043691              0.8861070095D+01
   current occupation vector 
     3  1  4  1
     3  1  4  1
       2           -63.049344090674502              0.8699088605D+01
   current occupation vector 
     4  1  3  1
     4  1  3  1
       3           -70.842872405118243              0.5189079807D+01
   current occupation vector 
     4  1  3  1
     4  1  3  1
       4           -67.098486599012574              0.4959837030D+01
   current occupation vector 
     4  1  3  1
     4  1  3  1
       5           -72.209348881153034              0.4959832512D+01
   current occupation vector 
     4  1  3  1
     4  1  3  1
       6           -68.432003726723167              0.4885055352D+01
   current occupation vector 
     4  1  3  1
     4  1  3  1
       7           -72.665018960230043              0.4885039433D+01
   current occupation vector 
     4  1  3  1
     4  1  3  1
       8           -68.909028822086356              0.4862911859D+01
   current occupation vector 
     4  1  3  1
     4  1  3  1
       9           -77.493612375460089              0.4862899036D+01
   current occupation vector 
     4  1  3  1
     4  1  3  1
      10           -78.395027507664707              0.1389612627D+01
   current occupation vector 
     5  1  2  1
     5  1  2  1
      11           -78.465705753339108              0.5114644171D+00
   current occupation vector 
     5  1  2  1
     5  1  2  1
      12           -78.480717965497718              0.1070309770D+00
   current occupation vector 
     5  1  2  1
     5  1  2  1
      13           -78.482726761915870              0.4736516819D-01
   current occupation vector 
     5  1  2  1
     5  1  2  1
      14           -78.482783986192771              0.5389658340D-02
   current occupation vector 
     5  1  2  1
     5  1  2  1
      15           -78.482786710278361              0.2098649834D-02
   current occupation vector 
     5  1  2  1
     5  1  2  1
      16           -78.482786958259851              0.7219203193D-03
   current occupation vector 
     5  1  2  1
     5  1  2  1
      17           -78.482786967191743              0.1158370646D-03
   current occupation vector 
     5  1  2  1
     5  1  2  1
      18           -78.482786967378615              0.1386430053D-04
   current occupation vector 
     5  1  2  1
     5  1  2  1
      19           -78.482786967380690              0.3066648776D-05
   current occupation vector 
     5  1  2  1
     5  1  2  1
      20           -78.482786967380520              0.6703649510D-06
   current occupation vector 
     5  1  2  1
     5  1  2  1
      21           -78.482786967380690              0.1017401207D-06
   current occupation vector 
     5  1  2  1
     5  1  2  1

  SCF has converged.

 Density matrix saved to file den.dat
 total electron number:   18.0000000000000     
     E(SCF)=       -78.482786967380719              0.2251867959D-07


  Final occupancies:

     Alpha population by irrep:   5    1    2    1
      Beta population by irrep:   5    1    2    1


  Eigenvector printing suppressed.

 @PUTMOS-I, Writing converged MOs to NEWMOS. 
 @PUTMOS-I, Symmetry   1 Full Blocks  5 Partial Blocksize   0
 @PUTMOS-I, Symmetry   2 Full Blocks  2 Partial Blocksize   3
 @PUTMOS-I, Symmetry   3 Full Blocks  4 Partial Blocksize   1
 @PUTMOS-I, Symmetry   4 Full Blocks  2 Partial Blocksize   1
 @PUTFOCK-I, Writing converged Fock matrix to NEWFOCK. 
 @PUTFOCK-I, Symmetry   1 Full Blocks  5 Partial Blocksize   0
 @PUTFOCK-I, Symmetry   2 Full Blocks  2 Partial Blocksize   3
 @PUTFOCK-I, Symmetry   3 Full Blocks  4 Partial Blocksize   1
 @PUTFOCK-I, Symmetry   4 Full Blocks  2 Partial Blocksize   1


 
  ORBITAL EIGENVALUES (ALPHA)  (1H = 27.2113834 eV)

       MO #        E(hartree)               E(eV)           FULLSYM    COMPSYM
       ----   --------------------   --------------------   -------   ---------
    1     1         -11.0635538514        -301.0546056180      A1        A1 (1)
    2    32         -11.0618403332        -301.0079784162      B2        B2 (3)
    3     2          -0.8678806972         -23.6162343957      A1        A1 (1)
    4    33          -0.6129060140         -16.6780205364      B2        B2 (3)
    5    21          -0.4896845909         -13.3249951472      B1        B1 (2)
    6     3          -0.3965618247         -10.7909958543      A1        A1 (1)
    7    49          -0.3476077113          -9.4588867062      A2        A2 (4)
    8     4          -0.2164514659          -5.8899438263      A1        A1 (1)
    9     5          -0.0157776389          -0.4293313808      A1        A1 (1)
  +++++++++++++++++++++++++++++++++++++++++++++++++++++++++++++++++++++++++++++
   10     6           0.2799884554           7.6188732061      A1        A1 (1)
   11    34           0.3382373655           9.2039066319      B2        B2 (3)
   12     7           0.3703690432          10.0782540347      A1        A1 (1)
   13    22           0.3743311425          10.1860682358      B1        B1 (2)
   14    35           0.3908956445          10.6368112529      B2        B2 (3)
   15    50           0.4456527680          12.1268283323      A2        A2 (4)
   16    23           0.5620024777          15.2928648931      B1        B1 (2)
   17    36           0.5822963710          15.8450898024      B2        B2 (3)
   18    37           0.6169937125          16.7892524660      B2        B2 (3)
   19     8           0.6345044770          17.2657445927      A1        A1 (1)
   20     9           0.7310994949          19.8942286589      A1        A1 (1)
   21    24           0.8363977828          22.7595407438      B1        B1 (2)
   22    10           0.8564490184          23.3051626015      A1        A1 (1)
   23    38           0.9589966682          26.0956260176      B2        B2 (3)
   24    25           1.0290524284          28.0019401666      B1        B1 (2)
   25    11           1.0365622634          28.2062931670      A1        A1 (1)
   26    39           1.0378657613          28.2417631489      B2        B2 (3)
   27    51           1.0999487865          29.9311281509      A2        A2 (4)
   28    12           1.1195114513          30.4634553226      A1        A1 (1)
   29    40           1.1352015152          30.8904036666      B2        B2 (3)
   30    26           1.3087266750          35.6122633204      B1        B1 (2)
   31    13           1.3818590617          37.6022967327      A1        A1 (1)
   32    41           1.4486579505          39.4199869074      B2        B2 (3)
   33    52           1.4542614446          39.5724657340      A2        A2 (4)
   34    53           1.5107234389          41.1088747080      A2        A2 (4)
   35    14           1.5187028971          41.3260068043      A1        A1 (1)
   36    15           1.7693975918          48.1477562576      A1        A1 (1)
   37    54           1.7775291614          48.3690275151      A2        A2 (4)
   38    27           1.8750481754          51.0226547941      B1        B1 (2)
   39    42           2.0111588164          54.7264136316      B2        B2 (3)
   40    43           2.0527346682          55.8577500759      B2        B2 (3)
   41    16           2.0795893367          56.5885027552      A1        A1 (1)
   42    17           2.1007438188          57.1641454793      A1        A1 (1)
   43    28           2.1364704214          58.1363157590      B1        B1 (2)
   44    29           2.1678912982          58.9913212850      B1        B1 (2)
   45    44           2.1723613961          59.1129588339      B2        B2 (3)
   46    30           2.1986740419          59.8289623252      B1        B1 (2)
   47    18           2.2909568640          62.3401055790      A1        A1 (1)
   48    45           2.3416346863          63.7191192324      B2        B2 (3)
   49    46           2.4456589806          66.5497641857      B2        B2 (3)
   50    55           2.5834507195          70.2992680224      A2        A2 (4)
   51    19           2.5919213996          70.5297669467      A1        A1 (1)
   52    56           2.6528379718          72.1873911497      A2        A2 (4)
   53    47           2.7022380017          73.5316343026      B2        B2 (3)
   54    31           2.9564887159          80.4501479656      B1        B1 (2)
   55    20           2.9591146782          80.5216040335      A1        A1 (1)
   56    48           3.4147280015          92.9194728562      B2        B2 (3)
   57    57           3.5058584912          95.3992595508      A2        A2 (4)


  VSCF finished.

 @CHECKOUT-I, Total execution time (CPU/WALL):        0.27/       0.11 seconds.
--executable xvscf finished with status     0 in        0.13 seconds (walltime).
 --invoking executable--
/home/tsommerfeld/zscale/bin/xvtran
 @GETMEM-I,  Allocated   85830 MB of main memory.
  Full RHF integral transformation
  Transformation of IIII integrals :
  1 pass through the AO integral file was required.
       29572 AO integrals were read.
       37182 MO integrals were written to HF2.
  Transformation of IIJJ integrals :
  1 pass through the AO integral file was required.
       58089 AO integrals were read.
       75393 MO integrals were written to HF2.
  Transformation of IJIJ integrals :
  1 pass through the AO integral file was required.
      102291 AO integrals were read.
      132879 MO integrals were written to HF2.
  Transformation of IJKL integrals :
  1 pass through the AO integral file was required.
       75480 AO integrals were read.
      100980 MO integrals were written to HF2.
  Summary of active molecular orbitals: 
------------------------------------------------------------------------
 
  Index      Eigenvalue    Symmetry    Index      Eigenvalue    Symmetry
------------------------------------------------------------------------
     1       -11.0635539        1        30         1.8750482        2
     2        -0.8678807        1        31         2.1364704        2
     3        -0.3965618        1        32         2.1678913        2
     4        -0.2164515        1        33         2.1986740        2
     5        -0.0157776        1        34         2.9564887        2
     6        -0.4896846        2        35         0.3382374        3
     7       -11.0618403        3        36         0.3908956        3
     8        -0.6129060        3        37         0.5822964        3
     9        -0.3476077        4        38         0.6169937        3
    10         0.2799885        1        39         0.9589967        3
    11         0.3703690        1        40         1.0378658        3
    12         0.6345045        1        41         1.1352015        3
    13         0.7310995        1        42         1.4486580        3
    14         0.8564490        1        43         2.0111588        3
    15         1.0365623        1        44         2.0527347        3
    16         1.1195115        1        45         2.1723614        3
    17         1.3818591        1        46         2.3416347        3
    18         1.5187029        1        47         2.4456590        3
    19         1.7693976        1        48         2.7022380        3
    20         2.0795893        1        49         3.4147280        3
    21         2.1007438        1        50         0.4456528        4
    22         2.2909569        1        51         1.0999488        4
    23         2.5919214        1        52         1.4542614        4
    24         2.9591147        1        53         1.5107234        4
    25         0.3743311        2        54         1.7775292        4
    26         0.5620025        2        55         2.5834507        4
    27         0.8363978        2        56         2.6528380        4
    28         1.0290524        2        57         3.5058585        4
    29         1.3087267        2
------------------------------------------------------------------------
  -11.0635538514357      -0.867880697154551      -0.396561824722104     
 -0.216451465908263      -1.577763888176360E-002 -0.489684590868971     
  -11.0618403331965      -0.612906014046800      -0.347607711344216     
  0.279988455350552       0.370369043226212       0.634504477000096     
  0.731099494887355       0.856449018373548        1.03656226338667     
   1.11951145132252        1.38185906169958        1.51870289712447     
   1.76939759180242        2.07958933668954        2.10074381882727     
   2.29095686399419        2.59192139958273        2.95911467821655     
  0.374331142451663       0.562002477722951       0.836397782839534     
   1.02905242835144        1.30872667504444        1.87504817539457     
   2.13647042138273        2.16789129820463        2.19867404187811     
   2.95648871587912       0.338237365465977       0.390895644535977     
  0.582296370951914       0.616993712490002       0.958996668196318     
   1.03786576131744        1.13520151520778        1.44865795053381     
   2.01115881640799        2.05273466823808        2.17236139614551     
   2.34163468632634        2.44565898056139        2.70223800171138     
   3.41472800152450       0.445652767963188        1.09994878654136     
   1.45426144464105        1.51072343892550        1.77752916138382     
   2.58345071946605        2.65283797183633        3.50585849122174     
 @CHECKOUT-I, Total execution time (CPU/WALL):        0.35/       0.07 seconds.
--executable xvtran finished with status     0 in        0.09 seconds (walltime).
 --invoking executable--
/home/tsommerfeld/zscale/bin/xintprc
 @GETMEM-I,  Allocated   85830 MB of main memory.
  Processing integrals for CCSD calculation.
  @GMOIAA-I, Processing MO integrals for spin case AA.
  @GMOIAA-I, Generation of integral list completed.
                      TYPE                NUMBER
                      ----               --------
                      PPPP                174781
                      PPPH                128448
                      PPHH                 24003
                      PHPH                 13755
                      PHHH                  5115
                      HHHH                   332

                     TOTAL                346434

  @FORMT2-I, Second-order MP correlation energies:
            ------------------------------------------------
            E(SCF)                  =    -78.482786967381 a.u.
            E2(AA)                  =     -0.032891012581 a.u.
            E2(AB)                  =     -0.249829059915 a.u.
            E2(TOT)                 =     -0.315611085078 a.u.
            Total MP2 energy        =    -78.798398052459 a.u.
            ------------------------------------------------
   Largest T2 amplitudes for spin case AB:
       _       _                 _       _                 _       _
   i   j   a   b             i   j   a   b             i   j   a   b
-----------------------------------------------------------------------------
[  5   5  10  10]-0.09122 [  4   4  35  35]-0.08249 [  5   5  26  26]-0.03915
[  5   5  12  12]-0.02676 [  5   4  35  35]-0.02643 [  4   5  35  35]-0.02643
[  4   3  35  41] 0.02598 [  3   4  41  35] 0.02598 [  5   5  10  16] 0.02468
[  5   5  16  10] 0.02468 [  4   4  14  14]-0.02399 [  3   3  41  41]-0.02304
[  5   4  10  10] 0.02244 [  4   5  10  10] 0.02244 [  5   5  15  10]-0.02092
-----------------------------------------------------------------------------
   Norm of T2AB vector (    47574 symmetry allowed elements):  0.3228904053.
-----------------------------------------------------------------------------
 @CHECKOUT-I, Total execution time (CPU/WALL):        0.41/       0.10 seconds.
--executable xintprc finished with status     0 in        0.12 seconds (walltime).
  calling xvcc 
 --invoking executable--
/home/tsommerfeld/zscale/bin/xvcc
 @GETMEM-I,  Allocated   85830 MB of main memory.
   CCSD energy will be calculated.
   The total correlation energy is -0.315611085078 a.u.
   The total correlation energy is -0.340388631673 a.u.
  Convergence information after     1 iterations: 
  Largest element of residual vector : -0.35213088E-01.
  Largest element of DIIS residual   : -0.35213088E-01.
   The total correlation energy is -0.350571650107 a.u.
  Convergence information after     2 iterations: 
  Largest element of residual vector : -0.18001466E-01.
  Largest element of DIIS residual   : -0.10719355E-01.
   The total correlation energy is -0.354676458832 a.u.
  Convergence information after     3 iterations: 
  Largest element of residual vector : -0.72365426E-02.
  Largest element of DIIS residual   : -0.43619903E-02.
   The total correlation energy is -0.355958611111 a.u.
  Convergence information after     4 iterations: 
  Largest element of residual vector : -0.30961228E-02.
  Largest element of DIIS residual   : -0.14279128E-02.
   The total correlation energy is -0.356164824064 a.u.
  Convergence information after     5 iterations: 
  Largest element of residual vector : -0.86001045E-03.
  Largest element of DIIS residual   : -0.41193195E-03.
   The total correlation energy is -0.356153568059 a.u.
  Convergence information after     6 iterations: 
  Largest element of residual vector : -0.26111428E-03.
  Largest element of DIIS residual   :  0.14895618E-03.
   The total correlation energy is -0.356138469005 a.u.
  Convergence information after     7 iterations: 
  Largest element of residual vector : -0.97253784E-04.
  Largest element of DIIS residual   : -0.43535749E-04.
   The total correlation energy is -0.356133667061 a.u.
  Convergence information after     8 iterations: 
  Largest element of residual vector : -0.32310555E-04.
  Largest element of DIIS residual   : -0.26327691E-04.
   The total correlation energy is -0.356133799571 a.u.
  Convergence information after     9 iterations: 
  Largest element of residual vector : -0.99663434E-05.
  Largest element of DIIS residual   : -0.56423981E-05.
   The total correlation energy is -0.356134070226 a.u.
  Convergence information after    10 iterations: 
  Largest element of residual vector : -0.63909443E-05.
  Largest element of DIIS residual   : -0.43195451E-05.
   The total correlation energy is -0.356134531995 a.u.
  Convergence information after    11 iterations: 
  Largest element of residual vector : -0.21309074E-05.
  Largest element of DIIS residual   : -0.15754252E-05.
   The total correlation energy is -0.356134754009 a.u.
  Convergence information after    12 iterations: 
  Largest element of residual vector : -0.10121945E-05.
  Largest element of DIIS residual   : -0.64212690E-06.
   The total correlation energy is -0.356134827866 a.u.
  Convergence information after    13 iterations: 
  Largest element of residual vector : -0.35337000E-06.
  Largest element of DIIS residual   : -0.26487235E-06.
   The total correlation energy is -0.356134830601 a.u.
  Convergence information after    14 iterations: 
  Largest element of residual vector : -0.20573408E-06.
  Largest element of DIIS residual   : -0.11462278E-06.
   The total correlation energy is -0.356134830129 a.u.
  Convergence information after    15 iterations: 
  Largest element of residual vector : -0.70886188E-07.
  Largest element of DIIS residual   : -0.47890654E-07.
  Amplitude equations converged in    15iterations.
   The total correlation energy is -0.356134828647 a.u.
   The CC iterations have converged.

   Largest T1 amplitudes for spin case AA:
   i       a                 i       a                 i       a    
-----------------------------------------------------------------------------
[  5      10    ]-0.03008 [  4      14    ]-0.01851 [  4      10    ] 0.01544
[  5      14    ]-0.01446 [  4      18    ] 0.01304 [  5      18    ] 0.00900
[  5      16    ]-0.00885 [  4      17    ]-0.00847 [  4      15    ]-0.00788
[  6      27    ]-0.00675 [  5      11    ]-0.00561 [  4      21    ] 0.00543
[  5      15    ] 0.00528 [  5      12    ] 0.00527 [  9      50    ]-0.00470
-----------------------------------------------------------------------------
   Norm of T1AA vector (      123 symmetry allowed elements):  0.0511390348.
-----------------------------------------------------------------------------
   Largest T2 amplitudes for spin case AB:
       _       _                 _       _                 _       _
   i   j   a   b             i   j   a   b             i   j   a   b
-----------------------------------------------------------------------------
[  5   5  10  10]-0.17325 [  4   4  35  35]-0.11891 [  5   5  26  26]-0.05448
[  5   5  16  10] 0.04714 [  5   5  10  16] 0.04714 [  5   4  35  35]-0.04359
[  4   5  35  35]-0.04359 [  5   5  15  10]-0.04012 [  5   5  10  15]-0.04012
[  5   4  10  10] 0.03740 [  4   5  10  10] 0.03740 [  5   5  12  12]-0.03449
[  4   4  40  35] 0.02596 [  4   4  35  40] 0.02596 [  5   5  37  37]-0.02586
-----------------------------------------------------------------------------
   Norm of T2AB vector (    47574 symmetry allowed elements):  0.4219461246.
-----------------------------------------------------------------------------
       Summary of iterative solution of CC equations 
      -----------------------------------------------------------
                       Correlation           Total
       Iteration         Energy              Energy
      -----------------------------------------------------------
            0        -0.315611085078     -78.798398052459  DIIS 
            1        -0.340388631673     -78.823175599053  DIIS 
            2        -0.350571650107     -78.833358617488  DIIS 
            3        -0.354676458832     -78.837463426213  DIIS 
            4        -0.355958611111     -78.838745578492  DIIS 
            5        -0.356164824064     -78.838951791444  DIIS 
            6        -0.356153568059     -78.838940535440  DIIS 
            7        -0.356138469005     -78.838925436386  DIIS 
            8        -0.356133667061     -78.838920634442  DIIS 
            9        -0.356133799571     -78.838920766951  DIIS 
           10        -0.356134070226     -78.838921037607  DIIS 
           11        -0.356134531995     -78.838921499376  DIIS 
           12        -0.356134754009     -78.838921721390  DIIS 
           13        -0.356134827866     -78.838921795247  DIIS 
           14        -0.356134830601     -78.838921797982  DIIS 
           15        -0.356134828647     -78.838921796028  DIIS 
      -----------------------------------------------------------
      A miracle has come to pass. The CC iterations have converged.
      The reference energy is       -78.48278696738072 a.u.
      The correlation energy is      -0.35613482864701 a.u.
      The total energy is           -78.83892179602773 a.u.
 @CHECKOUT-I, Total execution time (CPU/WALL):        5.30/       0.67 seconds.
--executable xvcc finished with status     0 in        0.69 seconds (walltime).
 --invoking executable--
/home/tsommerfeld/zscale/bin/xlambda
 @GETMEM-I,  Allocated   85830 MB of main memory.
 Hbar is calculated for a CCSD wave function.
 Calculation of Hbar completed.
 @CHECKOUT-I, Total execution time (CPU/WALL):        0.86/       0.12 seconds.
--executable xlambda finished with status     0 in        0.14 seconds (walltime).
 --invoking executable--
/home/tsommerfeld/zscale/bin/xvee
 @GETMEM-I,  Allocated   85830 MB of main memory.
  cc2 and ccprog  F                     0
  EOMEE-CCSD excitation energies will be evaluated.
  @SETMET-I, VPROP property integrals are used.
  @SETMET-I, A total of   3 target states will be studied.
  Summary of active alpha molecular orbitals:
------------------------------------------------------------------------------
Orbital      Sym   Eigenvalue  <xx>     <yy>     <zz>     <xy>     <xz>     <yz>
        SCF
  #  position
------------------------------------------------------------------------------
   1      1    1     -11.0636   0.000    0.000    0.000    0.000    0.000    0.000
   2      3    1      -0.8679   0.000    0.000    0.000    0.000    0.000    0.000
   3      6    1      -0.3966   0.000    0.000    0.000    0.000    0.000    0.000
   4      8    1      -0.2165   0.000    0.000    0.000    0.000    0.000    0.000
   5      9    1      -0.0158   0.000    0.000    0.000    0.000    0.000    0.000
   6      5    2      -0.4897   0.000    0.000    0.000    0.000    0.000    0.000
   7      2    3     -11.0618   0.000    0.000    0.000    0.000    0.000    0.000
   8      4    3      -0.6129   0.000    0.000    0.000    0.000    0.000    0.000
   9      7    4      -0.3476   0.000    0.000    0.000    0.000    0.000    0.000
  10     10    1       0.2800   0.000    0.000    0.000    0.000    0.000    0.000
  11     12    1       0.3704   0.000    0.000    0.000    0.000    0.000    0.000
  12     19    1       0.6345   0.000    0.000    0.000    0.000    0.000    0.000
  13     20    1       0.7311   0.000    0.000    0.000    0.000    0.000    0.000
  14     22    1       0.8564   0.000    0.000    0.000    0.000    0.000    0.000
  15     25    1       1.0366   0.000    0.000    0.000    0.000    0.000    0.000
  16     28    1       1.1195   0.000    0.000    0.000    0.000    0.000    0.000
  17     31    1       1.3819   0.000    0.000    0.000    0.000    0.000    0.000
  18     35    1       1.5187   0.000    0.000    0.000    0.000    0.000    0.000
  19     36    1       1.7694   0.000    0.000    0.000    0.000    0.000    0.000
  20     41    1       2.0796   0.000    0.000    0.000    0.000    0.000    0.000
  21     42    1       2.1007   0.000    0.000    0.000    0.000    0.000    0.000
  22     47    1       2.2910   0.000    0.000    0.000    0.000    0.000    0.000
  23     51    1       2.5919   0.000    0.000    0.000    0.000    0.000    0.000
  24     55    1       2.9591   0.000    0.000    0.000    0.000    0.000    0.000
  25     13    2       0.3743   0.000    0.000    0.000    0.000    0.000    0.000
  26     16    2       0.5620   0.000    0.000    0.000    0.000    0.000    0.000
  27     21    2       0.8364   0.000    0.000    0.000    0.000    0.000    0.000
  28     24    2       1.0291   0.000    0.000    0.000    0.000    0.000    0.000
  29     30    2       1.3087   0.000    0.000    0.000    0.000    0.000    0.000
  30     38    2       1.8750   0.000    0.000    0.000    0.000    0.000    0.000
  31     43    2       2.1365   0.000    0.000    0.000    0.000    0.000    0.000
  32     44    2       2.1679   0.000    0.000    0.000    0.000    0.000    0.000
  33     46    2       2.1987   0.000    0.000    0.000    0.000    0.000    0.000
  34     54    2       2.9565   0.000    0.000    0.000    0.000    0.000    0.000
  35     11    3       0.3382   0.000    0.000    0.000    0.000    0.000    0.000
  36     14    3       0.3909   0.000    0.000    0.000    0.000    0.000    0.000
  37     17    3       0.5823   0.000    0.000    0.000    0.000    0.000    0.000
  38     18    3       0.6170   0.000    0.000    0.000    0.000    0.000    0.000
  39     23    3       0.9590   0.000    0.000    0.000    0.000    0.000    0.000
  40     26    3       1.0379   0.000    0.000    0.000    0.000    0.000    0.000
  41     29    3       1.1352   0.000    0.000    0.000    0.000    0.000    0.000
  42     32    3       1.4487   0.000    0.000    0.000    0.000    0.000    0.000
  43     39    3       2.0112   0.000    0.000    0.000    0.000    0.000    0.000
  44     40    3       2.0527   0.000    0.000    0.000    0.000    0.000    0.000
  45     45    3       2.1724   0.000    0.000    0.000    0.000    0.000    0.000
  46     48    3       2.3416   0.000    0.000    0.000    0.000    0.000    0.000
  47     49    3       2.4457   0.000    0.000    0.000    0.000    0.000    0.000
  48     53    3       2.7022   0.000    0.000    0.000    0.000    0.000    0.000
  49     56    3       3.4147   0.000    0.000    0.000    0.000    0.000    0.000
  50     15    4       0.4457   0.000    0.000    0.000    0.000    0.000    0.000
  51     27    4       1.0999   0.000    0.000    0.000    0.000    0.000    0.000
  52     33    4       1.4543   0.000    0.000    0.000    0.000    0.000    0.000
  53     34    4       1.5107   0.000    0.000    0.000    0.000    0.000    0.000
  54     37    4       1.7775   0.000    0.000    0.000    0.000    0.000    0.000
  55     50    4       2.5835   0.000    0.000    0.000    0.000    0.000    0.000
  56     52    4       2.6528   0.000    0.000    0.000    0.000    0.000    0.000
  57     57    4       3.5059   0.000    0.000    0.000    0.000    0.000    0.000
------------------------------------------------------------------------------
  @DRVTDA-I, Roots obtained by Davidson method.
  calling tda davidson                       6                     2
  after tda davidson                      6                     6
                     3                     3
  kroot is                      3
__________________________________________________________________________
    Tamm-Dancoff (CIS) Excitation Energies and Transition Moments

                Excitation         Transition Dipole         Oscillator
 Root  Symmetry  Energy         x           y           z     Strength
__________________________________________________________________________
   1       2    0.22048      0.0000      0.0000      0.0000  .00000000D+00
__________________________________________________________________________
 
__________________________________________________________________________
  TDA excitation ergy:             0.220475071190 a.u.    5.9994 eV
  Total TDA electronic energy:   -78.262311896191 a.u.
 
  Dominant contributions: 
  SCF eigenvalue ordering used in list below. 
--------------------------------------------------------------------------------
    I    j    A    b
--------------------------------------------------------------------------------
    9    0   13    0  -0.9785070973 AA  
    8    0   13    0  -0.1827797392 AA  
    8    0   24    0  -0.0393972403 AA  
    9    0   21    0   0.0363371616 AA  
    9    0   24    0  -0.0357261054 AA  
    8    0   21    0   0.0305210949 AA  
    9    0   16    0   0.0294748613 AA  
    7    0   11    0   0.0275810784 AA  
    7    0   14    0   0.0227755574 AA  
    6    0   13    0   0.0219324337 AA  
    5    0   12    0   0.0187545372 AA  
    8    0   16    0  -0.0165562020 AA  
    7    0   17    0  -0.0126127967 AA  
    8    0   30    0  -0.0095317574 AA  
    5    0   10    0   0.0085363439 AA  
--------------------------------------------------------------------------------
   2       2    0.34673      0.0000      0.0000      0.0000  .00000000D+00
__________________________________________________________________________
 
__________________________________________________________________________
  TDA excitation ergy:             0.346728542791 a.u.    9.4350 eV
  Total TDA electronic energy:   -78.136058424589 a.u.
 
  Dominant contributions: 
  SCF eigenvalue ordering used in list below. 
--------------------------------------------------------------------------------
    I    j    A    b
--------------------------------------------------------------------------------
    8    0   13    0  -0.8356759756 AA  
    9    0   16    0  -0.5048702286 AA  
    9    0   13    0   0.1486777467 AA  
    8    0   21    0   0.0943293901 AA  
    8    0   24    0  -0.0835399713 AA  
    7    0   11    0   0.0579253506 AA  
    7    0   14    0  -0.0340620088 AA  
    9    0   21    0   0.0295243860 AA  
    5    0   12    0  -0.0274672743 AA  
    6    0   13    0  -0.0268626847 AA  
    8    0   16    0  -0.0223321716 AA  
    9    0   24    0  -0.0214111903 AA  
    7    0   18    0   0.0126519331 AA  
    7    0   23    0  -0.0109446603 AA  
    8    0   30    0   0.0095976399 AA  
--------------------------------------------------------------------------------
   3       2    0.35836      0.0000      0.0000      0.0000  .00000000D+00
__________________________________________________________________________
 
__________________________________________________________________________
  TDA excitation ergy:             0.358356501019 a.u.    9.7514 eV
  Total TDA electronic energy:   -78.124430466362 a.u.
 
  Dominant contributions: 
  SCF eigenvalue ordering used in list below. 
--------------------------------------------------------------------------------
    I    j    A    b
--------------------------------------------------------------------------------
    9    0   16    0   0.6882597101 AA  
    7    0   11    0   0.6128861132 AA  
    8    0   13    0  -0.3485182726 AA  
    9    0   13    0   0.1106108164 AA  
    7    0   14    0   0.0511743107 AA  
    7    0   17    0  -0.0474585882 AA  
    8    0   16    0  -0.0459816661 AA  
    7    0   26    0  -0.0408909116 AA  
    8    0   24    0  -0.0373455409 AA  
    7    0   23    0  -0.0365256183 AA  
    5    0   10    0   0.0304742861 AA  
    5    0   12    0   0.0294848695 AA  
    7    0   18    0   0.0292511467 AA  
    8    0   21    0   0.0239158605 AA  
    6    0   13    0   0.0209773350 AA  
--------------------------------------------------------------------------------
__________________________________________________________________________
  @DOEOMEE-I, Excitation energies computed by the EOMEE-CCSD/CCSD-LR method.
  @DOEOMEE-I, right-hand eigenvectors will be computed.
  Beginning symmetry block   2.   3 roots requested.
  @DOEOMEE-I, Matrix dimension for diagonalization:    45852
  Creating initial guess for root
________________________________________________________________________
            Subspace          Eigenvalue           
 Iteration  Dimension   (a.u.)         (eV)       Overlap      Residual
________________________________________________________________________
  @NEWGES-I, Using TDA initial guess.
  1   1  0.2846590523D+00  0.7745966611D+01  0.0000000000D+00  0.1671741057D+01
  2   2  0.2216741770D+00  0.6032061021D+01  0.9445150413D+00  0.3152154715D+00
  3   3  0.2006376461D+00  0.5459627913D+01  0.9781991709D+00  0.5187004303D-01
  4   4  0.1972165272D+00  0.5366534534D+01  0.9973379402D+00  0.3369672815D-01
  5   5  0.1966554061D+00  0.5351265654D+01  0.9990686099D+00  0.7879003539D-02
  6   6  0.1965857250D+00  0.5349369534D+01  0.9999404108D+00  0.2459482753D-02
  L-O-C-K-I-N-G O-N R-O-O-T 
  7   7  0.1965898156D+00  0.5349480844D+01  0.9999959069D+00  0.8535335843D-03
  8   8  0.1965839407D+00  0.5349320981D+01  0.9999994923D+00  0.5069956871D-03
  9   9  0.1965841463D+00  0.5349326575D+01  0.9999998091D+00  0.1227257005D-03
 10  10  0.1965843109D+00  0.5349331055D+01  0.9999999828D+00  0.8090033206D-04
 11  11  0.1965841188D+00  0.5349325826D+01  0.9999999954D+00  0.2450575176D-04
 12  12  0.1965842369D+00  0.5349329042D+01  0.9999999996D+00  0.7702666206D-05
  Converged eigenvalue:   0.196584236935448       a.u.
   Total EOMEE-CCSD electronic energy      -78.642337559092283 a.u.
  Converged eigenvector 
  SCF eigenvalue ordering used in list below. 
--------------------------------------------------------------------------------
    I    j    A    b
--------------------------------------------------------------------------------
    9    0   13    0   0.6562992505 AA  
    9    9   13   10   0.2019403647 ABAB
    9    9   10   13   0.2019403647 ABAB
    9    9   13   28  -0.0532452687 ABAB
    9    9   28   13  -0.0532452687 ABAB
    9    9   13   25   0.0451888850 ABAB
    9    9   25   13   0.0451888850 ABAB
    9    8   13   10  -0.0416945523 ABAB
    8    9   10   13  -0.0416945523 ABAB
    9    0   24    0   0.0357249772 AA  
    9    9   13   19  -0.0328070510 ABAB
    9    9   19   13  -0.0328070510 ABAB
    8    0   13    0   0.0325480979 AA  
    9    8   15   11  -0.0321071662 ABAB
    8    9   11   15  -0.0321071662 ABAB
--------------------------------------------------------------------------------
  Converged eigenvector, normalized to one 
  SCF eigenvalue ordering used in list below. 
--------------------------------------------------------------------------------
    I    j    A    b
--------------------------------------------------------------------------------
    9    0   13    0   0.6562992505 AA  
    9    9   13   10   0.2019403647 ABAB
    9    9   10   13   0.2019403647 ABAB
    9    9   13   28  -0.0532452687 ABAB
    9    9   28   13  -0.0532452687 ABAB
    9    9   13   25   0.0451888850 ABAB
    9    9   25   13   0.0451888850 ABAB
    9    8   13   10  -0.0416945523 ABAB
    8    9   10   13  -0.0416945523 ABAB
    9    0   24    0   0.0357249772 AA  
    9    9   13   19  -0.0328070510 ABAB
    9    9   19   13  -0.0328070510 ABAB
    8    0   13    0   0.0325480979 AA  
    9    8   15   11  -0.0321071662 ABAB
    8    9   11   15  -0.0321071662 ABAB
--------------------------------------------------------------------------------

  Eigenvector is saved on CCRE_2_1  

  Adding new vector to expansion space.
  Guess for next eigenvalue   0.346728542791246     
 13  13  0.3466799629D+00  0.9433641387D+01  0.6506339973D+00  0.2834295904D+00
 14  14  0.3400538821D+00  0.9253336561D+01  0.9879235706D+00  0.9971854494D-01
 15  15  0.3390374852D+00  0.9225678996D+01  0.9964730835D+00  0.2034294407D-01
 16  16  0.3387927595D+00  0.9219019671D+01  0.9991014470D+00  0.1012928034D-01
 17  17  0.3387511451D+00  0.9217887287D+01  0.9995742405D+00  0.4568624184D-02
  L-O-C-K-I-N-G O-N R-O-O-T 
 18  18  0.3387440600D+00  0.9217694491D+01  0.9998448012D+00  0.2572849700D-02
 19  19  0.3387406933D+00  0.9217602879D+01  0.9999881274D+00  0.1103304248D-02
 20  20  0.3387411490D+00  0.9217615279D+01  0.9999984129D+00  0.4620162903D-03
 21  21  0.3387408677D+00  0.9217607625D+01  0.9999996529D+00  0.1632386259D-03
 22  22  0.3387404660D+00  0.9217596694D+01  0.9999999514D+00  0.5840818723D-04
 23  23  0.3387405176D+00  0.9217598097D+01  0.9999999961D+00  0.1740444923D-04
 24  24  0.3387405072D+00  0.9217597815D+01  0.9999999997D+00  0.6629158641D-05
  Converged eigenvalue:   0.338740507235537       a.u.
   Total EOMEE-CCSD electronic energy      -78.500181288792191 a.u.
  Converged eigenvector 
  SCF eigenvalue ordering used in list below. 
--------------------------------------------------------------------------------
    I    j    A    b
--------------------------------------------------------------------------------
    8    0   13    0   0.4940933931 AA  
    7    0   11    0  -0.4481645337 AA  
    9    9   13   10  -0.1002003850 ABAB
    9    9   10   13  -0.1002003850 ABAB
    5    8   11   11  -0.0591846020 ABAB
    8    5   11   11  -0.0591846020 ABAB
    8    0   24    0   0.0517058582 AA  
    8    0   21    0  -0.0498961214 AA  
    7    0   23    0   0.0368200987 AA  
    8    8   15   11  -0.0363110684 ABAB
    8    8   11   15  -0.0363110684 ABAB
    7    0   26    0   0.0362577324 AA  
    9    8   10   13   0.0322101216 ABAB
    8    9   13   10   0.0322101216 ABAB
    8    0   16    0   0.0282318139 AA  
--------------------------------------------------------------------------------
  Converged eigenvector, normalized to one 
  SCF eigenvalue ordering used in list below. 
--------------------------------------------------------------------------------
    I    j    A    b
--------------------------------------------------------------------------------
    8    0   13    0   0.4940933931 AA  
    7    0   11    0  -0.4481645337 AA  
    9    9   13   10  -0.1002003850 ABAB
    9    9   10   13  -0.1002003850 ABAB
    5    8   11   11  -0.0591846020 ABAB
    8    5   11   11  -0.0591846020 ABAB
    8    0   24    0   0.0517058582 AA  
    8    0   21    0  -0.0498961214 AA  
    7    0   23    0   0.0368200987 AA  
    8    8   15   11  -0.0363110684 ABAB
    8    8   11   15  -0.0363110684 ABAB
    7    0   26    0   0.0362577324 AA  
    9    8   10   13   0.0322101216 ABAB
    8    9   13   10   0.0322101216 ABAB
    8    0   16    0   0.0282318139 AA  
--------------------------------------------------------------------------------

  Eigenvector is saved on CCRE_2_2  

  Adding new vector to expansion space.
  Guess for next eigenvalue   0.358356501018975     
 25  25  0.3502044267D+00  0.9529546924D+01  0.3393768801D+00  0.8722182147D-01
 26  26  0.3489829413D+00  0.9496308615D+01  0.9964203092D+00  0.2085256229D-01
 27  27  0.3486974081D+00  0.9488538862D+01  0.9996802092D+00  0.7762043170D-02
 28  28  0.3486556471D+00  0.9487402487D+01  0.9999658737D+00  0.2812605950D-02
  L-O-C-K-I-N-G O-N R-O-O-T 
 29  29  0.3486512972D+00  0.9487284122D+01  0.9999955994D+00  0.9209428037D-03
 30  30  0.3486520529D+00  0.9487304684D+01  0.9999993564D+00  0.3713102689D-03
 The phase angle is:  -0.543533532626524     
 Cr.Cr.  9.681675626384766E-003
 Ci.Ci.  0.990318324373615     
 31  31  0.3486517404D+00  0.9487296181D+01  0.9999998608D+00  0.1535214837D-03
 32  32  0.3486518023D+00  0.9487297864D+01  0.9999999826D+00  0.6066114737D-04
 33  33  0.3486518546D+00  0.9487299288D+01  0.9999999970D+00  0.2310087894D-04
 34  34  0.3486518480D+00  0.9487299110D+01  0.9999999994D+00  0.9384728611D-05
  Converged eigenvalue:   0.348651848021348       a.u.
   Total EOMEE-CCSD electronic energy      -78.490269948006386 a.u.
  Converged eigenvector 
  SCF eigenvalue ordering used in list below. 
--------------------------------------------------------------------------------
    I    j    A    b
--------------------------------------------------------------------------------
    7    0   11    0  -0.4870606683 AA  
    8    0   13    0  -0.4194034957 AA  
    9    0   16    0  -0.1944449712 AA  
    9    9   13   10   0.0802560298 ABAB
    9    9   10   13   0.0802560298 ABAB
    5    8   11   11  -0.0601113439 ABAB
    8    5   11   11  -0.0601113439 ABAB
    9    9   16   10  -0.0596155340 ABAB
    9    9   10   16  -0.0596155340 ABAB
    8    0   24    0  -0.0426021295 AA  
    7    0   26    0   0.0367370313 AA  
    7    0   23    0   0.0350113667 AA  
    7    0   17    0   0.0316503587 AA  
    8    0   21    0   0.0305980626 AA  
    9    8   10   13  -0.0276241180 ABAB
--------------------------------------------------------------------------------
  Converged eigenvector, normalized to one 
  SCF eigenvalue ordering used in list below. 
--------------------------------------------------------------------------------
    I    j    A    b
--------------------------------------------------------------------------------
    7    0   11    0  -0.4870606683 AA  
    8    0   13    0  -0.4194034957 AA  
    9    0   16    0  -0.1944449712 AA  
    9    9   13   10   0.0802560298 ABAB
    9    9   10   13   0.0802560298 ABAB
    5    8   11   11  -0.0601113439 ABAB
    8    5   11   11  -0.0601113439 ABAB
    9    9   16   10  -0.0596155340 ABAB
    9    9   10   16  -0.0596155340 ABAB
    8    0   24    0  -0.0426021295 AA  
    7    0   26    0   0.0367370313 AA  
    7    0   23    0   0.0350113667 AA  
    7    0   17    0   0.0316503587 AA  
    8    0   21    0   0.0305980626 AA  
    9    8   10   13  -0.0276241180 ABAB
--------------------------------------------------------------------------------

  Eigenvector is saved on CCRE_2_3  

  Solution of   3 roots required   34 iterations.
 @CHECKOUT-I, Total execution time (CPU/WALL):       19.48/       2.44 seconds.
--executable xvee finished with status     0 in        2.46 seconds (walltime).
  The final electronic energy is       -78.490269948006386 a.u. 
  This computation required                            4.10 seconds (walltime).
