CFour on node02
 --invoking executable--
/home/tsommerfeld/zscale/bin/xjoda


   *************************************************************************
         <<<     CCCCCC     CCCCCC   |||     CCCCCC     CCCCCC   >>>
       <<<      CCC        CCC       |||    CCC        CCC         >>>
      <<<      CCC        CCC        |||   CCC        CCC            >>>
    <<<        CCC        CCC        |||   CCC        CCC              >>>
      <<<      CCC        CCC        |||   CCC        CCC            >>>
       <<<      CCC        CCC       |||    CCC        CCC         >>>
         <<<     CCCCCC     CCCCCC   |||     CCCCCC     CCCCCC   >>>
   *************************************************************************

     ****************************************************************
     * CFOUR Coupled-Cluster techniques for Computational Chemistry *
     ****************************************************************
 

   Department of Chemistry                Institut fuer Physikalische Chemie
   University of Florida                  Universitaet Mainz
   Gainesville, FL 32611, USA             D-55099 Mainz, Germany

   Department of Chemistry                Department of Chemistry
   Johns Hopkins University               Southern Methodist University
   Baltimore, MD 21218, USA               Dallas, TX 75275, USA

   Institute of Nanotechnology            Department of Physical Chemistry
   Karlsruhe Inst. of Technology          Eotvos Lorand University
   D-76021 Karlsruhe, Germany             H-1053 Budapest, Hungary

 
                       Version 2.1
 
                     node02                                            
                     Tue Mar 29 16:02:25 CST 2022                      
                     integer*8 version is running
 
********************************************************************************
*                          Input from ZMAT file                                *
********************************************************************************
h_ethylene                                                                      
C       0.000000      0.0   -0.664500                                           
C       0.000000      0.0    0.664500                                           
H       0.962348      0.0   -1.159080                                           
H       0.962348      0.0    1.159080                                           
H      -0.962348      0.0   -1.159080                                           
H      -0.962348      0.0    1.159080                                           
H      0.000000      1.0      0.000000                                          
                                                                                
*CFOUR(CALC=CCSD                                                                
EXCITE=EOMEE                                                                    
ESTATE_SYM=0/3/0/0                                                              
CC_PROG=VCC                                                                     
CHARGE=-1                                                                       
COORDINATES=CARTESIAN                                                           
BASIS=SPECIAL                                                                   
REFERENCE=RHF                                                                   
MEM_SIZE=90,MEM_UNIT=GB)                                                        
                                                                                
C:CC-PVDZ                                                                       
C:CC-PVDZ                                                                       
H:CC-PVDZ                                                                       
H:CC-PVDZ                                                                       
H:CC-PVDZ                                                                       
H:CC-PVDZ                                                                       
H:AUG-CC-PVDZ                                                                   
                                                                                
********************************************************************************
    -------------------------------------------------------------------
                    CFOUR Control Parameters 
    -------------------------------------------------------------------
        External           Internal           Value            Units
          Name               Name
    -------------------------------------------------------------------
       ABCDTYPE             IABCDT         STANDARD    [  0]    ***   
       ANHARMONIC           IANHAR         OFF         [  0]    ***   
       ANH_ALGORIT          IANALG         STANDARD    [  0]    ***   
       ANH_DERIVAT          IANDER         SECOND      [  1]    ***   
       ANH_MODE             ANHMOD         VIBRATION   [  0]    ***   
       ANH_STEPSIZ          ICUBST             50000          x 10-6  
       ANH_SYMMETR          IANHSM         ABELIAN     [  0]    ***   
       AO_LADDERS           IAOLAD         SINGLEPASS  [  1]    ***   
       AV_SCF               IAVSCF         OFF         [  0]    ***   
       BASIS                IBASIS         SPECIAL     [  0]    ***   
       BOTHVECTORS          BOTHVC         OFF         [  0]    ***   
       BOX_POTENT           IPIAB          OFF         [  0]    ***   
       BREIT                IBREIT         OFF         [  0]    ***   
       BRUCK_CONV           IBRTOL          10D-  4             ***   
       BRUECKNER            IBRKNR         OFF         [  0]    ***   
       BUFFERSIZE           IBUFFS              4096            ***   
       CACHE_RECS           ICHREC             10               ***   
       CALCLEVEL            ICLLVL         CCSD        [ 10]    ***   
       CCORBOPT             ICCORB         OFF         [  0]  x 0.01  
       CC_CONV              ICCCNV          10D-  7             ***   
       CC_EXPORDER          ICCEOR              5               ***   
       CC_EXTRAPOL          ICCEXT         DIIS        [  1]    ***   
       CC_GUESS             ICCGES         MP2         [  0]    ***   
       CC_MAXCYC            ICCCYC            100              cycles 
       CC_PROGRAM           ICCPRO         VCC         [  0]    ***   
       CHARGE               ICHRGE             -1               ***   
       CHOLESKY             ICHOLE         OFF         [  0]    ***   
       CIS_CONV             ICISTL              5               ***   
       COMM_SIZE            IPSIZE            ***               ***   
       CONSTANT             ICONST         OLD         [  1]    ***   
       CONTINUUM            ICONTU         NONE        [  0]    ***   
       CONTRACTION          ICNTYP         GENERAL     [  1]    ***   
       COORDINATES          ICOORD         CARTESIAN   [  1]    ***   
       CPHF_CONVER          ICPHFT          10D- 16             ***   
       CPHF_MAXCYC          ICPHFC             64              cycles 
       CUBIC                ICUBIC         OFF         [  0]    ***   
       CURVILINEAR          ICURVY         OFF         [  0]    ***   
       DBOC                 IDBOC          OFF         [  0]    ***   
       DCT                  IDCT           OFF         [  0]    ***   
       DERIV_LEV            IDRLVL         ZERO        [  0]    ***   
       DEVMEM_SIZE          IDVMEM         *********           MByte  
       DIAG_MRCC            IEOMST          10D-  0             ***   
       DIFF_TYPE            IDIFTY         RELAXED     [  0]    ***   
       DIRECT               IDIRCT         OFF         [  0]    ***   
       DROPMO               IDRPMO      NONE         
       ECP                  IECP           OFF         [  0]    ***   
       EIGENVECTOR          IVEC                1               ***   
       EL_ANHARM            IELANH         OFF         [  0]    ***   
       EOMFOLLOW            IEOMSR         ENERGY      [  0]    ***   
       EOMIP                IEOMIP         OFF         [  0]    ***   
       EOMLEVEL             HBARFM         SAME        [  0]    ***   
       EOM_MRCC             IMRCCE         NEW         [  1]    ***   
       EOM_NONIT            EOMNON         OFF         [  0]    ***   
       EOM_NSING            IEOMSI          10D-  0             ***   
       EOM_NSTATES          IMRCCD         DAVIDSON    [  0]    ***   
       EOM_NTRIP            IEOMTR          10D-  0             ***   
       EOM_ORDER            IEXORD         ENERGY      [  0]    ***   
       EOM_PROPSTA          IEOMST              0               ***   
       ESTATE_CONV          IEXTOL          10D-  5             ***   
       ESTATE_DIAG          IEXDIG         ITERATIVE   [  0]    ***   
       ESTATE_LOCK          IESLOC         ON          [  1]    ***   
       ESTATE_MAXC          IEXMXC             40               ***   
       ESTATE_PROP          IEXPRP         OFF         [  0]    ***   
       ESTATE_SYM           IEXSYM   0,  3,  0,  0,
       EVAL_HESS            IRECAL              0            # of cyc.
       EXCITATION           IEXCIT              0               ***   
       EXCITE               IEXCIT         EOMEE       [  3]    ***   
       EXTERN_POT           IEXPOT         OFF         [  0]    ***   
       FCGRADNEW            IFCGNW         OFF         [  0]    ***   
       FC_FIELD             IFINFC              0             x 10-6  
       FD_CALTYPE           IFDCAL         GRADONLY    [  0]    ***   
       FD_PROJECT           IFDPRJ         OFF         [  1]    ***   
       FD_STEPSIZE          IDISFD              0            10-4 bohr
       FD_USEGROUP          IFDGRP         FULL        [  0]    ***   
       FILE_RECSIZ          IFLREC              4096           words  
       FINITE_PERT          IFIPER              0             x 10-6  
       FIXGEOM              IFIXGM         OFF         [  0]    ***   
       FOCK                 IFOCK          AO          [  1]    ***   
       FREQ_ALGORI          IVIALG         STANDARD    [  0]    ***   
       FROZEN_CORE          IFROCO         OFF         [  0]    ***   
       GAMMA_ABCD           IGABCD         STORE       [  0]    ***   
       GAMMA_ABCI           IGABCI         STORE       [  0]    ***   
       GENBAS_1             IGNBS1              0               ***   
       GENBAS_2             IGNBS2              0               ***   
       GENBAS_3             IGNBS3              0               ***   
       GENBAS_4             IGNBS4              0               ***   
       GEO_CONV             ICONTL              5              H/bohr 
       GEO_MAXCYC           IOPTCY             50               ***   
       GEO_MAXSTEP          IMXSTP            300            millibohr
       GEO_METHOD           INR            SINGLE_POINT[  5]    ***   
       GIAO                 IGIAO          OFF         [  1]    ***   
       GIMIC                IGIMIC         OFF         [  0]    ***   
       GRID                 IGRID          OFF         [  0]    ***   
       GRID_ALGO            IGALGO         SERIAL      [  0]    ***   
       GUESS                IGUESS         MOREAD      [  0]    ***   
       HBAR                 IHBAR          ON          [  1]    ***   
       HESS_TYPE            IHESTP         SCF         [  0]    ***   
       HF2_FILE             IHF2Fl         USE         [  1]    ***   
       HFSTABILITY          ISTABL         OFF         [  0]    ***   
       INCORE               INCORE         OFF         [  0]    ***   
       INPUT_MRCC           IMRCC          ON          [  1]    ***   
       INTEGRALS            INTTYP         VMOL        [  1]    ***   
       JODA_PRINT           IJPRNT              0               ***   
       KEYWORD_OUT          IDMPKW         NO          [  0]    ***   
       LINDEP_TOL           ILINDP              8               ***   
       LINEQ_CONV           IZTACN          10D-  7           cycles  
       LINEQ_EXPOR          ILMAXD              5               ***   
       LINEQ_MAXCY          ILMAXC            100               ***   
       LINEQ_TYPE           ILTYPE         DIIS        [  1]    ***   
       LOCK_ORBOCC          ILOCOC         OFF         [  0]    ***   
       MEMORY_SIZE          IMEMSZ         *********           words  
       MEM_UNIT             IMEMU          GB          [  3]    ***   
       MRCC                 IMRCCC         OFF         [  0]    ***   
       MULTIPLICTY          IMULTP              1               ***   
       NACOUPLING           IVCOUP         OFF         [  0]    ***   
       NEGEVAL              IDIE           ABORT       [  0]    ***   
       NEWNORM              INEWNO         OFF         [  0]    ***   
       NON-HF               INONHF         OFF         [  0]    ***   
       NTOP_TAMP            ITOPT2             15               ***   
       NUC_MODEL            INUCMO         POINT       [  0]    ***   
       OCCUPATION           IOCCU   ESTIMATED BY SCF 
       OPEN-SHELL           IOPEN          SPIN-ORBITAL[  0]    ***   
       OPTVIB               IOPTVB         OFF         [  0]    ***   
       ORBITALS             IORBTP         STANDARD    [  0]    ***   
       PARALLEL             IPARAL         ON          [  1]    ***   
       PARA_INT             IPINTS         ON          [  1]    ***   
       PARA_PRINT           IPPRIN              0               ***   
       PERT_ORB             IPTORB         STANDARD    [  0]    ***   
       POINTS               IGRDFD              0               ***   
       PRINT                IPRNT               0               ***   
       PROPS                IPROPS         OFF         [  0]    ***   
       PROP_INTEGR          IINTYP         INTERNAL    [  0]    ***   
       PSI                  IPSI           OFF         [  0]    ***   
       QC_ALG               IQCALG         FLM         [  0]    ***   
       QC_LINALG            IQCLIN         TRIDIAG     [  2]    ***   
       QC_MAXCYC            IQCMAX          10D-100           cycles  
       QC_MAXSCFCY          IQCMSC          10D- 15           cycles  
       QC_RTRUST            IQCRTR          10D-  0           x 10-3  
       QC_SKIPSCF           IQCSKI         OFF         [  0]    ***   
       QC_START             IQCSTA          10D-  1             ***   
       QRHFGUESS            IQGUES         OFF         [  0]    ***   
       QUARTIC              IQUART         OFF         [  0]    ***   
       RAMAN_INT            IRAMIN         OFF         [  0]    ***   
       RAMAN_ORB            IRAMRE         UNRELAXED   [  0]    ***   
       RDO                  IRDOFM         OFF         [  0]    ***   
       REDUCE_REPR          REDREP         Ir          [  0]    ***   
       REFERENCE            IREFNC         RHF         [  0]    ***   
       RELATIVIST           IRELAT         OFF         [  0]    ***   
       RELAX_DENS           IRDENS         OFF         [  0]    ***   
       RESET_FLAGS          IRESET         OFF         [  0]    ***   
       RESTART_CC           ICCRES         OFF         [  0]    ***   
       ROT_EVEC             ROTVEC              0               ***   
       SAVE_INTS            ISVINT         OFF         [  0]    ***   
       SCALE_ON             ISTCRT              0               ***   
       SCF_CONV             ISCFCV          10D-  7             ***   
       SCF_DAMPING          IDAMP               0             x 10-3  
       SCF_EXPORDE          IRPPOR              6               ***   
       SCF_EXPSTAR          IRPPLS              8               ***   
       SCF_EXTRAPO          IRPP           ON          [  1]    ***   
       SCF_MAXCYC           ISCFCY            150              cycles 
       SCF_NOSTOP           ISCFST         OFF         [  0]    ***   
       SCF_PRINT            ISCFPR              0               ***   
       SCF_PROG             ISCFPR         SCF         [  0]    ***   
       SD_FIELD             IFINSD              0             x 10-6  
       SOPERT               IPERSO         OFF         [  0]    ***   
       SPHERICAL            IDFGHI         ON          [  1]    ***   
       SPINORBIT            ISOCAL         OFF         [  0]    ***   
       SPINROTATIO          ISRCON         OFF         [  0]    ***   
       SPIN_FLIP            ISPFLP         OFF         [  0]    ***   
       SPIN_ORBIT           ISPORB         OFF         [  0]    ***   
       SPIN_SCAL            ISCSMP         OFF         [  0]    ***   
       STEEPSCALE           ISTPSC              1000          x 10-3  
       SUBGROUP             ISUBGP         DEFAULT     [  0]    ***   
       SUBGRPAXIS           ISBXYZ         X           [  0]    ***   
       SYMMETRY             ISYM           ON          [  0]    ***   
       SYM_CHECK            ISYMCK         OVERRIDE    [  1]    ***   
       T3_EXTRAPOL          IT3EXT         OFF         [  0]    ***   
       T4_EXTRAPOL          IT4EXP         OFF         [  0]    ***   
       TAMP_SUM             IEVERY              5               ***   
       TESTSUITE            ITESTS         OFF         [  0]    ***   
       THERMOCH             ITHERM         OFF         [  0]    ***   
       TOL_CHOLESK          ITOLCH          10D-  4             ***   
       TRANGRAD             IRESRM         OFF         [  0]    ***   
       TRANS_INV            ITRAIN         USE         [  0]    ***   
       TREAT_PERT           ITREAT         SIMULTANEOUS[  0]    ***   
       TRIP_ALGORI          ITRALG         NORMAL      [  0]    ***   
       UIJ_THRESHO          IUIJTH              1               ***   
       UNITS                IUNITS         ANGSTROM    [  0]    ***   
       UNOS                 IUNOS          OFF         [  0]    ***   
       UPDATE_HESS          IHUPDT         ON          [  1]    ***   
       VIBPHASE             ISETPH         STANDARD    [  0]    ***   
       VIBRATION            IVIB           NO          [  0]    ***   
       VIB_ALGORIT          IGEALG         STANDARD    [  0]    ***   
       VNATORB              IVNORB         OFF         [  0]    ***   
       VTRAN                IVTRAN         FULL/PARTIAL[  0]    ***   
       XFIELD               IXEFLD              0             x 10-6  
       XFORM_TOL            IXFTOL          10D- 11             ***   
       YFIELD               IYEFLD              0             x 10-6  
       ZFIELD               IZEFLD              0             x 10-6  
       ZSCALE_EXP           IZEXPS         OFF         [  0]    ***   
    -------------------------------------------------------------------
  @GETXYZ-I,     7 atoms read from ZMAT.
   Rotational constants (in cm-1): 
          0.8536890782             0.9924304064             3.5819364943
   Rotational constants (in MHz): 
      25592.9582983935         29752.3192611417        107383.7696454702
********************************************************************************
   The full molecular point group is C2v .
   The largest Abelian subgroup of the full molecular point group is C2v .
   The computational point group is C2v .
********************************************************************************


 ----------------------------------------------------------------
         Coordinates used in calculation (QCOMP) 
 ----------------------------------------------------------------
 Z-matrix   Atomic            Coordinates (in bohr)
  Symbol    Number           X              Y              Z
 ----------------------------------------------------------------
     C         6        -1.25572327     0.00000000    -0.06558440
     C         6         1.25572327     0.00000000    -0.06558440
     H         1        -2.19034422     1.81857454    -0.06558440
     H         1         2.19034422     1.81857454    -0.06558440
     H         1        -2.19034422    -1.81857454    -0.06558440
     H         1         2.19034422    -1.81857454    -0.06558440
     H         1         0.00000000     0.00000000     1.82414212
 ----------------------------------------------------------------
 
   Interatomic distance matrix (Angstroms) 
 
                 C             C             H             H             H    
                [ 1]        [ 2]        [ 3]        [ 4]        [ 5]
  C    [ 1]     0.00000
  C    [ 2]     1.32900     0.00000
  H    [ 3]     1.08200     2.06193     0.00000
  H    [ 4]     2.06193     1.08200     2.31816     0.00000
  H    [ 5]     1.08200     2.06193     1.92470     3.01303     0.00000
  H    [ 6]     2.06193     1.08200     3.01303     1.92470     2.31816
  H    [ 7]     1.20065     1.20065     1.80820     1.80820     1.80820
 
                 H             H    
                [ 6]        [ 7]
  H    [ 6]     0.00000
  H    [ 7]     1.80820     0.00000
 rotcon2
   Rotational constants (in cm-1): 
          3.5819364943             0.9924304064             0.8536890782
   Rotational constants (in MHz): 
     107383.7696454702         29752.3192611417         25592.9582983935
  ECPDATA file not present.   Using default ECPDATA. 
  There are   57 basis functions.
 @GEOPT-W, Archive file not created for single-point calculation.
 @CHECKOUT-I, Total execution time (CPU/WALL):        0.14/       0.16 seconds.
--executable xjoda finished with status     0 in        0.18 seconds (walltime).
 --invoking executable--
/home/tsommerfeld/zscale/bin/xvmol
 SERIAL VERSION OF MOLECULE STARTED
********************************************************************************
                    INPUT FROM MOL FILE
********************************************************************************
INTGRL        1    0    1    0    0    0    0    0    0                         
         *** CFOUR Program System (Release V0.1) ***                            
h_ethylene                                                                      
    3    2 X  Y       0.10E-08              0    0                              
   9999.00      3.00                                                            
          6.00000000    1    3    1    1    1                                   
C #1  -1.255723272983657   0.000000000000000  -0.065584403295727                
    9    3                                                                      
   6665.00000000000       6.920000000000000E-004 -1.460000000000000E-004        
  0.000000000000000E+000                                                        
   1000.00000000000       5.329000000000000E-003 -1.154000000000000E-003        
  0.000000000000000E+000                                                        
   228.000000000000       2.707700000000000E-002 -5.725000000000000E-003        
  0.000000000000000E+000                                                        
   64.7100000000000       0.101718000000000      -2.331200000000000E-002        
  0.000000000000000E+000                                                        
   21.0600000000000       0.274740000000000      -6.395500000000000E-002        
  0.000000000000000E+000                                                        
   7.49500000000000       0.448564000000000      -0.149981000000000             
  0.000000000000000E+000                                                        
   2.79700000000000       0.285074000000000      -0.127262000000000             
  0.000000000000000E+000                                                        
  0.521500000000000       1.520400000000000E-002  0.544529000000000             
  0.000000000000000E+000                                                        
  0.159600000000000      -3.191000000000000E-003  0.580496000000000             
   1.00000000000000                                                             
    4    2                                                                      
   9.43900000000000       3.810900000000000E-002  0.000000000000000E+000        
   2.00200000000000       0.209480000000000       0.000000000000000E+000        
  0.545600000000000       0.508557000000000       0.000000000000000E+000        
  0.151700000000000       0.468842000000000        1.00000000000000             
    1    1                                                                      
  0.550000000000000        1.00000000000000                                     
          1.00000000    1    2    1    1                                        
H #2  -2.190344215575466   1.818574537711477  -0.065584403295727                
    4    2                                                                      
   13.0100000000000       1.968500000000000E-002  0.000000000000000E+000        
   1.96200000000000       0.137977000000000       0.000000000000000E+000        
  0.444600000000000       0.478148000000000       0.000000000000000E+000        
  0.122000000000000       0.501240000000000        1.00000000000000             
    1    1                                                                      
  0.727000000000000        1.00000000000000                                     
          1.00000000    1    2    1    1                                        
H #3   0.000000000000000   0.000000000000000   1.824142117371928                
    5    3                                                                      
   13.0100000000000       1.968500000000000E-002  0.000000000000000E+000        
  0.000000000000000E+000                                                        
   1.96200000000000       0.137977000000000       0.000000000000000E+000        
  0.000000000000000E+000                                                        
  0.444600000000000       0.478148000000000       0.000000000000000E+000        
  0.000000000000000E+000                                                        
  0.122000000000000       0.501240000000000        1.00000000000000             
  0.000000000000000E+000                                                        
  2.974000000000000E-002  0.000000000000000E+000  0.000000000000000E+000        
   1.00000000000000                                                             
    2    2                                                                      
  0.727000000000000        1.00000000000000       0.000000000000000E+000        
  0.141000000000000       0.000000000000000E+000   1.00000000000000             
FINISH                                                                          
 
********************************************************************************
 ONE- AND TWO-ELECTRON INTEGRALS OVER SYMMETRY-ADAPTED AOS ARE CALCULATED.

  SPHERICAL HARMONICS ARE USED.
  
  INTEGRALS LESS THAN  0.10E-13 ARE NEGLECTED.

  NUCLEAR REPULSION ENERGY :   40.0487395849 A.U.
  @MOLECU-I, ONE ELECTRON INTEGRALS (CPU/WALL):        0.01/       0.01 SECONDS.
  @TWOEL-I,      29572 INTEGRALS OF SYMMETRY TYPE  I I I I
  @TWOEL-I,     102291 INTEGRALS OF SYMMETRY TYPE  I J I J
  @TWOEL-I,      58089 INTEGRALS OF SYMMETRY TYPE  I I J J
  @TWOEL-I,      75480 INTEGRALS OF SYMMETRY TYPE  I J K L
  @TWOEL-I, TOTAL NUMBER OF 2-E INTEGRALS     265432.
  @MOLECU-I, TWO ELECTRON INTEGRALS (CPU/WALL):        0.22/       0.23 SECONDS.
 @CHECKOUT-I, Total execution time (CPU/WALL):        0.24/       0.25 seconds.

Running with 8 threads/proc

--executable xvmol finished with status     0 in        0.27 seconds (walltime).
 --invoking executable--
/home/tsommerfeld/zscale/bin/xvmol2ja
 @GETMEM-I,  Allocated   85830 MB of main memory.
 @CHECKOUT-I, Total execution time (CPU/WALL):        0.02/       0.01 seconds.
--executable xvmol2ja finished with status     0 in        0.03 seconds (walltime).
 --invoking executable--
/home/tsommerfeld/zscale/bin/xvscf
  There are   57 functions in the AO basis.

  There are 4 irreducible representations.

       Irrep        # of functions
         1                 20
         2                 17
         3                 11
         4                  9


  Parameters for SCF calculation: 
        SCF reference function:  RHF  
  Maximum number of iterations:  150
     Full symmetry point group: C2v 
     Computational point group: C2v 
        Initial density matrix: MOREAD                 
     SCF convergence tolerance: 10**(- 7)
  DIIS convergence acceleration:  ON
          Latest start for DIIS:   8
                     DIIS order:   6

  Memory information:     156410 words required.
  Fock matrices are constructed from AO integral file.
 @GETMEM-I,  Allocated       1 MB of main memory.
  Initialization and symmetry analysis required      0.002 seconds.

  @INITGES-I, Occupancies from core Hamiltonian:

          Alpha population by irrep:   3    4    1    1
           Beta population by irrep:   3    4    1    1


 total no. of electrons in initial guess :  0.000000000000000E+000
  --------------------------------------------------------------------
  Iteration         Total Energy            Largest Density Difference
  --------------------------------------------------------------------
       0            40.048739584897213              0.0000000000D+00
   current occupation vector 
     3  4  1  1
     3  4  1  1
       1           -61.635341552874202              0.9140238178D+01
   current occupation vector 
     3  4  1  1
     3  4  1  1
       2           -65.387231308510053              0.8995574741D+01
   current occupation vector 
     4  3  1  1
     4  3  1  1
       3           -72.081382147810018              0.8025412878D+01
   current occupation vector 
     4  3  1  1
     4  3  1  1
       4           -71.307292563240452              0.6855544368D+01
   current occupation vector 
     4  3  1  1
     4  3  1  1
       5           -74.282063383826483              0.6855699279D+01
   current occupation vector 
     4  3  1  1
     4  3  1  1
       6           -73.240890542513910              0.7741377392D+01
   current occupation vector 
     4  3  1  1
     4  3  1  1
       7           -75.173491982420046              0.7962942516D+01
   current occupation vector 
     4  3  1  1
     4  3  1  1
       8           -73.960181675127103              0.7727754309D+01
   current occupation vector 
     4  3  1  1
     4  3  1  1
       9           -78.213381629459974              0.7968349808D+01
   current occupation vector 
     4  3  1  1
     4  3  1  1
      10           -78.319115122246018              0.2774216574D+00
   current occupation vector 
     4  3  1  1
     4  3  1  1
      11           -78.322071733156008              0.1190645998D+00
   current occupation vector 
     4  3  1  1
     4  3  1  1
      12           -78.322752754568114              0.6017111048D-01
   current occupation vector 
     4  3  1  1
     4  3  1  1
      13           -78.323095600310751              0.5549263145D-01
   current occupation vector 
     4  3  1  1
     4  3  1  1
      14           -78.323153894020351              0.2339512475D-01
   current occupation vector 
     4  3  1  1
     4  3  1  1
      15           -78.323155559347441              0.2206699506D-02
   current occupation vector 
     4  3  1  1
     4  3  1  1
      16           -78.323155579058948              0.2385824719D-03
   current occupation vector 
     4  3  1  1
     4  3  1  1
      17           -78.323155580372770              0.8835894331D-04
   current occupation vector 
     4  3  1  1
     4  3  1  1
      18           -78.323155580419296              0.1596750836D-04
   current occupation vector 
     4  3  1  1
     4  3  1  1
      19           -78.323155580422679              0.3197629611D-05
   current occupation vector 
     4  3  1  1
     4  3  1  1
      20           -78.323155580422963              0.9443699887D-06
   current occupation vector 
     4  3  1  1
     4  3  1  1
      21           -78.323155580423190              0.1743936826D-06
   current occupation vector 
     4  3  1  1
     4  3  1  1

  SCF has converged.

 Density matrix saved to file den.dat
 total electron number:   18.0000000000000     
     E(SCF)=       -78.323155580423048              0.3298295065D-07


  Final occupancies:

     Alpha population by irrep:   4    3    1    1
      Beta population by irrep:   4    3    1    1


  Eigenvector printing suppressed.

 @PUTMOS-I, Writing converged MOs to NEWMOS. 
 @PUTMOS-I, Symmetry   1 Full Blocks  5 Partial Blocksize   0
 @PUTMOS-I, Symmetry   2 Full Blocks  4 Partial Blocksize   1
 @PUTMOS-I, Symmetry   3 Full Blocks  2 Partial Blocksize   3
 @PUTMOS-I, Symmetry   4 Full Blocks  2 Partial Blocksize   1
 @PUTFOCK-I, Writing converged Fock matrix to NEWFOCK. 
 @PUTFOCK-I, Symmetry   1 Full Blocks  5 Partial Blocksize   0
 @PUTFOCK-I, Symmetry   2 Full Blocks  4 Partial Blocksize   1
 @PUTFOCK-I, Symmetry   3 Full Blocks  2 Partial Blocksize   3
 @PUTFOCK-I, Symmetry   4 Full Blocks  2 Partial Blocksize   1


 
  ORBITAL EIGENVALUES (ALPHA)  (1H = 27.2113834 eV)

       MO #        E(hartree)               E(eV)           FULLSYM    COMPSYM
       ----   --------------------   --------------------   -------   ---------
    1     1         -10.9076870131        -296.8132533199      A1        A1 (1)
    2    21         -10.9063303669        -296.7763371005      B1        B1 (2)
    3     2          -0.8213686695         -22.3505777774      A1        A1 (1)
    4    22          -0.4976720653         -13.5423453752      B1        B1 (2)
    5    38          -0.3770509967         -10.2600792327      B2        B2 (3)
    6     3          -0.3255539252          -8.8587726749      A1        A1 (1)
    7     4          -0.2356441152          -6.4122023636      A1        A1 (1)
    8    49          -0.2297832989          -6.2527214457      A2        A2 (4)
    9    23           0.1157634066           3.1500824417      B1        B1 (2)
  +++++++++++++++++++++++++++++++++++++++++++++++++++++++++++++++++++++++++++++
   10     5           0.2191033230           5.9621045269      A1        A1 (1)
   11    39           0.4369961242          11.8912690802      B2        B2 (3)
   12     6           0.4585778454          12.4785375708      A1        A1 (1)
   13    24           0.4591509721          12.4941331391      B1        B1 (2)
   14    50           0.5083917996          13.8340441768      A2        A2 (4)
   15     7           0.5124694325          13.9450022083      A1        A1 (1)
   16    40           0.5815528138          15.8248565843      B2        B2 (3)
   17    25           0.6598962644          17.9566902538      B1        B1 (2)
   18    26           0.7192744584          19.5724530580      B1        B1 (2)
   19     8           0.7304323637          19.8760750977      A1        A1 (1)
   20     9           0.7781628136          21.1748866681      A1        A1 (1)
   21    41           0.9408086709          25.6007054511      B2        B2 (3)
   22    10           0.9435087636          25.6741787081      A1        A1 (1)
   23    27           0.9953605677          27.0851380287      B1        B1 (2)
   24    11           1.0980548750          29.8795921991      A1        A1 (1)
   25    42           1.1174840812          30.4082877768      B2        B2 (3)
   26    28           1.1479459791          31.2371981607      B1        B1 (2)
   27    12           1.1935385260          32.4778344341      A1        A1 (1)
   28    51           1.2085572984          32.8865160088      A2        A2 (4)
   29    29           1.2708919438          34.5827279423      B1        B1 (2)
   30    13           1.4787673564          40.2393054950      A1        A1 (1)
   31    43           1.5428173065          41.9821932443      B2        B2 (3)
   32    52           1.5506796656          42.1961389112      A2        A2 (4)
   33    53           1.6015099008          43.5792999295      A2        A2 (4)
   34    30           1.7254512111          46.9519144421      B1        B1 (2)
   35    14           1.8005883135          48.9964989455      A1        A1 (1)
   36    54           1.8824241428          51.2233650720      A2        A2 (4)
   37    44           1.9384960262          52.7491585875      B2        B2 (3)
   38    31           2.0538442391          55.8879430338      B1        B1 (2)
   39    45           2.0650305107          56.1923369598      B2        B2 (3)
   40    15           2.1577700443          58.7159079653      A1        A1 (1)
   41    32           2.1992975819          59.8459297130      B1        B1 (2)
   42    46           2.2683887748          61.7259966524      B2        B2 (3)
   43    16           2.2743758559          61.8889134097      A1        A1 (1)
   44    17           2.3573699498          64.1472975185      A1        A1 (1)
   45    33           2.4318360514          66.1736231614      B1        B1 (2)
   46    34           2.5278637362          68.7866693080      B1        B1 (2)
   47    55           2.6828480199          73.0040060729      A2        A2 (4)
   48    18           2.6895048467          73.1851475387      A1        A1 (1)
   49    56           2.7657682101          75.2603791593      A2        A2 (4)
   50    47           2.7667384107          75.2867796613      B2        B2 (3)
   51    35           2.7714203001          75.4141803472      B1        B1 (2)
   52    36           2.8992161527          78.8916822915      B1        B1 (2)
   53    19           2.9350936271          79.8679580012      A1        A1 (1)
   54    48           3.0833602369          83.9024975669      B2        B2 (3)
   55    20           3.0896423109          84.0734414918      A1        A1 (1)
   56    37           3.5860898324          97.5824653374      B1        B1 (2)
   57    57           3.6223741668          98.5698122705      A2        A2 (4)


  VSCF finished.

 @CHECKOUT-I, Total execution time (CPU/WALL):        0.25/       0.10 seconds.
--executable xvscf finished with status     0 in        0.12 seconds (walltime).
 --invoking executable--
/home/tsommerfeld/zscale/bin/xvtran
 @GETMEM-I,  Allocated   85830 MB of main memory.
  Full RHF integral transformation
  Transformation of IIII integrals :
  1 pass through the AO integral file was required.
       29572 AO integrals were read.
       37182 MO integrals were written to HF2.
  Transformation of IIJJ integrals :
  1 pass through the AO integral file was required.
       58089 AO integrals were read.
       75393 MO integrals were written to HF2.
  Transformation of IJIJ integrals :
  1 pass through the AO integral file was required.
      102291 AO integrals were read.
      132879 MO integrals were written to HF2.
  Transformation of IJKL integrals :
  1 pass through the AO integral file was required.
       75480 AO integrals were read.
      100980 MO integrals were written to HF2.
  Summary of active molecular orbitals: 
------------------------------------------------------------------------
 
  Index      Eigenvalue    Symmetry    Index      Eigenvalue    Symmetry
------------------------------------------------------------------------
     1       -10.9076870        1        30         1.1479460        2
     2        -0.8213687        1        31         1.2708919        2
     3        -0.3255539        1        32         1.7254512        2
     4        -0.2356441        1        33         2.0538442        2
     5       -10.9063304        2        34         2.1992976        2
     6        -0.4976721        2        35         2.4318361        2
     7         0.1157634        2        36         2.5278637        2
     8        -0.3770510        3        37         2.7714203        2
     9        -0.2297833        4        38         2.8992162        2
    10         0.2191033        1        39         3.5860898        2
    11         0.4585778        1        40         0.4369961        3
    12         0.5124694        1        41         0.5815528        3
    13         0.7304324        1        42         0.9408087        3
    14         0.7781628        1        43         1.1174841        3
    15         0.9435088        1        44         1.5428173        3
    16         1.0980549        1        45         1.9384960        3
    17         1.1935385        1        46         2.0650305        3
    18         1.4787674        1        47         2.2683888        3
    19         1.8005883        1        48         2.7667384        3
    20         2.1577700        1        49         3.0833602        3
    21         2.2743759        1        50         0.5083918        4
    22         2.3573699        1        51         1.2085573        4
    23         2.6895048        1        52         1.5506797        4
    24         2.9350936        1        53         1.6015099        4
    25         3.0896423        1        54         1.8824241        4
    26         0.4591510        2        55         2.6828480        4
    27         0.6598963        2        56         2.7657682        4
    28         0.7192745        2        57         3.6223742        4
    29         0.9953606        2
------------------------------------------------------------------------
  -10.9076870130702      -0.821368669458861      -0.325553925161493     
 -0.235644115161991       -10.9063303668888      -0.497672065255995     
  0.115763406638139      -0.377050996706719      -0.229783298914079     
  0.219103323017864       0.458577845433218       0.512469432492778     
  0.730432363747005       0.778162813586034       0.943508763619471     
   1.09805487504671        1.19353852601632        1.47876735642350     
   1.80058831354728        2.15777004433123        2.27437585586864     
   2.35736994975684        2.68950484666215        2.93509362707349     
   3.08964231093838       0.459150972054526       0.659896264363533     
  0.719274458425563       0.995360567692174        1.14794597913352     
   1.27089194378496        1.72545121105847        2.05384423909299     
   2.19929758194650        2.43183605142978        2.52786373617573     
   2.77142030005016        2.89921615273231        3.58608983244250     
  0.436996124210048       0.581552813821973       0.940808670944662     
   1.11748408119470        1.54281730653470        1.93849602617118     
   2.06503051071542        2.26838877483832        2.76673841070837     
   3.08336023691225       0.508391799616559        1.20855729844200     
   1.55067966560062        1.60150990079944        1.88242414283003     
   2.68284801988063        2.76576821005395        3.62237416677953     
 @CHECKOUT-I, Total execution time (CPU/WALL):        0.56/       0.09 seconds.
--executable xvtran finished with status     0 in        0.11 seconds (walltime).
 --invoking executable--
/home/tsommerfeld/zscale/bin/xintprc
 @GETMEM-I,  Allocated   85830 MB of main memory.
  Processing integrals for CCSD calculation.
  @GMOIAA-I, Processing MO integrals for spin case AA.
  @GMOIAA-I, Generation of integral list completed.
                      TYPE                NUMBER
                      ----               --------
                      PPPP                174812
                      PPPH                128480
                      PPHH                 23996
                      PHPH                 13708
                      PHHH                  5120
                      HHHH                   318

                     TOTAL                346434

  @FORMT2-I, Second-order MP correlation energies:
            ------------------------------------------------
            E(SCF)                  =    -78.323155580423 a.u.
            E2(AA)                  =     -0.039992531472 a.u.
            E2(AB)                  =     -0.253227752346 a.u.
            E2(TOT)                 =     -0.333212815290 a.u.
            Total MP2 energy        =    -78.656368395713 a.u.
            ------------------------------------------------
   Largest T2 amplitudes for spin case AB:
       _       _                 _       _                 _       _
   i   j   a   b             i   j   a   b             i   j   a   b
-----------------------------------------------------------------------------
[  7   7  29  29]-0.03513 [  7   7  28  28]-0.02028 [  9   9  42  42]-0.01979
[  7   7  12  12]-0.01944 [  7   7  27  27]-0.01919 [  4   4  31  31]-0.01817
[  8   8  40  40]-0.01674 [  7   7  11  11]-0.01647 [  8   8  42  42]-0.01640
[  9   9  51  51]-0.01632 [  4   4  12  12]-0.01583 [  9   9  50  50]-0.01560
[  8   7  40  29]-0.01558 [  7   8  29  40]-0.01558 [  7   4  29  13] 0.01495
-----------------------------------------------------------------------------
   Norm of T2AB vector (    47560 symmetry allowed elements):  0.3007962438.
-----------------------------------------------------------------------------
 @CHECKOUT-I, Total execution time (CPU/WALL):        0.40/       0.09 seconds.
--executable xintprc finished with status     0 in        0.11 seconds (walltime).
  calling xvcc 
 --invoking executable--
/home/tsommerfeld/zscale/bin/xvcc
 @GETMEM-I,  Allocated   85830 MB of main memory.
   CCSD energy will be calculated.
   The total correlation energy is -0.333212815290 a.u.
   The total correlation energy is -0.350145830069 a.u.
  Convergence information after     1 iterations: 
  Largest element of residual vector :  0.11774444E-01.
  Largest element of DIIS residual   :  0.11774444E-01.
   The total correlation energy is -0.357476914457 a.u.
  Convergence information after     2 iterations: 
  Largest element of residual vector : -0.35726737E-02.
  Largest element of DIIS residual   : -0.42532415E-02.
   The total correlation energy is -0.359453281405 a.u.
  Convergence information after     3 iterations: 
  Largest element of residual vector :  0.32286286E-02.
  Largest element of DIIS residual   :  0.26434431E-02.
   The total correlation energy is -0.360167280511 a.u.
  Convergence information after     4 iterations: 
  Largest element of residual vector : -0.15022736E-02.
  Largest element of DIIS residual   : -0.13744170E-02.
   The total correlation energy is -0.360272371981 a.u.
  Convergence information after     5 iterations: 
  Largest element of residual vector :  0.62359310E-03.
  Largest element of DIIS residual   :  0.42520610E-03.
   The total correlation energy is -0.360274587499 a.u.
  Convergence information after     6 iterations: 
  Largest element of residual vector : -0.35969008E-03.
  Largest element of DIIS residual   : -0.21929066E-03.
   The total correlation energy is -0.360270873468 a.u.
  Convergence information after     7 iterations: 
  Largest element of residual vector :  0.10733519E-03.
  Largest element of DIIS residual   :  0.64874365E-04.
   The total correlation energy is -0.360265500405 a.u.
  Convergence information after     8 iterations: 
  Largest element of residual vector : -0.51740811E-04.
  Largest element of DIIS residual   :  0.21217264E-04.
   The total correlation energy is -0.360267373355 a.u.
  Convergence information after     9 iterations: 
  Largest element of residual vector :  0.19653716E-04.
  Largest element of DIIS residual   :  0.15489191E-04.
   The total correlation energy is -0.360268322207 a.u.
  Convergence information after    10 iterations: 
  Largest element of residual vector :  0.97541029E-05.
  Largest element of DIIS residual   :  0.83219145E-05.
   The total correlation energy is -0.360268958559 a.u.
  Convergence information after    11 iterations: 
  Largest element of residual vector :  0.65251973E-05.
  Largest element of DIIS residual   :  0.51158516E-05.
   The total correlation energy is -0.360269141116 a.u.
  Convergence information after    12 iterations: 
  Largest element of residual vector :  0.37278447E-05.
  Largest element of DIIS residual   :  0.26825932E-05.
   The total correlation energy is -0.360269214596 a.u.
  Convergence information after    13 iterations: 
  Largest element of residual vector :  0.19578017E-05.
  Largest element of DIIS residual   :  0.12382022E-05.
   The total correlation energy is -0.360269227528 a.u.
  Convergence information after    14 iterations: 
  Largest element of residual vector :  0.10132244E-05.
  Largest element of DIIS residual   :  0.67982897E-06.
   The total correlation energy is -0.360269218899 a.u.
  Convergence information after    15 iterations: 
  Largest element of residual vector :  0.48310187E-06.
  Largest element of DIIS residual   :  0.18509957E-06.
   The total correlation energy is -0.360269215757 a.u.
  Convergence information after    16 iterations: 
  Largest element of residual vector :  0.16562194E-06.
  Largest element of DIIS residual   :  0.10854876E-06.
   The total correlation energy is -0.360269213869 a.u.
  Convergence information after    17 iterations: 
  Largest element of residual vector :  0.76094647E-07.
  Largest element of DIIS residual   :  0.65258020E-07.
  Amplitude equations converged in    17iterations.
   The total correlation energy is -0.360269213323 a.u.
   The CC iterations have converged.

   Largest T1 amplitudes for spin case AA:
   i       a                 i       a                 i       a    
-----------------------------------------------------------------------------
[  4      10    ] 0.01928 [  4      12    ]-0.01311 [  7      29    ] 0.01264
[  7      30    ]-0.00882 [  3      12    ] 0.00724 [  8      42    ] 0.00680
[  8      41    ] 0.00591 [  7      32    ] 0.00518 [  4      11    ] 0.00514
[  8      43    ] 0.00497 [  6      28    ]-0.00497 [  9      51    ] 0.00492
[  7      27    ]-0.00491 [  9      56    ] 0.00490 [  4      13    ] 0.00445
-----------------------------------------------------------------------------
   Norm of T1AA vector (      124 symmetry allowed elements):  0.0377386853.
-----------------------------------------------------------------------------
   Largest T2 amplitudes for spin case AB:
       _       _                 _       _                 _       _
   i   j   a   b             i   j   a   b             i   j   a   b
-----------------------------------------------------------------------------
[  7   7  29  29]-0.03699 [  7   7  12  12]-0.03032 [  7   7  11  11]-0.02912
[  9   9  42  42]-0.02443 [  7   7  28  28]-0.02076 [  4   4  31  31]-0.01981
[  7   7  27  27]-0.01942 [  4   4  12  12]-0.01942 [  7   7  26  26]-0.01940
[  7   7  12  10] 0.01916 [  7   7  10  12] 0.01916 [  8   8  42  42]-0.01889
[  7   7  10  10]-0.01812 [  9   9  51  51]-0.01803 [  8   8  40  40]-0.01790
-----------------------------------------------------------------------------
   Norm of T2AB vector (    47560 symmetry allowed elements):  0.3494136013.
-----------------------------------------------------------------------------
       Summary of iterative solution of CC equations 
      -----------------------------------------------------------
                       Correlation           Total
       Iteration         Energy              Energy
      -----------------------------------------------------------
            0        -0.333212815290     -78.656368395713  DIIS 
            1        -0.350145830069     -78.673301410492  DIIS 
            2        -0.357476914457     -78.680632494880  DIIS 
            3        -0.359453281405     -78.682608861828  DIIS 
            4        -0.360167280511     -78.683322860934  DIIS 
            5        -0.360272371981     -78.683427952404  DIIS 
            6        -0.360274587499     -78.683430167922  DIIS 
            7        -0.360270873468     -78.683426453891  DIIS 
            8        -0.360265500405     -78.683421080828  DIIS 
            9        -0.360267373355     -78.683422953778  DIIS 
           10        -0.360268322207     -78.683423902630  DIIS 
           11        -0.360268958559     -78.683424538982  DIIS 
           12        -0.360269141116     -78.683424721540  DIIS 
           13        -0.360269214596     -78.683424795019  DIIS 
           14        -0.360269227528     -78.683424807951  DIIS 
           15        -0.360269218899     -78.683424799322  DIIS 
           16        -0.360269215757     -78.683424796180  DIIS 
           17        -0.360269213323     -78.683424793746  DIIS 
      -----------------------------------------------------------
      A miracle has come to pass. The CC iterations have converged.
      The reference energy is       -78.32315558042305 a.u.
      The correlation energy is      -0.36026921332261 a.u.
      The total energy is           -78.68342479374566 a.u.
 @CHECKOUT-I, Total execution time (CPU/WALL):        5.91/       0.75 seconds.
--executable xvcc finished with status     0 in        0.77 seconds (walltime).
 --invoking executable--
/home/tsommerfeld/zscale/bin/xlambda
 @GETMEM-I,  Allocated   85830 MB of main memory.
 Hbar is calculated for a CCSD wave function.
 Calculation of Hbar completed.
 @CHECKOUT-I, Total execution time (CPU/WALL):        0.82/       0.11 seconds.
--executable xlambda finished with status     0 in        0.13 seconds (walltime).
 --invoking executable--
/home/tsommerfeld/zscale/bin/xvee
 @GETMEM-I,  Allocated   85830 MB of main memory.
  cc2 and ccprog  F                     0
  EOMEE-CCSD excitation energies will be evaluated.
  @SETMET-I, VPROP property integrals are used.
  @SETMET-I, A total of   3 target states will be studied.
  Summary of active alpha molecular orbitals:
------------------------------------------------------------------------------
Orbital      Sym   Eigenvalue  <xx>     <yy>     <zz>     <xy>     <xz>     <yz>
        SCF
  #  position
------------------------------------------------------------------------------
   1      1    1     -10.9077   0.000    0.000    0.000    0.000    0.000    0.000
   2      3    1      -0.8214   0.000    0.000    0.000    0.000    0.000    0.000
   3      6    1      -0.3256   0.000    0.000    0.000    0.000    0.000    0.000
   4      7    1      -0.2356   0.000    0.000    0.000    0.000    0.000    0.000
   5      2    2     -10.9063   0.000    0.000    0.000    0.000    0.000    0.000
   6      4    2      -0.4977   0.000    0.000    0.000    0.000    0.000    0.000
   7      9    2       0.1158   0.000    0.000    0.000    0.000    0.000    0.000
   8      5    3      -0.3771   0.000    0.000    0.000    0.000    0.000    0.000
   9      8    4      -0.2298   0.000    0.000    0.000    0.000    0.000    0.000
  10     10    1       0.2191   0.000    0.000    0.000    0.000    0.000    0.000
  11     12    1       0.4586   0.000    0.000    0.000    0.000    0.000    0.000
  12     15    1       0.5125   0.000    0.000    0.000    0.000    0.000    0.000
  13     19    1       0.7304   0.000    0.000    0.000    0.000    0.000    0.000
  14     20    1       0.7782   0.000    0.000    0.000    0.000    0.000    0.000
  15     22    1       0.9435   0.000    0.000    0.000    0.000    0.000    0.000
  16     24    1       1.0981   0.000    0.000    0.000    0.000    0.000    0.000
  17     27    1       1.1935   0.000    0.000    0.000    0.000    0.000    0.000
  18     30    1       1.4788   0.000    0.000    0.000    0.000    0.000    0.000
  19     35    1       1.8006   0.000    0.000    0.000    0.000    0.000    0.000
  20     40    1       2.1578   0.000    0.000    0.000    0.000    0.000    0.000
  21     43    1       2.2744   0.000    0.000    0.000    0.000    0.000    0.000
  22     44    1       2.3574   0.000    0.000    0.000    0.000    0.000    0.000
  23     48    1       2.6895   0.000    0.000    0.000    0.000    0.000    0.000
  24     53    1       2.9351   0.000    0.000    0.000    0.000    0.000    0.000
  25     55    1       3.0896   0.000    0.000    0.000    0.000    0.000    0.000
  26     13    2       0.4592   0.000    0.000    0.000    0.000    0.000    0.000
  27     17    2       0.6599   0.000    0.000    0.000    0.000    0.000    0.000
  28     18    2       0.7193   0.000    0.000    0.000    0.000    0.000    0.000
  29     23    2       0.9954   0.000    0.000    0.000    0.000    0.000    0.000
  30     26    2       1.1479   0.000    0.000    0.000    0.000    0.000    0.000
  31     29    2       1.2709   0.000    0.000    0.000    0.000    0.000    0.000
  32     34    2       1.7255   0.000    0.000    0.000    0.000    0.000    0.000
  33     38    2       2.0538   0.000    0.000    0.000    0.000    0.000    0.000
  34     41    2       2.1993   0.000    0.000    0.000    0.000    0.000    0.000
  35     45    2       2.4318   0.000    0.000    0.000    0.000    0.000    0.000
  36     46    2       2.5279   0.000    0.000    0.000    0.000    0.000    0.000
  37     51    2       2.7714   0.000    0.000    0.000    0.000    0.000    0.000
  38     52    2       2.8992   0.000    0.000    0.000    0.000    0.000    0.000
  39     56    2       3.5861   0.000    0.000    0.000    0.000    0.000    0.000
  40     11    3       0.4370   0.000    0.000    0.000    0.000    0.000    0.000
  41     16    3       0.5816   0.000    0.000    0.000    0.000    0.000    0.000
  42     21    3       0.9408   0.000    0.000    0.000    0.000    0.000    0.000
  43     25    3       1.1175   0.000    0.000    0.000    0.000    0.000    0.000
  44     31    3       1.5428   0.000    0.000    0.000    0.000    0.000    0.000
  45     37    3       1.9385   0.000    0.000    0.000    0.000    0.000    0.000
  46     39    3       2.0650   0.000    0.000    0.000    0.000    0.000    0.000
  47     42    3       2.2684   0.000    0.000    0.000    0.000    0.000    0.000
  48     50    3       2.7667   0.000    0.000    0.000    0.000    0.000    0.000
  49     54    3       3.0834   0.000    0.000    0.000    0.000    0.000    0.000
  50     14    4       0.5084   0.000    0.000    0.000    0.000    0.000    0.000
  51     28    4       1.2086   0.000    0.000    0.000    0.000    0.000    0.000
  52     32    4       1.5507   0.000    0.000    0.000    0.000    0.000    0.000
  53     33    4       1.6015   0.000    0.000    0.000    0.000    0.000    0.000
  54     36    4       1.8824   0.000    0.000    0.000    0.000    0.000    0.000
  55     47    4       2.6828   0.000    0.000    0.000    0.000    0.000    0.000
  56     49    4       2.7658   0.000    0.000    0.000    0.000    0.000    0.000
  57     57    4       3.6224   0.000    0.000    0.000    0.000    0.000    0.000
------------------------------------------------------------------------------
  @DRVTDA-I, Roots obtained by Davidson method.
  calling tda davidson                       6                     2
  after tda davidson                      6                     6
                     3                     3
  kroot is                      3
__________________________________________________________________________
    Tamm-Dancoff (CIS) Excitation Energies and Transition Moments

                Excitation         Transition Dipole         Oscillator
 Root  Symmetry  Energy         x           y           z     Strength
__________________________________________________________________________
   1       2   -0.05874      0.0000      0.0000      0.0000  .00000000D+00
__________________________________________________________________________
 
__________________________________________________________________________
  TDA excitation ergy:            -0.058736108691 a.u.   -1.5983 eV
  Total TDA electronic energy:   -78.381891689114 a.u.
 
  Dominant contributions: 
  SCF eigenvalue ordering used in list below. 
--------------------------------------------------------------------------------
    I    j    A    b
--------------------------------------------------------------------------------
    9    0   10    0  -0.9869849922 AA  
    9    0   15    0   0.1364262908 AA  
    9    0   12    0   0.0694147593 AA  
    9    0   22    0   0.0244423859 AA  
    7    0   13    0  -0.0211189477 AA  
    6    0   13    0   0.0190653554 AA  
    4    0   10    0   0.0114575502 AA  
    9    0   19    0  -0.0114060252 AA  
    9    0   30    0  -0.0105019672 AA  
    6    0   29    0   0.0091931456 AA  
    4    0   12    0   0.0085947579 AA  
    8    0   11    0   0.0076702600 AA  
    6    0   18    0  -0.0074334000 AA  
    9    0   20    0   0.0066646594 AA  
    5    0   14    0   0.0062274901 AA  
--------------------------------------------------------------------------------
   2       2    0.10228      0.0000      0.0000      0.0000  .00000000D+00
__________________________________________________________________________
 
__________________________________________________________________________
  TDA excitation ergy:             0.102278631875 a.u.    2.7831 eV
  Total TDA electronic energy:   -78.220876948548 a.u.
 
  Dominant contributions: 
  SCF eigenvalue ordering used in list below. 
--------------------------------------------------------------------------------
    I    j    A    b
--------------------------------------------------------------------------------
    9    0   12    0  -0.9786643573 AA  
    9    0   15    0   0.1550447750 AA  
    9    0   24    0  -0.0600483052 AA  
    9    0   10    0  -0.0494224149 AA  
    9    0   22    0  -0.0425898300 AA  
    7    0   13    0   0.0420998382 AA  
    7    0   29    0   0.0365022392 AA  
    9    0   20    0   0.0338969342 AA  
    9    0   27    0   0.0302457040 AA  
    7    0   17    0  -0.0284387950 AA  
    4    0   12    0   0.0249894549 AA  
    7    0   18    0  -0.0248833104 AA  
    6    0   13    0  -0.0193546323 AA  
    8    0   16    0  -0.0162792751 AA  
    5    0   14    0   0.0147205268 AA  
--------------------------------------------------------------------------------
   3       2    0.14525      0.0000      0.0000      0.0000  .00000000D+00
__________________________________________________________________________
 
__________________________________________________________________________
  TDA excitation ergy:             0.145246583528 a.u.    3.9524 eV
  Total TDA electronic energy:   -78.177908996895 a.u.
 
  Dominant contributions: 
  SCF eigenvalue ordering used in list below. 
--------------------------------------------------------------------------------
    I    j    A    b
--------------------------------------------------------------------------------
    9    0   15    0  -0.9671426929 AA  
    9    0   12    0  -0.1470950668 AA  
    9    0   10    0  -0.1450695948 AA  
    9    0   19    0  -0.0714988636 AA  
    9    0   20    0   0.0558020996 AA  
    9    0   30    0   0.0461925588 AA  
    9    0   27    0   0.0435171516 AA  
    9    0   24    0   0.0348054935 AA  
    7    0   13    0   0.0325252814 AA  
    9    0   22    0   0.0313145624 AA  
    6    0   13    0  -0.0312216025 AA  
    4    0   12    0  -0.0286426404 AA  
    6    0   18    0   0.0258251129 AA  
    5    0   14    0  -0.0218228418 AA  
    8    0   21    0   0.0193908829 AA  
--------------------------------------------------------------------------------
__________________________________________________________________________
  @DOEOMEE-I, Excitation energies computed by the EOMEE-CCSD/CCSD-LR method.
  @DOEOMEE-I, right-hand eigenvectors will be computed.
  Beginning symmetry block   2.   3 roots requested.
  @DOEOMEE-I, Matrix dimension for diagonalization:    47674
  Creating initial guess for root
________________________________________________________________________
            Subspace          Eigenvalue           
 Iteration  Dimension   (a.u.)         (eV)       Overlap      Residual
________________________________________________________________________
  @NEWGES-I, Using TDA initial guess.
  1   1  0.5359623256D-02  0.1458427633D+00  0.0000000000D+00  0.3812139586D+00
  2   2 -0.6206382282D-01 -0.1688842478D+01  0.9753953799D+00  0.6673894830D-01
  3   3 -0.6399994510D-01 -0.1741527044D+01  0.9985954825D+00  0.1508875561D-01
  4   4 -0.6409556516D-01 -0.1744128998D+01  0.9999107057D+00  0.7009053144D-02
  5   5 -0.6411662057D-01 -0.1744701945D+01  0.9999712853D+00  0.1203869579D-02
  L-O-C-K-I-N-G O-N R-O-O-T 
  6   6 -0.6412269728D-01 -0.1744867300D+01  0.9999988568D+00  0.4920980001D-03
  7   7 -0.6412261842D-01 -0.1744865154D+01  0.9999998436D+00  0.1387669391D-03
  8   8 -0.6412268605D-01 -0.1744866995D+01  0.9999999914D+00  0.4867043606D-04
  9   9 -0.6412268554D-01 -0.1744866981D+01  0.9999999990D+00  0.9689339492D-05
  Converged eigenvalue:  -6.412268553752531E-002  a.u.
   Total EOMEE-CCSD electronic energy      -78.747547479283185 a.u.
  Converged eigenvector 
  SCF eigenvalue ordering used in list below. 
--------------------------------------------------------------------------------
    I    j    A    b
--------------------------------------------------------------------------------
    9    0   10    0  -0.6808601636 AA  
    9    0   15    0   0.0957117869 AA  
    9    0   12    0   0.0462135474 AA  
    9    9   23   10  -0.0446284709 ABAB
    9    9   10   23  -0.0446284709 ABAB
    9    7   10   10   0.0353379562 ABAB
    7    9   10   10   0.0353379562 ABAB
    8    9   14   10  -0.0329867907 ABAB
    9    8   10   14  -0.0329867907 ABAB
    5    9   11   10  -0.0302906051 ABAB
    9    5   10   11  -0.0302906051 ABAB
    9    4   10   13  -0.0302458887 ABAB
    4    9   13   10  -0.0302458887 ABAB
    9    9   17   10   0.0296674740 ABAB
    9    9   10   17   0.0296674740 ABAB
--------------------------------------------------------------------------------
  Converged eigenvector, normalized to one 
  SCF eigenvalue ordering used in list below. 
--------------------------------------------------------------------------------
    I    j    A    b
--------------------------------------------------------------------------------
    9    0   10    0  -0.6808601636 AA  
    9    0   15    0   0.0957117869 AA  
    9    0   12    0   0.0462135474 AA  
    9    9   23   10  -0.0446284709 ABAB
    9    9   10   23  -0.0446284709 ABAB
    9    7   10   10   0.0353379562 ABAB
    7    9   10   10   0.0353379562 ABAB
    8    9   14   10  -0.0329867907 ABAB
    9    8   10   14  -0.0329867907 ABAB
    5    9   11   10  -0.0302906051 ABAB
    9    5   10   11  -0.0302906051 ABAB
    9    4   10   13  -0.0302458887 ABAB
    4    9   13   10  -0.0302458887 ABAB
    9    9   17   10   0.0296674740 ABAB
    9    9   10   17   0.0296674740 ABAB
--------------------------------------------------------------------------------

  Eigenvector is saved on CCRE_2_1  

  Adding new vector to expansion space.
  Guess for next eigenvalue   0.102278631875228     
 10  10  0.1367914668D+00  0.3722285048D+01  0.8434066638D+00  0.3162498841D+00
 11  11  0.1019076541D+00  0.2773048246D+01  0.9770609935D+00  0.1057933579D+00
 12  12  0.9659795770D-01  0.2628564063D+01  0.9836646188D+00  0.3220385327D-01
 13  13  0.9580137329D-01  0.2606887899D+01  0.9980184854D+00  0.1247207621D-01
 14  14  0.9565958645D-01  0.2603029683D+01  0.9998383054D+00  0.4721120072D-02
 15  15  0.9563658613D-01  0.2602403812D+01  0.9999858515D+00  0.1610031635D-02
  L-O-C-K-I-N-G O-N R-O-O-T 
 16  16  0.9563282041D-01  0.2602301342D+01  0.9999978940D+00  0.5689545209D-03
 17  17  0.9563310235D-01  0.2602309014D+01  0.9999997328D+00  0.1622136664D-03
 18  18  0.9563319331D-01  0.2602311489D+01  0.9999999800D+00  0.4306770084D-04
 19  19  0.9563321857D-01  0.2602312176D+01  0.9999999988D+00  0.1145639361D-04
 20  20  0.9563321679D-01  0.2602312128D+01  0.9999999999D+00  0.3266245901D-05
  Converged eigenvalue:   9.563321679065669E-002  a.u.
   Total EOMEE-CCSD electronic energy      -78.587791576954999 a.u.
  Converged eigenvector 
  SCF eigenvalue ordering used in list below. 
--------------------------------------------------------------------------------
    I    j    A    b
--------------------------------------------------------------------------------
    9    0   12    0  -0.6763310044 AA  
    9    0   15    0   0.0953233025 AA  
    9    0   24    0  -0.0415104356 AA  
    9    6   12   12  -0.0347631235 ABAB
    6    9   12   12  -0.0347631235 ABAB
    9    0   10    0  -0.0324276747 AA  
    9    9   23   12  -0.0315636953 ABAB
    9    9   12   23  -0.0315636953 ABAB
    9    9   13   15  -0.0286440657 ABAB
    9    9   15   13  -0.0286440657 ABAB
    9    0   22    0  -0.0267612353 AA  
    5    9   11   12  -0.0243980237 ABAB
    9    5   12   11  -0.0243980237 ABAB
    9    0   20    0   0.0236904813 AA  
    9    4   12   13  -0.0230697374 ABAB
--------------------------------------------------------------------------------
  Converged eigenvector, normalized to one 
  SCF eigenvalue ordering used in list below. 
--------------------------------------------------------------------------------
    I    j    A    b
--------------------------------------------------------------------------------
    9    0   12    0  -0.6763310044 AA  
    9    0   15    0   0.0953233025 AA  
    9    0   24    0  -0.0415104356 AA  
    9    6   12   12  -0.0347631235 ABAB
    6    9   12   12  -0.0347631235 ABAB
    9    0   10    0  -0.0324276747 AA  
    9    9   23   12  -0.0315636953 ABAB
    9    9   12   23  -0.0315636953 ABAB
    9    9   13   15  -0.0286440657 ABAB
    9    9   15   13  -0.0286440657 ABAB
    9    0   22    0  -0.0267612353 AA  
    5    9   11   12  -0.0243980237 ABAB
    9    5   12   11  -0.0243980237 ABAB
    9    0   20    0   0.0236904813 AA  
    9    4   12   13  -0.0230697374 ABAB
--------------------------------------------------------------------------------

  Eigenvector is saved on CCRE_2_2  

  Adding new vector to expansion space.
  Guess for next eigenvalue   0.145246583527774     
 21  21  0.1409285195D+00  0.3834859976D+01  0.7114968605D+00  0.6683597987D-01
 22  22  0.1385263121D+00  0.3769492589D+01  0.9985182357D+00  0.1446849320D-01
 23  23  0.1382477832D+00  0.3761913432D+01  0.9998726643D+00  0.3923520388D-02
  L-O-C-K-I-N-G O-N R-O-O-T 
 24  24  0.1382422770D+00  0.3761763602D+01  0.9999881883D+00  0.1171893536D-02
 25  25  0.1382411681D+00  0.3761733426D+01  0.9999989637D+00  0.3377695505D-03
 26  26  0.1382409872D+00  0.3761728505D+01  0.9999999295D+00  0.9434528888D-04
 27  27  0.1382408737D+00  0.3761725417D+01  0.9999999951D+00  0.2555190613D-04
 28  28  0.1382408983D+00  0.3761726085D+01  0.9999999996D+00  0.6889164923D-05
  Converged eigenvalue:   0.138240898301654       a.u.
   Total EOMEE-CCSD electronic energy      -78.545183895443998 a.u.
  Converged eigenvector 
  SCF eigenvalue ordering used in list below. 
--------------------------------------------------------------------------------
    I    j    A    b
--------------------------------------------------------------------------------
    9    0   15    0  -0.6698494557 AA  
    9    0   10    0  -0.0979696159 AA  
    9    0   12    0  -0.0857943046 AA  
    9    7   15   15  -0.0508838396 ABAB
    7    9   15   15  -0.0508838396 ABAB
    9    0   19    0  -0.0374814709 AA  
    9    0   27    0   0.0333578948 AA  
    9    0   20    0   0.0328321769 AA  
    9    9   17   15   0.0327918305 ABAB
    9    9   15   17   0.0327918305 ABAB
    9    6   15   15   0.0321372115 ABAB
    6    9   15   15   0.0321372115 ABAB
    9    9   18   15  -0.0309086866 ABAB
    9    9   15   18  -0.0309086866 ABAB
    9    0   30    0   0.0307233216 AA  
--------------------------------------------------------------------------------
  Converged eigenvector, normalized to one 
  SCF eigenvalue ordering used in list below. 
--------------------------------------------------------------------------------
    I    j    A    b
--------------------------------------------------------------------------------
    9    0   15    0  -0.6698494557 AA  
    9    0   10    0  -0.0979696159 AA  
    9    0   12    0  -0.0857943046 AA  
    9    7   15   15  -0.0508838396 ABAB
    7    9   15   15  -0.0508838396 ABAB
    9    0   19    0  -0.0374814709 AA  
    9    0   27    0   0.0333578948 AA  
    9    0   20    0   0.0328321769 AA  
    9    9   17   15   0.0327918305 ABAB
    9    9   15   17   0.0327918305 ABAB
    9    6   15   15   0.0321372115 ABAB
    6    9   15   15   0.0321372115 ABAB
    9    9   18   15  -0.0309086866 ABAB
    9    9   15   18  -0.0309086866 ABAB
    9    0   30    0   0.0307233216 AA  
--------------------------------------------------------------------------------

  Eigenvector is saved on CCRE_2_3  

  Solution of   3 roots required   28 iterations.
 @CHECKOUT-I, Total execution time (CPU/WALL):       16.09/       2.02 seconds.
--executable xvee finished with status     0 in        2.04 seconds (walltime).
  The final electronic energy is       -78.545183895443998 a.u. 
  This computation required                            3.78 seconds (walltime).
