CFour on node02
 --invoking executable--
/home/tsommerfeld/zscale/bin/xjoda


   *************************************************************************
         <<<     CCCCCC     CCCCCC   |||     CCCCCC     CCCCCC   >>>
       <<<      CCC        CCC       |||    CCC        CCC         >>>
      <<<      CCC        CCC        |||   CCC        CCC            >>>
    <<<        CCC        CCC        |||   CCC        CCC              >>>
      <<<      CCC        CCC        |||   CCC        CCC            >>>
       <<<      CCC        CCC       |||    CCC        CCC         >>>
         <<<     CCCCCC     CCCCCC   |||     CCCCCC     CCCCCC   >>>
   *************************************************************************

     ****************************************************************
     * CFOUR Coupled-Cluster techniques for Computational Chemistry *
     ****************************************************************
 

   Department of Chemistry                Institut fuer Physikalische Chemie
   University of Florida                  Universitaet Mainz
   Gainesville, FL 32611, USA             D-55099 Mainz, Germany

   Department of Chemistry                Department of Chemistry
   Johns Hopkins University               Southern Methodist University
   Baltimore, MD 21218, USA               Dallas, TX 75275, USA

   Institute of Nanotechnology            Department of Physical Chemistry
   Karlsruhe Inst. of Technology          Eotvos Lorand University
   D-76021 Karlsruhe, Germany             H-1053 Budapest, Hungary

 
                       Version 2.1
 
                     node02                                            
                     Tue Mar 29 16:01:42 CST 2022                      
                     integer*8 version is running
 
********************************************************************************
*                          Input from ZMAT file                                *
********************************************************************************
h_ethylene                                                                      
C       0.000000      0.0   -0.664500                                           
C       0.000000      0.0    0.664500                                           
H       0.962348      0.0   -1.159080                                           
H       0.962348      0.0    1.159080                                           
H      -0.962348      0.0   -1.159080                                           
H      -0.962348      0.0    1.159080                                           
H      0.000000      0.5      0.000000                                          
                                                                                
*CFOUR(CALC=CCSD                                                                
EXCITE=EOMEE                                                                    
ESTATE_SYM=0/3/0/0                                                              
CC_PROG=VCC                                                                     
CHARGE=-1                                                                       
COORDINATES=CARTESIAN                                                           
BASIS=SPECIAL                                                                   
REFERENCE=RHF                                                                   
MEM_SIZE=90,MEM_UNIT=GB)                                                        
                                                                                
C:CC-PVDZ                                                                       
C:CC-PVDZ                                                                       
H:CC-PVDZ                                                                       
H:CC-PVDZ                                                                       
H:CC-PVDZ                                                                       
H:CC-PVDZ                                                                       
H:AUG-CC-PVDZ                                                                   
                                                                                
********************************************************************************
    -------------------------------------------------------------------
                    CFOUR Control Parameters 
    -------------------------------------------------------------------
        External           Internal           Value            Units
          Name               Name
    -------------------------------------------------------------------
       ABCDTYPE             IABCDT         STANDARD    [  0]    ***   
       ANHARMONIC           IANHAR         OFF         [  0]    ***   
       ANH_ALGORIT          IANALG         STANDARD    [  0]    ***   
       ANH_DERIVAT          IANDER         SECOND      [  1]    ***   
       ANH_MODE             ANHMOD         VIBRATION   [  0]    ***   
       ANH_STEPSIZ          ICUBST             50000          x 10-6  
       ANH_SYMMETR          IANHSM         ABELIAN     [  0]    ***   
       AO_LADDERS           IAOLAD         SINGLEPASS  [  1]    ***   
       AV_SCF               IAVSCF         OFF         [  0]    ***   
       BASIS                IBASIS         SPECIAL     [  0]    ***   
       BOTHVECTORS          BOTHVC         OFF         [  0]    ***   
       BOX_POTENT           IPIAB          OFF         [  0]    ***   
       BREIT                IBREIT         OFF         [  0]    ***   
       BRUCK_CONV           IBRTOL          10D-  4             ***   
       BRUECKNER            IBRKNR         OFF         [  0]    ***   
       BUFFERSIZE           IBUFFS              4096            ***   
       CACHE_RECS           ICHREC             10               ***   
       CALCLEVEL            ICLLVL         CCSD        [ 10]    ***   
       CCORBOPT             ICCORB         OFF         [  0]  x 0.01  
       CC_CONV              ICCCNV          10D-  7             ***   
       CC_EXPORDER          ICCEOR              5               ***   
       CC_EXTRAPOL          ICCEXT         DIIS        [  1]    ***   
       CC_GUESS             ICCGES         MP2         [  0]    ***   
       CC_MAXCYC            ICCCYC            100              cycles 
       CC_PROGRAM           ICCPRO         VCC         [  0]    ***   
       CHARGE               ICHRGE             -1               ***   
       CHOLESKY             ICHOLE         OFF         [  0]    ***   
       CIS_CONV             ICISTL              5               ***   
       COMM_SIZE            IPSIZE            ***               ***   
       CONSTANT             ICONST         OLD         [  1]    ***   
       CONTINUUM            ICONTU         NONE        [  0]    ***   
       CONTRACTION          ICNTYP         GENERAL     [  1]    ***   
       COORDINATES          ICOORD         CARTESIAN   [  1]    ***   
       CPHF_CONVER          ICPHFT          10D- 16             ***   
       CPHF_MAXCYC          ICPHFC             64              cycles 
       CUBIC                ICUBIC         OFF         [  0]    ***   
       CURVILINEAR          ICURVY         OFF         [  0]    ***   
       DBOC                 IDBOC          OFF         [  0]    ***   
       DCT                  IDCT           OFF         [  0]    ***   
       DERIV_LEV            IDRLVL         ZERO        [  0]    ***   
       DEVMEM_SIZE          IDVMEM         *********           MByte  
       DIAG_MRCC            IEOMST          10D-  0             ***   
       DIFF_TYPE            IDIFTY         RELAXED     [  0]    ***   
       DIRECT               IDIRCT         OFF         [  0]    ***   
       DROPMO               IDRPMO      NONE         
       ECP                  IECP           OFF         [  0]    ***   
       EIGENVECTOR          IVEC                1               ***   
       EL_ANHARM            IELANH         OFF         [  0]    ***   
       EOMFOLLOW            IEOMSR         ENERGY      [  0]    ***   
       EOMIP                IEOMIP         OFF         [  0]    ***   
       EOMLEVEL             HBARFM         SAME        [  0]    ***   
       EOM_MRCC             IMRCCE         NEW         [  1]    ***   
       EOM_NONIT            EOMNON         OFF         [  0]    ***   
       EOM_NSING            IEOMSI          10D-  0             ***   
       EOM_NSTATES          IMRCCD         DAVIDSON    [  0]    ***   
       EOM_NTRIP            IEOMTR          10D-  0             ***   
       EOM_ORDER            IEXORD         ENERGY      [  0]    ***   
       EOM_PROPSTA          IEOMST              0               ***   
       ESTATE_CONV          IEXTOL          10D-  5             ***   
       ESTATE_DIAG          IEXDIG         ITERATIVE   [  0]    ***   
       ESTATE_LOCK          IESLOC         ON          [  1]    ***   
       ESTATE_MAXC          IEXMXC             40               ***   
       ESTATE_PROP          IEXPRP         OFF         [  0]    ***   
       ESTATE_SYM           IEXSYM   0,  3,  0,  0,
       EVAL_HESS            IRECAL              0            # of cyc.
       EXCITATION           IEXCIT              0               ***   
       EXCITE               IEXCIT         EOMEE       [  3]    ***   
       EXTERN_POT           IEXPOT         OFF         [  0]    ***   
       FCGRADNEW            IFCGNW         OFF         [  0]    ***   
       FC_FIELD             IFINFC              0             x 10-6  
       FD_CALTYPE           IFDCAL         GRADONLY    [  0]    ***   
       FD_PROJECT           IFDPRJ         OFF         [  1]    ***   
       FD_STEPSIZE          IDISFD              0            10-4 bohr
       FD_USEGROUP          IFDGRP         FULL        [  0]    ***   
       FILE_RECSIZ          IFLREC              4096           words  
       FINITE_PERT          IFIPER              0             x 10-6  
       FIXGEOM              IFIXGM         OFF         [  0]    ***   
       FOCK                 IFOCK          AO          [  1]    ***   
       FREQ_ALGORI          IVIALG         STANDARD    [  0]    ***   
       FROZEN_CORE          IFROCO         OFF         [  0]    ***   
       GAMMA_ABCD           IGABCD         STORE       [  0]    ***   
       GAMMA_ABCI           IGABCI         STORE       [  0]    ***   
       GENBAS_1             IGNBS1              0               ***   
       GENBAS_2             IGNBS2              0               ***   
       GENBAS_3             IGNBS3              0               ***   
       GENBAS_4             IGNBS4              0               ***   
       GEO_CONV             ICONTL              5              H/bohr 
       GEO_MAXCYC           IOPTCY             50               ***   
       GEO_MAXSTEP          IMXSTP            300            millibohr
       GEO_METHOD           INR            SINGLE_POINT[  5]    ***   
       GIAO                 IGIAO          OFF         [  1]    ***   
       GIMIC                IGIMIC         OFF         [  0]    ***   
       GRID                 IGRID          OFF         [  0]    ***   
       GRID_ALGO            IGALGO         SERIAL      [  0]    ***   
       GUESS                IGUESS         MOREAD      [  0]    ***   
       HBAR                 IHBAR          ON          [  1]    ***   
       HESS_TYPE            IHESTP         SCF         [  0]    ***   
       HF2_FILE             IHF2Fl         USE         [  1]    ***   
       HFSTABILITY          ISTABL         OFF         [  0]    ***   
       INCORE               INCORE         OFF         [  0]    ***   
       INPUT_MRCC           IMRCC          ON          [  1]    ***   
       INTEGRALS            INTTYP         VMOL        [  1]    ***   
       JODA_PRINT           IJPRNT              0               ***   
       KEYWORD_OUT          IDMPKW         NO          [  0]    ***   
       LINDEP_TOL           ILINDP              8               ***   
       LINEQ_CONV           IZTACN          10D-  7           cycles  
       LINEQ_EXPOR          ILMAXD              5               ***   
       LINEQ_MAXCY          ILMAXC            100               ***   
       LINEQ_TYPE           ILTYPE         DIIS        [  1]    ***   
       LOCK_ORBOCC          ILOCOC         OFF         [  0]    ***   
       MEMORY_SIZE          IMEMSZ         *********           words  
       MEM_UNIT             IMEMU          GB          [  3]    ***   
       MRCC                 IMRCCC         OFF         [  0]    ***   
       MULTIPLICTY          IMULTP              1               ***   
       NACOUPLING           IVCOUP         OFF         [  0]    ***   
       NEGEVAL              IDIE           ABORT       [  0]    ***   
       NEWNORM              INEWNO         OFF         [  0]    ***   
       NON-HF               INONHF         OFF         [  0]    ***   
       NTOP_TAMP            ITOPT2             15               ***   
       NUC_MODEL            INUCMO         POINT       [  0]    ***   
       OCCUPATION           IOCCU   ESTIMATED BY SCF 
       OPEN-SHELL           IOPEN          SPIN-ORBITAL[  0]    ***   
       OPTVIB               IOPTVB         OFF         [  0]    ***   
       ORBITALS             IORBTP         STANDARD    [  0]    ***   
       PARALLEL             IPARAL         ON          [  1]    ***   
       PARA_INT             IPINTS         ON          [  1]    ***   
       PARA_PRINT           IPPRIN              0               ***   
       PERT_ORB             IPTORB         STANDARD    [  0]    ***   
       POINTS               IGRDFD              0               ***   
       PRINT                IPRNT               0               ***   
       PROPS                IPROPS         OFF         [  0]    ***   
       PROP_INTEGR          IINTYP         INTERNAL    [  0]    ***   
       PSI                  IPSI           OFF         [  0]    ***   
       QC_ALG               IQCALG         FLM         [  0]    ***   
       QC_LINALG            IQCLIN         TRIDIAG     [  2]    ***   
       QC_MAXCYC            IQCMAX          10D-100           cycles  
       QC_MAXSCFCY          IQCMSC          10D- 15           cycles  
       QC_RTRUST            IQCRTR          10D-  0           x 10-3  
       QC_SKIPSCF           IQCSKI         OFF         [  0]    ***   
       QC_START             IQCSTA          10D-  1             ***   
       QRHFGUESS            IQGUES         OFF         [  0]    ***   
       QUARTIC              IQUART         OFF         [  0]    ***   
       RAMAN_INT            IRAMIN         OFF         [  0]    ***   
       RAMAN_ORB            IRAMRE         UNRELAXED   [  0]    ***   
       RDO                  IRDOFM         OFF         [  0]    ***   
       REDUCE_REPR          REDREP         Ir          [  0]    ***   
       REFERENCE            IREFNC         RHF         [  0]    ***   
       RELATIVIST           IRELAT         OFF         [  0]    ***   
       RELAX_DENS           IRDENS         OFF         [  0]    ***   
       RESET_FLAGS          IRESET         OFF         [  0]    ***   
       RESTART_CC           ICCRES         OFF         [  0]    ***   
       ROT_EVEC             ROTVEC              0               ***   
       SAVE_INTS            ISVINT         OFF         [  0]    ***   
       SCALE_ON             ISTCRT              0               ***   
       SCF_CONV             ISCFCV          10D-  7             ***   
       SCF_DAMPING          IDAMP               0             x 10-3  
       SCF_EXPORDE          IRPPOR              6               ***   
       SCF_EXPSTAR          IRPPLS              8               ***   
       SCF_EXTRAPO          IRPP           ON          [  1]    ***   
       SCF_MAXCYC           ISCFCY            150              cycles 
       SCF_NOSTOP           ISCFST         OFF         [  0]    ***   
       SCF_PRINT            ISCFPR              0               ***   
       SCF_PROG             ISCFPR         SCF         [  0]    ***   
       SD_FIELD             IFINSD              0             x 10-6  
       SOPERT               IPERSO         OFF         [  0]    ***   
       SPHERICAL            IDFGHI         ON          [  1]    ***   
       SPINORBIT            ISOCAL         OFF         [  0]    ***   
       SPINROTATIO          ISRCON         OFF         [  0]    ***   
       SPIN_FLIP            ISPFLP         OFF         [  0]    ***   
       SPIN_ORBIT           ISPORB         OFF         [  0]    ***   
       SPIN_SCAL            ISCSMP         OFF         [  0]    ***   
       STEEPSCALE           ISTPSC              1000          x 10-3  
       SUBGROUP             ISUBGP         DEFAULT     [  0]    ***   
       SUBGRPAXIS           ISBXYZ         X           [  0]    ***   
       SYMMETRY             ISYM           ON          [  0]    ***   
       SYM_CHECK            ISYMCK         OVERRIDE    [  1]    ***   
       T3_EXTRAPOL          IT3EXT         OFF         [  0]    ***   
       T4_EXTRAPOL          IT4EXP         OFF         [  0]    ***   
       TAMP_SUM             IEVERY              5               ***   
       TESTSUITE            ITESTS         OFF         [  0]    ***   
       THERMOCH             ITHERM         OFF         [  0]    ***   
       TOL_CHOLESK          ITOLCH          10D-  4             ***   
       TRANGRAD             IRESRM         OFF         [  0]    ***   
       TRANS_INV            ITRAIN         USE         [  0]    ***   
       TREAT_PERT           ITREAT         SIMULTANEOUS[  0]    ***   
       TRIP_ALGORI          ITRALG         NORMAL      [  0]    ***   
       UIJ_THRESHO          IUIJTH              1               ***   
       UNITS                IUNITS         ANGSTROM    [  0]    ***   
       UNOS                 IUNOS          OFF         [  0]    ***   
       UPDATE_HESS          IHUPDT         ON          [  1]    ***   
       VIBPHASE             ISETPH         STANDARD    [  0]    ***   
       VIBRATION            IVIB           NO          [  0]    ***   
       VIB_ALGORIT          IGEALG         STANDARD    [  0]    ***   
       VNATORB              IVNORB         OFF         [  0]    ***   
       VTRAN                IVTRAN         FULL/PARTIAL[  0]    ***   
       XFIELD               IXEFLD              0             x 10-6  
       XFORM_TOL            IXFTOL          10D- 11             ***   
       YFIELD               IYEFLD              0             x 10-6  
       ZFIELD               IZEFLD              0             x 10-6  
       ZSCALE_EXP           IZEXPS         OFF         [  0]    ***   
    -------------------------------------------------------------------
  @GETXYZ-I,     7 atoms read from ZMAT.
   Rotational constants (in cm-1): 
          0.8536890782             1.0369731685             4.2391495515
   Rotational constants (in MHz): 
      25592.9582983935         31087.6778625645        127086.5241921405
********************************************************************************
   The full molecular point group is C2v .
   The largest Abelian subgroup of the full molecular point group is C2v .
   The computational point group is C2v .
********************************************************************************


 ----------------------------------------------------------------
         Coordinates used in calculation (QCOMP) 
 ----------------------------------------------------------------
 Z-matrix   Atomic            Coordinates (in bohr)
  Symbol    Number           X              Y              Z
 ----------------------------------------------------------------
     C         6        -1.25572327     0.00000000    -0.03279220
     C         6         1.25572327     0.00000000    -0.03279220
     H         1        -2.19034422     1.81857454    -0.03279220
     H         1         2.19034422     1.81857454    -0.03279220
     H         1        -2.19034422    -1.81857454    -0.03279220
     H         1         2.19034422    -1.81857454    -0.03279220
     H         1         0.00000000     0.00000000     0.91207106
 ----------------------------------------------------------------
 
   Interatomic distance matrix (Angstroms) 
 
                 C             C             H             H             H    
                [ 1]        [ 2]        [ 3]        [ 4]        [ 5]
  C    [ 1]     0.00000
  C    [ 2]     1.32900     0.00000
  H    [ 3]     1.08200     2.06193     0.00000
  H    [ 4]     2.06193     1.08200     2.31816     0.00000
  H    [ 5]     1.08200     2.06193     1.92470     3.01303     0.00000
  H    [ 6]     2.06193     1.08200     3.01303     1.92470     2.31816
  H    [ 7]     0.83160     0.83160     1.58732     1.58732     1.58732
 
                 H             H    
                [ 6]        [ 7]
  H    [ 6]     0.00000
  H    [ 7]     1.58732     0.00000
 rotcon2
   Rotational constants (in cm-1): 
          4.2391495515             1.0369731685             0.8536890782
   Rotational constants (in MHz): 
     127086.5241921405         31087.6778625645         25592.9582983935
  ECPDATA file not present.   Using default ECPDATA. 
  There are   57 basis functions.
 @GEOPT-W, Archive file not created for single-point calculation.
 @CHECKOUT-I, Total execution time (CPU/WALL):        0.14/       0.16 seconds.
--executable xjoda finished with status     0 in        0.18 seconds (walltime).
 --invoking executable--
/home/tsommerfeld/zscale/bin/xvmol
 SERIAL VERSION OF MOLECULE STARTED
********************************************************************************
                    INPUT FROM MOL FILE
********************************************************************************
INTGRL        1    0    1    0    0    0    0    0    0                         
         *** CFOUR Program System (Release V0.1) ***                            
h_ethylene                                                                      
    3    2 X  Y       0.10E-08              0    0                              
   9999.00      3.00                                                            
          6.00000000    1    3    1    1    1                                   
C #1  -1.255723272983657   0.000000000000000  -0.032792201647864                
    9    3                                                                      
   6665.00000000000       6.920000000000000E-004 -1.460000000000000E-004        
  0.000000000000000E+000                                                        
   1000.00000000000       5.329000000000000E-003 -1.154000000000000E-003        
  0.000000000000000E+000                                                        
   228.000000000000       2.707700000000000E-002 -5.725000000000000E-003        
  0.000000000000000E+000                                                        
   64.7100000000000       0.101718000000000      -2.331200000000000E-002        
  0.000000000000000E+000                                                        
   21.0600000000000       0.274740000000000      -6.395500000000000E-002        
  0.000000000000000E+000                                                        
   7.49500000000000       0.448564000000000      -0.149981000000000             
  0.000000000000000E+000                                                        
   2.79700000000000       0.285074000000000      -0.127262000000000             
  0.000000000000000E+000                                                        
  0.521500000000000       1.520400000000000E-002  0.544529000000000             
  0.000000000000000E+000                                                        
  0.159600000000000      -3.191000000000000E-003  0.580496000000000             
   1.00000000000000                                                             
    4    2                                                                      
   9.43900000000000       3.810900000000000E-002  0.000000000000000E+000        
   2.00200000000000       0.209480000000000       0.000000000000000E+000        
  0.545600000000000       0.508557000000000       0.000000000000000E+000        
  0.151700000000000       0.468842000000000        1.00000000000000             
    1    1                                                                      
  0.550000000000000        1.00000000000000                                     
          1.00000000    1    2    1    1                                        
H #2  -2.190344215575466   1.818574537711477  -0.032792201647864                
    4    2                                                                      
   13.0100000000000       1.968500000000000E-002  0.000000000000000E+000        
   1.96200000000000       0.137977000000000       0.000000000000000E+000        
  0.444600000000000       0.478148000000000       0.000000000000000E+000        
  0.122000000000000       0.501240000000000        1.00000000000000             
    1    1                                                                      
  0.727000000000000        1.00000000000000                                     
          1.00000000    1    2    1    1                                        
H #3   0.000000000000000   0.000000000000000   0.912071058685964                
    5    3                                                                      
   13.0100000000000       1.968500000000000E-002  0.000000000000000E+000        
  0.000000000000000E+000                                                        
   1.96200000000000       0.137977000000000       0.000000000000000E+000        
  0.000000000000000E+000                                                        
  0.444600000000000       0.478148000000000       0.000000000000000E+000        
  0.000000000000000E+000                                                        
  0.122000000000000       0.501240000000000        1.00000000000000             
  0.000000000000000E+000                                                        
  2.974000000000000E-002  0.000000000000000E+000  0.000000000000000E+000        
   1.00000000000000                                                             
    2    2                                                                      
  0.727000000000000        1.00000000000000       0.000000000000000E+000        
  0.141000000000000       0.000000000000000E+000   1.00000000000000             
FINISH                                                                          
 
********************************************************************************
 ONE- AND TWO-ELECTRON INTEGRALS OVER SYMMETRY-ADAPTED AOS ARE CALCULATED.

  SPHERICAL HARMONICS ARE USED.
  
  INTEGRALS LESS THAN  0.10E-13 ARE NEGLECTED.

  NUCLEAR REPULSION ENERGY :   42.5587514304 A.U.
  @MOLECU-I, ONE ELECTRON INTEGRALS (CPU/WALL):        0.01/       0.01 SECONDS.
  @TWOEL-I,      29572 INTEGRALS OF SYMMETRY TYPE  I I I I
  @TWOEL-I,     102291 INTEGRALS OF SYMMETRY TYPE  I J I J
  @TWOEL-I,      58089 INTEGRALS OF SYMMETRY TYPE  I I J J
  @TWOEL-I,      75480 INTEGRALS OF SYMMETRY TYPE  I J K L
  @TWOEL-I, TOTAL NUMBER OF 2-E INTEGRALS     265432.
  @MOLECU-I, TWO ELECTRON INTEGRALS (CPU/WALL):        0.25/       0.26 SECONDS.
 @CHECKOUT-I, Total execution time (CPU/WALL):        0.27/       0.28 seconds.

Running with 8 threads/proc

--executable xvmol finished with status     0 in        0.30 seconds (walltime).
 --invoking executable--
/home/tsommerfeld/zscale/bin/xvmol2ja
 @GETMEM-I,  Allocated   85830 MB of main memory.
 @CHECKOUT-I, Total execution time (CPU/WALL):        0.02/       0.01 seconds.
--executable xvmol2ja finished with status     0 in        0.03 seconds (walltime).
 --invoking executable--
/home/tsommerfeld/zscale/bin/xvscf
  There are   57 functions in the AO basis.

  There are 4 irreducible representations.

       Irrep        # of functions
         1                 20
         2                 17
         3                 11
         4                  9


  Parameters for SCF calculation: 
        SCF reference function:  RHF  
  Maximum number of iterations:  150
     Full symmetry point group: C2v 
     Computational point group: C2v 
        Initial density matrix: MOREAD                 
     SCF convergence tolerance: 10**(- 7)
  DIIS convergence acceleration:  ON
          Latest start for DIIS:   8
                     DIIS order:   6

  Memory information:     156410 words required.
  Fock matrices are constructed from AO integral file.
 @GETMEM-I,  Allocated       1 MB of main memory.
  Initialization and symmetry analysis required      0.002 seconds.

  @INITGES-I, Occupancies from core Hamiltonian:

          Alpha population by irrep:   3    4    1    1
           Beta population by irrep:   3    4    1    1


 total no. of electrons in initial guess :  0.000000000000000E+000
  --------------------------------------------------------------------
  Iteration         Total Energy            Largest Density Difference
  --------------------------------------------------------------------
       0            42.558751430410261              0.0000000000D+00
   current occupation vector 
     3  4  1  1
     3  4  1  1
       1           -62.239319009852132              0.9524508805D+01
   current occupation vector 
     3  4  1  1
     3  4  1  1
       2           -64.244840089413344              0.4455651655D+03
   current occupation vector 
     4  3  1  1
     4  3  1  1
       3           -71.926521177173015              0.4453049184D+03
   current occupation vector 
     4  3  1  1
     4  3  1  1
       4           -69.732353465177624              0.2249825875D+03
   current occupation vector 
     4  3  1  1
     4  3  1  1
       5           -73.782516372083421              0.2248344283D+03
   current occupation vector 
     4  3  1  1
     4  3  1  1
       6           -72.424179187770989              0.9600900445D+02
   current occupation vector 
     4  3  1  1
     4  3  1  1
       7           -74.921504752187360              0.9606829530D+02
   current occupation vector 
     4  3  1  1
     4  3  1  1
       8           -73.863765373405727              0.3524868463D+02
   current occupation vector 
     4  3  1  1
     4  3  1  1
       9           -77.824619738298509              0.3591324760D+02
   current occupation vector 
     4  3  1  1
     4  3  1  1
      10           -78.068989245188362              0.4128895337D+00
   current occupation vector 
     4  3  1  1
     4  3  1  1
      11           -78.071054315066107              0.1346268187D+00
   current occupation vector 
     4  3  1  1
     4  3  1  1
      12           -78.071265045294354              0.4313214293D-01
   current occupation vector 
     4  3  1  1
     4  3  1  1
      13           -78.071318601539645              0.2091960626D-01
   current occupation vector 
     4  3  1  1
     4  3  1  1
      14           -78.071344457405957              0.1465316035D-01
   current occupation vector 
     4  3  1  1
     4  3  1  1
      15           -78.071347448947591              0.4631176776D-02
   current occupation vector 
     4  3  1  1
     4  3  1  1
      16           -78.071347484212623              0.3066819033D-03
   current occupation vector 
     4  3  1  1
     4  3  1  1
      17           -78.071347486741388              0.1077739432D-03
   current occupation vector 
     4  3  1  1
     4  3  1  1
      18           -78.071347486951311              0.3669181325D-04
   current occupation vector 
     4  3  1  1
     4  3  1  1
      19           -78.071347486956398              0.4046194725D-05
   current occupation vector 
     4  3  1  1
     4  3  1  1
      20           -78.071347486956654              0.8128339754D-06
   current occupation vector 
     4  3  1  1
     4  3  1  1
      21           -78.071347486956796              0.1487641695D-06
   current occupation vector 
     4  3  1  1
     4  3  1  1
      22           -78.071347486956796              0.1406657296D-06
   current occupation vector 
     4  3  1  1
     4  3  1  1
      23           -78.071347486956711              0.1325487516D-06
   current occupation vector 
     4  3  1  1
     4  3  1  1

  SCF has converged.

 Density matrix saved to file den.dat
 total electron number:   18.0000000000001     
     E(SCF)=       -78.071347486956654              0.3905818988D-07


  Final occupancies:

     Alpha population by irrep:   4    3    1    1
      Beta population by irrep:   4    3    1    1


  Eigenvector printing suppressed.

 @PUTMOS-I, Writing converged MOs to NEWMOS. 
 @PUTMOS-I, Symmetry   1 Full Blocks  5 Partial Blocksize   0
 @PUTMOS-I, Symmetry   2 Full Blocks  4 Partial Blocksize   1
 @PUTMOS-I, Symmetry   3 Full Blocks  2 Partial Blocksize   3
 @PUTMOS-I, Symmetry   4 Full Blocks  2 Partial Blocksize   1
 @PUTFOCK-I, Writing converged Fock matrix to NEWFOCK. 
 @PUTFOCK-I, Symmetry   1 Full Blocks  5 Partial Blocksize   0
 @PUTFOCK-I, Symmetry   2 Full Blocks  4 Partial Blocksize   1
 @PUTFOCK-I, Symmetry   3 Full Blocks  2 Partial Blocksize   3
 @PUTFOCK-I, Symmetry   4 Full Blocks  2 Partial Blocksize   1


 
  ORBITAL EIGENVALUES (ALPHA)  (1H = 27.2113834 eV)

       MO #        E(hartree)               E(eV)           FULLSYM    COMPSYM
       ----   --------------------   --------------------   -------   ---------
    1     1         -10.9091655421        -296.8534861391      A1        A1 (1)
    2    21         -10.9076910380        -296.8133628443      B1        B1 (2)
    3     2          -0.9884748630         -26.8977684795      A1        A1 (1)
    4    22          -0.4950339450         -13.4705584747      B1        B1 (2)
    5     3          -0.3968292132         -10.7982718641      A1        A1 (1)
    6    38          -0.3859018705         -10.5009237533      B2        B2 (3)
    7    49          -0.2304359982          -6.2704822962      A2        A2 (4)
    8     4          -0.2067229958          -5.6252186974      A1        A1 (1)
    9    23           0.1080151350           2.9392412502      B1        B1 (2)
  +++++++++++++++++++++++++++++++++++++++++++++++++++++++++++++++++++++++++++++
   10     5           0.2276027490           6.1933856657      A1        A1 (1)
   11    39           0.4314003951          11.7390015497      B2        B2 (3)
   12    24           0.4592309258          12.4963087898      B1        B1 (2)
   13     6           0.4660125446          12.6808460205      A1        A1 (1)
   14    50           0.5064497151          13.7811973700      A2        A2 (4)
   15     7           0.5548600233          15.0985088277      A1        A1 (1)
   16    40           0.6187765344          16.8377655170      B2        B2 (3)
   17    25           0.6700169372          18.2320877619      B1        B1 (2)
   18     8           0.6766460097          18.4124739966      A1        A1 (1)
   19    26           0.7533301248          20.4991548525      B1        B1 (2)
   20     9           0.8835375893          24.0422800915      A1        A1 (1)
   21    41           0.9494521430          25.8359062818      B2        B2 (3)
   22    10           0.9754434544          26.5431658222      A1        A1 (1)
   23    27           0.9777442671          26.6057741192      B1        B1 (2)
   24    42           1.1020631063          29.9886617155      B2        B2 (3)
   25    28           1.1280973779          30.6970902633      B1        B1 (2)
   26    11           1.1384882258          30.9798396077      A1        A1 (1)
   27    51           1.2016401368          32.6982904712      A2        A2 (4)
   28    29           1.2574872500          34.2179676805      B1        B1 (2)
   29    12           1.4208069312          38.6621221413      A1        A1 (1)
   30    52           1.5531383506          42.2630431302      A2        A2 (4)
   31    13           1.5561080913          42.3438538829      A1        A1 (1)
   32    53           1.6049687747          43.6734206725      A2        A2 (4)
   33    43           1.6418741611          44.6776672920      B2        B2 (3)
   34    30           1.8183594181          49.4800752837      B1        B1 (2)
   35    14           1.8781205648          51.1062587602      A1        A1 (1)
   36    54           1.8834296719          51.2507269083      A2        A2 (4)
   37    44           1.9710479996          53.6349428162      B2        B2 (3)
   38    31           2.0826665388          56.6722376821      B1        B1 (2)
   39    45           2.1486377996          58.4674069536      B2        B2 (3)
   40    32           2.1997505169          59.8582547007      B1        B1 (2)
   41    15           2.2251631309          60.5497670813      A1        A1 (1)
   42    16           2.2461407883          61.1205981621      A1        A1 (1)
   43    46           2.2736995206          61.8705093926      B2        B2 (3)
   44    33           2.4368563685          66.3102329348      B1        B1 (2)
   45    34           2.5663284461          69.8333472782      B1        B1 (2)
   46    55           2.6827843780          73.0022742906      A2        A2 (4)
   47    17           2.7104596698          73.7553572656      A1        A1 (1)
   48    56           2.7577666721          75.0426462414      A2        A2 (4)
   49    35           2.8221739069          76.7952562026      B1        B1 (2)
   50    18           2.8414101609          77.3187012839      A1        A1 (1)
   51    47           3.0507881219          83.0161652569      B2        B2 (3)
   52    19           3.1122876222          84.6896517388      A1        A1 (1)
   53    48           3.2825067135          89.3215486947      B2        B2 (3)
   54    36           3.5931527410          97.7746568505      B1        B1 (2)
   55    57           3.6175536350          98.4386389314      A2        A2 (4)
   56    37           4.3777950623         119.1258598859      B1        B1 (2)
   57    20           4.4159547576         120.1642379850      A1        A1 (1)


  VSCF finished.

 @CHECKOUT-I, Total execution time (CPU/WALL):        0.29/       0.12 seconds.
--executable xvscf finished with status     0 in        0.14 seconds (walltime).
 --invoking executable--
/home/tsommerfeld/zscale/bin/xvtran
 @GETMEM-I,  Allocated   85830 MB of main memory.
  Full RHF integral transformation
  Transformation of IIII integrals :
  1 pass through the AO integral file was required.
       29572 AO integrals were read.
       37182 MO integrals were written to HF2.
  Transformation of IIJJ integrals :
  1 pass through the AO integral file was required.
       58089 AO integrals were read.
       75393 MO integrals were written to HF2.
  Transformation of IJIJ integrals :
  1 pass through the AO integral file was required.
      102291 AO integrals were read.
      132879 MO integrals were written to HF2.
  Transformation of IJKL integrals :
  1 pass through the AO integral file was required.
       75480 AO integrals were read.
      100980 MO integrals were written to HF2.
  Summary of active molecular orbitals: 
------------------------------------------------------------------------
 
  Index      Eigenvalue    Symmetry    Index      Eigenvalue    Symmetry
------------------------------------------------------------------------
     1       -10.9091655        1        30         1.1280974        2
     2        -0.9884749        1        31         1.2574873        2
     3        -0.3968292        1        32         1.8183594        2
     4        -0.2067230        1        33         2.0826665        2
     5       -10.9076910        2        34         2.1997505        2
     6        -0.4950339        2        35         2.4368564        2
     7         0.1080151        2        36         2.5663284        2
     8        -0.3859019        3        37         2.8221739        2
     9        -0.2304360        4        38         3.5931527        2
    10         0.2276027        1        39         4.3777951        2
    11         0.4660125        1        40         0.4314004        3
    12         0.5548600        1        41         0.6187765        3
    13         0.6766460        1        42         0.9494521        3
    14         0.8835376        1        43         1.1020631        3
    15         0.9754435        1        44         1.6418742        3
    16         1.1384882        1        45         1.9710480        3
    17         1.4208069        1        46         2.1486378        3
    18         1.5561081        1        47         2.2736995        3
    19         1.8781206        1        48         3.0507881        3
    20         2.2251631        1        49         3.2825067        3
    21         2.2461408        1        50         0.5064497        4
    22         2.7104597        1        51         1.2016401        4
    23         2.8414102        1        52         1.5531384        4
    24         3.1122876        1        53         1.6049688        4
    25         4.4159548        1        54         1.8834297        4
    26         0.4592309        2        55         2.6827844        4
    27         0.6700169        2        56         2.7577667        4
    28         0.7533301        2        57         3.6175536        4
    29         0.9777443        2
------------------------------------------------------------------------
  -10.9091655420617      -0.988474863040255      -0.396829213177006     
 -0.206722995839839       -10.9076910380193      -0.495033945047453     
  0.108015134954316      -0.385901870512659      -0.230435998198881     
  0.227602748992834       0.466012544606797       0.554860023311435     
  0.676646009721513       0.883537589327282       0.975443454382744     
   1.13848822576661        1.42080693116643        1.55610809125214     
   1.87812056479856        2.22516313085728        2.24614078834717     
   2.71045966981533        2.84141016086216        3.11228762219981     
   4.41595475755879       0.459230925753516       0.670016937171022     
  0.753330124791284       0.977744267097904        1.12809737792566     
   1.25748725000469        1.81835941805559        2.08266653881590     
   2.19975051693572        2.43685636852892        2.56632844613971     
   2.82217390691543        3.59315274101248        4.37779506226397     
  0.431400395088721       0.618776534420703       0.949452142951090     
   1.10206310626393        1.64187416109111        1.97104799957482     
   2.14863779963485        2.27369952064329        3.05078812189083     
   3.28250671352108       0.506449715084495        1.20164013679815     
   1.55313835055397        1.60496877466759        1.88342967187231     
   2.68278437804637        2.75776667207027        3.61755363497663     
 @CHECKOUT-I, Total execution time (CPU/WALL):        0.56/       0.10 seconds.
--executable xvtran finished with status     0 in        0.12 seconds (walltime).
 --invoking executable--
/home/tsommerfeld/zscale/bin/xintprc
 @GETMEM-I,  Allocated   85830 MB of main memory.
  Processing integrals for CCSD calculation.
  @GMOIAA-I, Processing MO integrals for spin case AA.
  @GMOIAA-I, Generation of integral list completed.
                      TYPE                NUMBER
                      ----               --------
                      PPPP                174812
                      PPPH                128480
                      PPHH                 23996
                      PHPH                 13708
                      PHHH                  5120
                      HHHH                   318

                     TOTAL                346434

  @FORMT2-I, Second-order MP correlation energies:
            ------------------------------------------------
            E(SCF)                  =    -78.071347486957 a.u.
            E2(AA)                  =     -0.039066125278 a.u.
            E2(AB)                  =     -0.246867525049 a.u.
            E2(TOT)                 =     -0.324999775605 a.u.
            Total MP2 energy        =    -78.396347262561 a.u.
            ------------------------------------------------
   Largest T2 amplitudes for spin case AB:
       _       _                 _       _                 _       _
   i   j   a   b             i   j   a   b             i   j   a   b
-----------------------------------------------------------------------------
[  7   7  29  29]-0.03793 [  4   4  14  14]-0.02873 [  7   4  29  14] 0.02587
[  4   7  14  29] 0.02587 [  7   7  28  28]-0.02246 [  9   9  42  42]-0.01919
[  7   7  17  17]-0.01811 [  8   7  40  29] 0.01743 [  7   8  29  40] 0.01743
[  8   8  40  40]-0.01712 [  9   9  51  51]-0.01660 [  8   8  42  42]-0.01645
[  9   7  50  29] 0.01583 [  7   9  29  50] 0.01583 [  9   7  51  29] 0.01575
-----------------------------------------------------------------------------
   Norm of T2AB vector (    47560 symmetry allowed elements):  0.2884728832.
-----------------------------------------------------------------------------
 @CHECKOUT-I, Total execution time (CPU/WALL):        0.41/       0.10 seconds.
--executable xintprc finished with status     0 in        0.11 seconds (walltime).
  calling xvcc 
 --invoking executable--
/home/tsommerfeld/zscale/bin/xvcc
 @GETMEM-I,  Allocated   85830 MB of main memory.
   CCSD energy will be calculated.
   The total correlation energy is -0.324999775605 a.u.
   The total correlation energy is -0.343672810824 a.u.
  Convergence information after     1 iterations: 
  Largest element of residual vector :  0.75704953E-02.
  Largest element of DIIS residual   :  0.75704953E-02.
   The total correlation energy is -0.350228877200 a.u.
  Convergence information after     2 iterations: 
  Largest element of residual vector : -0.25352578E-02.
  Largest element of DIIS residual   : -0.24720699E-02.
   The total correlation energy is -0.352130088099 a.u.
  Convergence information after     3 iterations: 
  Largest element of residual vector :  0.19226712E-02.
  Largest element of DIIS residual   :  0.16372524E-02.
   The total correlation energy is -0.352582041646 a.u.
  Convergence information after     4 iterations: 
  Largest element of residual vector : -0.69602061E-03.
  Largest element of DIIS residual   : -0.67347797E-03.
   The total correlation energy is -0.352639439090 a.u.
  Convergence information after     5 iterations: 
  Largest element of residual vector :  0.29532217E-03.
  Largest element of DIIS residual   : -0.16534247E-03.
   The total correlation energy is -0.352639531337 a.u.
  Convergence information after     6 iterations: 
  Largest element of residual vector : -0.13818262E-03.
  Largest element of DIIS residual   : -0.11018011E-03.
   The total correlation energy is -0.352637540882 a.u.
  Convergence information after     7 iterations: 
  Largest element of residual vector : -0.78756073E-04.
  Largest element of DIIS residual   : -0.57013440E-04.
   The total correlation energy is -0.352635271186 a.u.
  Convergence information after     8 iterations: 
  Largest element of residual vector : -0.48946762E-04.
  Largest element of DIIS residual   : -0.37113389E-04.
   The total correlation energy is -0.352635909145 a.u.
  Convergence information after     9 iterations: 
  Largest element of residual vector : -0.25218556E-04.
  Largest element of DIIS residual   : -0.16450235E-04.
   The total correlation energy is -0.352636410537 a.u.
  Convergence information after    10 iterations: 
  Largest element of residual vector : -0.15155354E-04.
  Largest element of DIIS residual   : -0.95544884E-05.
   The total correlation energy is -0.352636648515 a.u.
  Convergence information after    11 iterations: 
  Largest element of residual vector : -0.64633600E-05.
  Largest element of DIIS residual   : -0.26978275E-05.
   The total correlation energy is -0.352636700209 a.u.
  Convergence information after    12 iterations: 
  Largest element of residual vector : -0.26944436E-05.
  Largest element of DIIS residual   :  0.11124006E-05.
   The total correlation energy is -0.352636699455 a.u.
  Convergence information after    13 iterations: 
  Largest element of residual vector : -0.70107263E-06.
  Largest element of DIIS residual   : -0.38040182E-06.
   The total correlation energy is -0.352636694598 a.u.
  Convergence information after    14 iterations: 
  Largest element of residual vector : -0.31922779E-06.
  Largest element of DIIS residual   : -0.11043949E-06.
   The total correlation energy is -0.352636689371 a.u.
  Convergence information after    15 iterations: 
  Largest element of residual vector : -0.14000209E-06.
  Largest element of DIIS residual   : -0.91233793E-07.
   The total correlation energy is -0.352636686972 a.u.
  Convergence information after    16 iterations: 
  Largest element of residual vector : -0.50829465E-07.
  Largest element of DIIS residual   : -0.50153601E-07.
  Amplitude equations converged in    16iterations.
   The total correlation energy is -0.352636686811 a.u.
   The CC iterations have converged.

   Largest T1 amplitudes for spin case AA:
   i       a                 i       a                 i       a    
-----------------------------------------------------------------------------
[  4      10    ] 0.01191 [  8      42    ] 0.00729 [  4      13    ] 0.00652
[  7      29    ]-0.00628 [  3      12    ]-0.00593 [  8      41    ] 0.00587
[  6      28    ] 0.00561 [  7      26    ]-0.00550 [  4      12    ]-0.00541
[  9      51    ] 0.00517 [  9      56    ] 0.00498 [  6      26    ]-0.00495
[  3      11    ]-0.00485 [  8      43    ] 0.00483 [  7      27    ]-0.00464
-----------------------------------------------------------------------------
   Norm of T1AA vector (      124 symmetry allowed elements):  0.0293764444.
-----------------------------------------------------------------------------
   Largest T2 amplitudes for spin case AB:
       _       _                 _       _                 _       _
   i   j   a   b             i   j   a   b             i   j   a   b
-----------------------------------------------------------------------------
[  7   7  29  29]-0.04127 [  4   4  14  14]-0.02993 [  7   4  29  14] 0.02677
[  4   7  14  29] 0.02677 [  7   7  28  28]-0.02407 [  9   9  42  42]-0.02401
[  7   7  11  11]-0.02124 [  7   7  26  26]-0.02108 [  8   8  42  42]-0.01877
[  9   9  51  51]-0.01841 [  8   8  40  40]-0.01837 [  7   7  17  17]-0.01830
[  7   7  14  14]-0.01744 [  9   9  50  50]-0.01698 [  8   7  40  29] 0.01678
-----------------------------------------------------------------------------
   Norm of T2AB vector (    47560 symmetry allowed elements):  0.3336703607.
-----------------------------------------------------------------------------
       Summary of iterative solution of CC equations 
      -----------------------------------------------------------
                       Correlation           Total
       Iteration         Energy              Energy
      -----------------------------------------------------------
            0        -0.324999775605     -78.396347262561  DIIS 
            1        -0.343672810824     -78.415020297780  DIIS 
            2        -0.350228877200     -78.421576364157  DIIS 
            3        -0.352130088099     -78.423477575056  DIIS 
            4        -0.352582041646     -78.423929528603  DIIS 
            5        -0.352639439090     -78.423986926046  DIIS 
            6        -0.352639531337     -78.423987018293  DIIS 
            7        -0.352637540882     -78.423985027838  DIIS 
            8        -0.352635271186     -78.423982758143  DIIS 
            9        -0.352635909145     -78.423983396102  DIIS 
           10        -0.352636410537     -78.423983897493  DIIS 
           11        -0.352636648515     -78.423984135471  DIIS 
           12        -0.352636700209     -78.423984187165  DIIS 
           13        -0.352636699455     -78.423984186412  DIIS 
           14        -0.352636694598     -78.423984181555  DIIS 
           15        -0.352636689371     -78.423984176327  DIIS 
           16        -0.352636686811     -78.423984173768  DIIS 
      -----------------------------------------------------------
      A miracle has come to pass. The CC iterations have converged.
      The reference energy is       -78.07134748695665 a.u.
      The correlation energy is      -0.35263668681144 a.u.
      The total energy is           -78.42398417376809 a.u.
 @CHECKOUT-I, Total execution time (CPU/WALL):        5.29/       0.67 seconds.
--executable xvcc finished with status     0 in        0.69 seconds (walltime).
 --invoking executable--
/home/tsommerfeld/zscale/bin/xlambda
 @GETMEM-I,  Allocated   85830 MB of main memory.
 Hbar is calculated for a CCSD wave function.
 Calculation of Hbar completed.
 @CHECKOUT-I, Total execution time (CPU/WALL):        0.82/       0.11 seconds.
--executable xlambda finished with status     0 in        0.13 seconds (walltime).
 --invoking executable--
/home/tsommerfeld/zscale/bin/xvee
 @GETMEM-I,  Allocated   85830 MB of main memory.
  cc2 and ccprog  F                     0
  EOMEE-CCSD excitation energies will be evaluated.
  @SETMET-I, VPROP property integrals are used.
  @SETMET-I, A total of   3 target states will be studied.
  Summary of active alpha molecular orbitals:
------------------------------------------------------------------------------
Orbital      Sym   Eigenvalue  <xx>     <yy>     <zz>     <xy>     <xz>     <yz>
        SCF
  #  position
------------------------------------------------------------------------------
   1      1    1     -10.9092   0.000    0.000    0.000    0.000    0.000    0.000
   2      3    1      -0.9885   0.000    0.000    0.000    0.000    0.000    0.000
   3      5    1      -0.3968   0.000    0.000    0.000    0.000    0.000    0.000
   4      8    1      -0.2067   0.000    0.000    0.000    0.000    0.000    0.000
   5      2    2     -10.9077   0.000    0.000    0.000    0.000    0.000    0.000
   6      4    2      -0.4950   0.000    0.000    0.000    0.000    0.000    0.000
   7      9    2       0.1080   0.000    0.000    0.000    0.000    0.000    0.000
   8      6    3      -0.3859   0.000    0.000    0.000    0.000    0.000    0.000
   9      7    4      -0.2304   0.000    0.000    0.000    0.000    0.000    0.000
  10     10    1       0.2276   0.000    0.000    0.000    0.000    0.000    0.000
  11     13    1       0.4660   0.000    0.000    0.000    0.000    0.000    0.000
  12     15    1       0.5549   0.000    0.000    0.000    0.000    0.000    0.000
  13     18    1       0.6766   0.000    0.000    0.000    0.000    0.000    0.000
  14     20    1       0.8835   0.000    0.000    0.000    0.000    0.000    0.000
  15     22    1       0.9754   0.000    0.000    0.000    0.000    0.000    0.000
  16     26    1       1.1385   0.000    0.000    0.000    0.000    0.000    0.000
  17     29    1       1.4208   0.000    0.000    0.000    0.000    0.000    0.000
  18     31    1       1.5561   0.000    0.000    0.000    0.000    0.000    0.000
  19     35    1       1.8781   0.000    0.000    0.000    0.000    0.000    0.000
  20     41    1       2.2252   0.000    0.000    0.000    0.000    0.000    0.000
  21     42    1       2.2461   0.000    0.000    0.000    0.000    0.000    0.000
  22     47    1       2.7105   0.000    0.000    0.000    0.000    0.000    0.000
  23     50    1       2.8414   0.000    0.000    0.000    0.000    0.000    0.000
  24     52    1       3.1123   0.000    0.000    0.000    0.000    0.000    0.000
  25     57    1       4.4160   0.000    0.000    0.000    0.000    0.000    0.000
  26     12    2       0.4592   0.000    0.000    0.000    0.000    0.000    0.000
  27     17    2       0.6700   0.000    0.000    0.000    0.000    0.000    0.000
  28     19    2       0.7533   0.000    0.000    0.000    0.000    0.000    0.000
  29     23    2       0.9777   0.000    0.000    0.000    0.000    0.000    0.000
  30     25    2       1.1281   0.000    0.000    0.000    0.000    0.000    0.000
  31     28    2       1.2575   0.000    0.000    0.000    0.000    0.000    0.000
  32     34    2       1.8184   0.000    0.000    0.000    0.000    0.000    0.000
  33     38    2       2.0827   0.000    0.000    0.000    0.000    0.000    0.000
  34     40    2       2.1998   0.000    0.000    0.000    0.000    0.000    0.000
  35     44    2       2.4369   0.000    0.000    0.000    0.000    0.000    0.000
  36     45    2       2.5663   0.000    0.000    0.000    0.000    0.000    0.000
  37     49    2       2.8222   0.000    0.000    0.000    0.000    0.000    0.000
  38     54    2       3.5932   0.000    0.000    0.000    0.000    0.000    0.000
  39     56    2       4.3778   0.000    0.000    0.000    0.000    0.000    0.000
  40     11    3       0.4314   0.000    0.000    0.000    0.000    0.000    0.000
  41     16    3       0.6188   0.000    0.000    0.000    0.000    0.000    0.000
  42     21    3       0.9495   0.000    0.000    0.000    0.000    0.000    0.000
  43     24    3       1.1021   0.000    0.000    0.000    0.000    0.000    0.000
  44     33    3       1.6419   0.000    0.000    0.000    0.000    0.000    0.000
  45     37    3       1.9710   0.000    0.000    0.000    0.000    0.000    0.000
  46     39    3       2.1486   0.000    0.000    0.000    0.000    0.000    0.000
  47     43    3       2.2737   0.000    0.000    0.000    0.000    0.000    0.000
  48     51    3       3.0508   0.000    0.000    0.000    0.000    0.000    0.000
  49     53    3       3.2825   0.000    0.000    0.000    0.000    0.000    0.000
  50     14    4       0.5064   0.000    0.000    0.000    0.000    0.000    0.000
  51     27    4       1.2016   0.000    0.000    0.000    0.000    0.000    0.000
  52     30    4       1.5531   0.000    0.000    0.000    0.000    0.000    0.000
  53     32    4       1.6050   0.000    0.000    0.000    0.000    0.000    0.000
  54     36    4       1.8834   0.000    0.000    0.000    0.000    0.000    0.000
  55     46    4       2.6828   0.000    0.000    0.000    0.000    0.000    0.000
  56     48    4       2.7578   0.000    0.000    0.000    0.000    0.000    0.000
  57     55    4       3.6176   0.000    0.000    0.000    0.000    0.000    0.000
------------------------------------------------------------------------------
  @DRVTDA-I, Roots obtained by Davidson method.
  calling tda davidson                       6                     2
  after tda davidson                      6                     6
                     3                     3
  kroot is                      3
__________________________________________________________________________
    Tamm-Dancoff (CIS) Excitation Energies and Transition Moments

                Excitation         Transition Dipole         Oscillator
 Root  Symmetry  Energy         x           y           z     Strength
__________________________________________________________________________
   1       2   -0.04576      0.0000      0.0000      0.0000  .00000000D+00
__________________________________________________________________________
 
__________________________________________________________________________
  TDA excitation ergy:            -0.045764455996 a.u.   -1.2453 eV
  Total TDA electronic energy:   -78.117111942953 a.u.
 
  Dominant contributions: 
  SCF eigenvalue ordering used in list below. 
--------------------------------------------------------------------------------
    I    j    A    b
--------------------------------------------------------------------------------
    9    0   10    0  -0.9880500069 AA  
    9    0   15    0   0.1072121604 AA  
    9    0   13    0  -0.0882467355 AA  
    9    0   18    0  -0.0427487400 AA  
    8    0   12    0  -0.0315809530 AA  
    9    0   22    0   0.0212794590 AA  
    9    0   20    0   0.0167571872 AA  
    5    0   12    0  -0.0131830245 AA  
    8    0   19    0  -0.0130099341 AA  
    9    0   29    0  -0.0108986292 AA  
    8    0   28    0  -0.0081643755 AA  
    4    0   10    0   0.0074157217 AA  
    5    0   28    0  -0.0058714587 AA  
    4    0   15    0  -0.0058262666 AA  
    5    0   19    0  -0.0058259613 AA  
--------------------------------------------------------------------------------
   2       2    0.12723      0.0000      0.0000      0.0000  .00000000D+00
__________________________________________________________________________
 
__________________________________________________________________________
  TDA excitation ergy:             0.127225325082 a.u.    3.4620 eV
  Total TDA electronic energy:   -77.944122161875 a.u.
 
  Dominant contributions: 
  SCF eigenvalue ordering used in list below. 
--------------------------------------------------------------------------------
    I    j    A    b
--------------------------------------------------------------------------------
    9    0   13    0  -0.9674862186 AA  
    9    0   15    0   0.1612252845 AA  
    9    0   18    0   0.1065954212 AA  
    9    0   10    0   0.1039116489 AA  
    8    0   12    0  -0.0691939570 AA  
    9    0   22    0   0.0529213980 AA  
    9    0   26    0   0.0523326064 AA  
    8    0   17    0   0.0363437974 AA  
    8    0   28    0  -0.0304842980 AA  
    9    0   31    0  -0.0214774491 AA  
    9    0   29    0  -0.0193192298 AA  
    8    0   19    0  -0.0172113654 AA  
    5    0   12    0  -0.0160353324 AA  
    8    0   25    0   0.0147313943 AA  
    5    0   17    0   0.0129148703 AA  
--------------------------------------------------------------------------------
   3       2    0.18821      0.0000      0.0000      0.0000  .00000000D+00
__________________________________________________________________________
 
__________________________________________________________________________
  TDA excitation ergy:             0.188213082253 a.u.    5.1215 eV
  Total TDA electronic energy:   -77.883134404704 a.u.
 
  Dominant contributions: 
  SCF eigenvalue ordering used in list below. 
--------------------------------------------------------------------------------
    I    j    A    b
--------------------------------------------------------------------------------
    9    0   15    0  -0.9754016120 AA  
    9    0   13    0  -0.1708237240 AA  
    9    0   10    0  -0.0900129886 AA  
    9    0   22    0   0.0641909085 AA  
    9    0   31    0   0.0345191878 AA  
    8    0   19    0   0.0314852801 AA  
    4    0   15    0   0.0308338155 AA  
    9    0   29    0   0.0273188327 AA  
    7    0   11    0  -0.0226685551 AA  
    8    0   17    0  -0.0212944976 AA  
    4    0   13    0   0.0152610821 AA  
    4    0   22    0  -0.0141259826 AA  
    8    0   23    0   0.0132750624 AA  
    9    0   20    0   0.0116972243 AA  
    6    0   14    0  -0.0109138892 AA  
--------------------------------------------------------------------------------
__________________________________________________________________________
  @DOEOMEE-I, Excitation energies computed by the EOMEE-CCSD/CCSD-LR method.
  @DOEOMEE-I, right-hand eigenvectors will be computed.
  Beginning symmetry block   2.   3 roots requested.
  @DOEOMEE-I, Matrix dimension for diagonalization:    47674
  Creating initial guess for root
________________________________________________________________________
            Subspace          Eigenvalue           
 Iteration  Dimension   (a.u.)         (eV)       Overlap      Residual
________________________________________________________________________
  @NEWGES-I, Using TDA initial guess.
  1   1  0.1547579161D-01  0.4211176990D+00  0.0000000000D+00  0.3332808426D+00
  2   2 -0.5695840127D-01 -0.1549916895D+01  0.9755595107D+00  0.5129209630D-01
  3   3 -0.5855720886D-01 -0.1593422661D+01  0.9990260594D+00  0.1216802701D-01
  4   4 -0.5861485884D-01 -0.1594991397D+01  0.9999450141D+00  0.6354762559D-02
  5   5 -0.5863618168D-01 -0.1595571621D+01  0.9999775199D+00  0.1211980633D-02
  L-O-C-K-I-N-G O-N R-O-O-T 
  6   6 -0.5864033020D-01 -0.1595684508D+01  0.9999986966D+00  0.6679623563D-03
  7   7 -0.5864015123D-01 -0.1595679638D+01  0.9999996757D+00  0.1795635465D-03
  8   8 -0.5864049748D-01 -0.1595689060D+01  0.9999999795D+00  0.5956475029D-04
  9   9 -0.5864047325D-01 -0.1595688400D+01  0.9999999981D+00  0.1193436802D-04
 10  10 -0.5864047608D-01 -0.1595688477D+01  0.9999999999D+00  0.4497949090D-05
  Converged eigenvalue:  -5.864047608404668E-002  a.u.
   Total EOMEE-CCSD electronic energy      -78.482624649852141 a.u.
  Converged eigenvector 
  SCF eigenvalue ordering used in list below. 
--------------------------------------------------------------------------------
    I    j    A    b
--------------------------------------------------------------------------------
    9    0   10    0   0.6820591900 AA  
    9    0   15    0  -0.0722867149 AA  
    9    0   13    0   0.0616444497 AA  
    9    9   23   10  -0.0530543009 ABAB
    9    9   10   23  -0.0530543009 ABAB
    7    9   14   10   0.0350090173 ABAB
    9    7   10   14   0.0350090173 ABAB
    6    9   11   10   0.0324805782 ABAB
    9    6   10   11   0.0324805782 ABAB
    9    4   10   12   0.0318338110 ABAB
    4    9   12   10   0.0318338110 ABAB
    9    0   18    0   0.0317977075 AA  
    9    8   10   20   0.0304283567 ABAB
    8    9   20   10   0.0304283567 ABAB
    9    5   10   13   0.0272084050 ABAB
--------------------------------------------------------------------------------
  Converged eigenvector, normalized to one 
  SCF eigenvalue ordering used in list below. 
--------------------------------------------------------------------------------
    I    j    A    b
--------------------------------------------------------------------------------
    9    0   10    0   0.6820591900 AA  
    9    0   15    0  -0.0722867149 AA  
    9    0   13    0   0.0616444497 AA  
    9    9   23   10  -0.0530543009 ABAB
    9    9   10   23  -0.0530543009 ABAB
    7    9   14   10   0.0350090173 ABAB
    9    7   10   14   0.0350090173 ABAB
    6    9   11   10   0.0324805782 ABAB
    9    6   10   11   0.0324805782 ABAB
    9    4   10   12   0.0318338110 ABAB
    4    9   12   10   0.0318338110 ABAB
    9    0   18    0   0.0317977075 AA  
    9    8   10   20   0.0304283567 ABAB
    8    9   20   10   0.0304283567 ABAB
    9    5   10   13   0.0272084050 ABAB
--------------------------------------------------------------------------------

  Eigenvector is saved on CCRE_2_1  

  Adding new vector to expansion space.
  Guess for next eigenvalue   0.127225325081838     
 11  11  0.1185076405D+00  0.3224756843D+01  0.7532306932D+00  0.1057793754D+00
 12  12  0.1128996850D+00  0.3072156614D+01  0.9950650191D+00  0.2569309499D-01
 13  13  0.1123668384D+00  0.3057657120D+01  0.9993172135D+00  0.1291124156D-01
 14  14  0.1123110946D+00  0.3056140255D+01  0.9997717916D+00  0.6342420224D-02
 15  15  0.1122827488D+00  0.3055368928D+01  0.9999406332D+00  0.2033526317D-02
  L-O-C-K-I-N-G O-N R-O-O-T 
 16  16  0.1122816584D+00  0.3055339255D+01  0.9999961476D+00  0.7687591243D-03
 17  17  0.1122800669D+00  0.3055295949D+01  0.9999995728D+00  0.2149211720D-03
 18  18  0.1122800183D+00  0.3055294627D+01  0.9999999645D+00  0.6054219177D-04
 19  19  0.1122800099D+00  0.3055294396D+01  0.9999999976D+00  0.2193137264D-04
 20  20  0.1122800222D+00  0.3055294734D+01  0.9999999997D+00  0.4782773680D-05
  Converged eigenvalue:   0.112280022248625       a.u.
   Total EOMEE-CCSD electronic energy      -78.311704151519464 a.u.
  Converged eigenvector 
  SCF eigenvalue ordering used in list below. 
--------------------------------------------------------------------------------
    I    j    A    b
--------------------------------------------------------------------------------
    9    0   13    0  -0.6716129115 AA  
    9    0   15    0   0.0916541199 AA  
    9    0   10    0   0.0677983147 AA  
    9    0   18    0   0.0661994313 AA  
    9    0   26    0   0.0381442399 AA  
    9    9   23   13   0.0376163372 ABAB
    9    9   13   23   0.0376163372 ABAB
    9    5   13   13  -0.0357128489 ABAB
    5    9   13   13  -0.0357128489 ABAB
    9    0   22    0   0.0312299541 AA  
    6    9   11   13  -0.0300441302 ABAB
    9    6   13   11  -0.0300441302 ABAB
    8    0   12    0  -0.0298044730 AA  
    9    4   13   12  -0.0277382463 ABAB
    4    9   12   13  -0.0277382463 ABAB
--------------------------------------------------------------------------------
  Converged eigenvector, normalized to one 
  SCF eigenvalue ordering used in list below. 
--------------------------------------------------------------------------------
    I    j    A    b
--------------------------------------------------------------------------------
    9    0   13    0  -0.6716129115 AA  
    9    0   15    0   0.0916541199 AA  
    9    0   10    0   0.0677983147 AA  
    9    0   18    0   0.0661994313 AA  
    9    0   26    0   0.0381442399 AA  
    9    9   23   13   0.0376163372 ABAB
    9    9   13   23   0.0376163372 ABAB
    9    5   13   13  -0.0357128489 ABAB
    5    9   13   13  -0.0357128489 ABAB
    9    0   22    0   0.0312299541 AA  
    6    9   11   13  -0.0300441302 ABAB
    9    6   13   11  -0.0300441302 ABAB
    8    0   12    0  -0.0298044730 AA  
    9    4   13   12  -0.0277382463 ABAB
    4    9   12   13  -0.0277382463 ABAB
--------------------------------------------------------------------------------

  Eigenvector is saved on CCRE_2_2  

  Adding new vector to expansion space.
  Guess for next eigenvalue   0.188213082252993     
 21  21  0.1757487303D+00  0.4782366083D+01  0.7240188587D+00  0.4772940213D-01
 22  22  0.1742815954D+00  0.4742443313D+01  0.9991548595D+00  0.9392048849D-02
 23  23  0.1741305172D+00  0.4738332265D+01  0.9999416062D+00  0.3333317915D-02
  L-O-C-K-I-N-G O-N R-O-O-T 
 24  24  0.1741287180D+00  0.4738283305D+01  0.9999924455D+00  0.1383489820D-02
 25  25  0.1741270031D+00  0.4738236641D+01  0.9999985400D+00  0.4928432853D-03
 26  26  0.1741260540D+00  0.4738210816D+01  0.9999997690D+00  0.2164135976D-03
 27  27  0.1741260733D+00  0.4738211341D+01  0.9999999484D+00  0.8068858187D-04
 28  28  0.1741259758D+00  0.4738208686D+01  0.9999999926D+00  0.2765159975D-04
 29  29  0.1741259494D+00  0.4738207968D+01  0.9999999993D+00  0.8629227475D-05
  Converged eigenvalue:   0.174125949365092       a.u.
   Total EOMEE-CCSD electronic energy      -78.249858224402999 a.u.
  Converged eigenvector 
  SCF eigenvalue ordering used in list below. 
--------------------------------------------------------------------------------
    I    j    A    b
--------------------------------------------------------------------------------
    9    0   15    0  -0.6769087972 AA  
    9    0   13    0  -0.0968877487 AA  
    9    0   10    0  -0.0608626883 AA  
    9    9   23   15   0.0405684286 ABAB
    9    9   15   23   0.0405684286 ABAB
    9    0   22    0   0.0375620816 AA  
    9    9   19   15   0.0300457392 ABAB
    9    9   15   19   0.0300457392 ABAB
    9    8   15   15  -0.0290661563 ABAB
    8    9   15   15  -0.0290661563 ABAB
    9    4   15   12  -0.0241401427 ABAB
    4    9   12   15  -0.0241401427 ABAB
    9    0   31    0   0.0232020909 AA  
    9    8   15   20  -0.0226758870 ABAB
    8    9   20   15  -0.0226758870 ABAB
--------------------------------------------------------------------------------
  Converged eigenvector, normalized to one 
  SCF eigenvalue ordering used in list below. 
--------------------------------------------------------------------------------
    I    j    A    b
--------------------------------------------------------------------------------
    9    0   15    0  -0.6769087972 AA  
    9    0   13    0  -0.0968877487 AA  
    9    0   10    0  -0.0608626883 AA  
    9    9   23   15   0.0405684286 ABAB
    9    9   15   23   0.0405684286 ABAB
    9    0   22    0   0.0375620816 AA  
    9    9   19   15   0.0300457392 ABAB
    9    9   15   19   0.0300457392 ABAB
    9    8   15   15  -0.0290661563 ABAB
    8    9   15   15  -0.0290661563 ABAB
    9    4   15   12  -0.0241401427 ABAB
    4    9   12   15  -0.0241401427 ABAB
    9    0   31    0   0.0232020909 AA  
    9    8   15   20  -0.0226758870 ABAB
    8    9   20   15  -0.0226758870 ABAB
--------------------------------------------------------------------------------

  Eigenvector is saved on CCRE_2_3  

  Solution of   3 roots required   29 iterations.
 @CHECKOUT-I, Total execution time (CPU/WALL):       16.81/       2.11 seconds.
--executable xvee finished with status     0 in        2.13 seconds (walltime).
  The final electronic energy is       -78.249858224402999 a.u. 
  This computation required                            3.86 seconds (walltime).
