CFour on node02
 --invoking executable--
/home/tsommerfeld/zscale/bin/xjoda


   *************************************************************************
         <<<     CCCCCC     CCCCCC   |||     CCCCCC     CCCCCC   >>>
       <<<      CCC        CCC       |||    CCC        CCC         >>>
      <<<      CCC        CCC        |||   CCC        CCC            >>>
    <<<        CCC        CCC        |||   CCC        CCC              >>>
      <<<      CCC        CCC        |||   CCC        CCC            >>>
       <<<      CCC        CCC       |||    CCC        CCC         >>>
         <<<     CCCCCC     CCCCCC   |||     CCCCCC     CCCCCC   >>>
   *************************************************************************

     ****************************************************************
     * CFOUR Coupled-Cluster techniques for Computational Chemistry *
     ****************************************************************
 

   Department of Chemistry                Institut fuer Physikalische Chemie
   University of Florida                  Universitaet Mainz
   Gainesville, FL 32611, USA             D-55099 Mainz, Germany

   Department of Chemistry                Department of Chemistry
   Johns Hopkins University               Southern Methodist University
   Baltimore, MD 21218, USA               Dallas, TX 75275, USA

   Institute of Nanotechnology            Department of Physical Chemistry
   Karlsruhe Inst. of Technology          Eotvos Lorand University
   D-76021 Karlsruhe, Germany             H-1053 Budapest, Hungary

 
                       Version 2.1
 
                     node02                                            
                     Tue Mar 29 16:07:11 CST 2022                      
                     integer*8 version is running
 
********************************************************************************
*                          Input from ZMAT file                                *
********************************************************************************
h_ethylene                                                                      
C       0.000000      0.0   -0.664500                                           
C       0.000000      0.0    0.664500                                           
H       0.962348      0.0   -1.159080                                           
H       0.962348      0.0    1.159080                                           
H      -0.962348      0.0   -1.159080                                           
H      -0.962348      0.0    1.159080                                           
H      0.000000      4.045454545454545      0.000000                            
                                                                                
*CFOUR(CALC=CCSD                                                                
EXCITE=EOMEE                                                                    
ESTATE_SYM=0/3/0/0                                                              
CC_PROG=VCC                                                                     
CHARGE=-1                                                                       
COORDINATES=CARTESIAN                                                           
BASIS=SPECIAL                                                                   
REFERENCE=RHF                                                                   
MEM_SIZE=90,MEM_UNIT=GB)                                                        
                                                                                
C:CC-PVDZ                                                                       
C:CC-PVDZ                                                                       
H:CC-PVDZ                                                                       
H:CC-PVDZ                                                                       
H:CC-PVDZ                                                                       
H:CC-PVDZ                                                                       
H:AUG-CC-PVDZ                                                                   
                                                                                
********************************************************************************
    -------------------------------------------------------------------
                    CFOUR Control Parameters 
    -------------------------------------------------------------------
        External           Internal           Value            Units
          Name               Name
    -------------------------------------------------------------------
       ABCDTYPE             IABCDT         STANDARD    [  0]    ***   
       ANHARMONIC           IANHAR         OFF         [  0]    ***   
       ANH_ALGORIT          IANALG         STANDARD    [  0]    ***   
       ANH_DERIVAT          IANDER         SECOND      [  1]    ***   
       ANH_MODE             ANHMOD         VIBRATION   [  0]    ***   
       ANH_STEPSIZ          ICUBST             50000          x 10-6  
       ANH_SYMMETR          IANHSM         ABELIAN     [  0]    ***   
       AO_LADDERS           IAOLAD         SINGLEPASS  [  1]    ***   
       AV_SCF               IAVSCF         OFF         [  0]    ***   
       BASIS                IBASIS         SPECIAL     [  0]    ***   
       BOTHVECTORS          BOTHVC         OFF         [  0]    ***   
       BOX_POTENT           IPIAB          OFF         [  0]    ***   
       BREIT                IBREIT         OFF         [  0]    ***   
       BRUCK_CONV           IBRTOL          10D-  4             ***   
       BRUECKNER            IBRKNR         OFF         [  0]    ***   
       BUFFERSIZE           IBUFFS              4096            ***   
       CACHE_RECS           ICHREC             10               ***   
       CALCLEVEL            ICLLVL         CCSD        [ 10]    ***   
       CCORBOPT             ICCORB         OFF         [  0]  x 0.01  
       CC_CONV              ICCCNV          10D-  7             ***   
       CC_EXPORDER          ICCEOR              5               ***   
       CC_EXTRAPOL          ICCEXT         DIIS        [  1]    ***   
       CC_GUESS             ICCGES         MP2         [  0]    ***   
       CC_MAXCYC            ICCCYC            100              cycles 
       CC_PROGRAM           ICCPRO         VCC         [  0]    ***   
       CHARGE               ICHRGE             -1               ***   
       CHOLESKY             ICHOLE         OFF         [  0]    ***   
       CIS_CONV             ICISTL              5               ***   
       COMM_SIZE            IPSIZE            ***               ***   
       CONSTANT             ICONST         OLD         [  1]    ***   
       CONTINUUM            ICONTU         NONE        [  0]    ***   
       CONTRACTION          ICNTYP         GENERAL     [  1]    ***   
       COORDINATES          ICOORD         CARTESIAN   [  1]    ***   
       CPHF_CONVER          ICPHFT          10D- 16             ***   
       CPHF_MAXCYC          ICPHFC             64              cycles 
       CUBIC                ICUBIC         OFF         [  0]    ***   
       CURVILINEAR          ICURVY         OFF         [  0]    ***   
       DBOC                 IDBOC          OFF         [  0]    ***   
       DCT                  IDCT           OFF         [  0]    ***   
       DERIV_LEV            IDRLVL         ZERO        [  0]    ***   
       DEVMEM_SIZE          IDVMEM         *********           MByte  
       DIAG_MRCC            IEOMST          10D-  0             ***   
       DIFF_TYPE            IDIFTY         RELAXED     [  0]    ***   
       DIRECT               IDIRCT         OFF         [  0]    ***   
       DROPMO               IDRPMO      NONE         
       ECP                  IECP           OFF         [  0]    ***   
       EIGENVECTOR          IVEC                1               ***   
       EL_ANHARM            IELANH         OFF         [  0]    ***   
       EOMFOLLOW            IEOMSR         ENERGY      [  0]    ***   
       EOMIP                IEOMIP         OFF         [  0]    ***   
       EOMLEVEL             HBARFM         SAME        [  0]    ***   
       EOM_MRCC             IMRCCE         NEW         [  1]    ***   
       EOM_NONIT            EOMNON         OFF         [  0]    ***   
       EOM_NSING            IEOMSI          10D-  0             ***   
       EOM_NSTATES          IMRCCD         DAVIDSON    [  0]    ***   
       EOM_NTRIP            IEOMTR          10D-  0             ***   
       EOM_ORDER            IEXORD         ENERGY      [  0]    ***   
       EOM_PROPSTA          IEOMST              0               ***   
       ESTATE_CONV          IEXTOL          10D-  5             ***   
       ESTATE_DIAG          IEXDIG         ITERATIVE   [  0]    ***   
       ESTATE_LOCK          IESLOC         ON          [  1]    ***   
       ESTATE_MAXC          IEXMXC             40               ***   
       ESTATE_PROP          IEXPRP         OFF         [  0]    ***   
       ESTATE_SYM           IEXSYM   0,  3,  0,  0,
       EVAL_HESS            IRECAL              0            # of cyc.
       EXCITATION           IEXCIT              0               ***   
       EXCITE               IEXCIT         EOMEE       [  3]    ***   
       EXTERN_POT           IEXPOT         OFF         [  0]    ***   
       FCGRADNEW            IFCGNW         OFF         [  0]    ***   
       FC_FIELD             IFINFC              0             x 10-6  
       FD_CALTYPE           IFDCAL         GRADONLY    [  0]    ***   
       FD_PROJECT           IFDPRJ         OFF         [  1]    ***   
       FD_STEPSIZE          IDISFD              0            10-4 bohr
       FD_USEGROUP          IFDGRP         FULL        [  0]    ***   
       FILE_RECSIZ          IFLREC              4096           words  
       FINITE_PERT          IFIPER              0             x 10-6  
       FIXGEOM              IFIXGM         OFF         [  0]    ***   
       FOCK                 IFOCK          AO          [  1]    ***   
       FREQ_ALGORI          IVIALG         STANDARD    [  0]    ***   
       FROZEN_CORE          IFROCO         OFF         [  0]    ***   
       GAMMA_ABCD           IGABCD         STORE       [  0]    ***   
       GAMMA_ABCI           IGABCI         STORE       [  0]    ***   
       GENBAS_1             IGNBS1              0               ***   
       GENBAS_2             IGNBS2              0               ***   
       GENBAS_3             IGNBS3              0               ***   
       GENBAS_4             IGNBS4              0               ***   
       GEO_CONV             ICONTL              5              H/bohr 
       GEO_MAXCYC           IOPTCY             50               ***   
       GEO_MAXSTEP          IMXSTP            300            millibohr
       GEO_METHOD           INR            SINGLE_POINT[  5]    ***   
       GIAO                 IGIAO          OFF         [  1]    ***   
       GIMIC                IGIMIC         OFF         [  0]    ***   
       GRID                 IGRID          OFF         [  0]    ***   
       GRID_ALGO            IGALGO         SERIAL      [  0]    ***   
       GUESS                IGUESS         MOREAD      [  0]    ***   
       HBAR                 IHBAR          ON          [  1]    ***   
       HESS_TYPE            IHESTP         SCF         [  0]    ***   
       HF2_FILE             IHF2Fl         USE         [  1]    ***   
       HFSTABILITY          ISTABL         OFF         [  0]    ***   
       INCORE               INCORE         OFF         [  0]    ***   
       INPUT_MRCC           IMRCC          ON          [  1]    ***   
       INTEGRALS            INTTYP         VMOL        [  1]    ***   
       JODA_PRINT           IJPRNT              0               ***   
       KEYWORD_OUT          IDMPKW         NO          [  0]    ***   
       LINDEP_TOL           ILINDP              8               ***   
       LINEQ_CONV           IZTACN          10D-  7           cycles  
       LINEQ_EXPOR          ILMAXD              5               ***   
       LINEQ_MAXCY          ILMAXC            100               ***   
       LINEQ_TYPE           ILTYPE         DIIS        [  1]    ***   
       LOCK_ORBOCC          ILOCOC         OFF         [  0]    ***   
       MEMORY_SIZE          IMEMSZ         *********           words  
       MEM_UNIT             IMEMU          GB          [  3]    ***   
       MRCC                 IMRCCC         OFF         [  0]    ***   
       MULTIPLICTY          IMULTP              1               ***   
       NACOUPLING           IVCOUP         OFF         [  0]    ***   
       NEGEVAL              IDIE           ABORT       [  0]    ***   
       NEWNORM              INEWNO         OFF         [  0]    ***   
       NON-HF               INONHF         OFF         [  0]    ***   
       NTOP_TAMP            ITOPT2             15               ***   
       NUC_MODEL            INUCMO         POINT       [  0]    ***   
       OCCUPATION           IOCCU   ESTIMATED BY SCF 
       OPEN-SHELL           IOPEN          SPIN-ORBITAL[  0]    ***   
       OPTVIB               IOPTVB         OFF         [  0]    ***   
       ORBITALS             IORBTP         STANDARD    [  0]    ***   
       PARALLEL             IPARAL         ON          [  1]    ***   
       PARA_INT             IPINTS         ON          [  1]    ***   
       PARA_PRINT           IPPRIN              0               ***   
       PERT_ORB             IPTORB         STANDARD    [  0]    ***   
       POINTS               IGRDFD              0               ***   
       PRINT                IPRNT               0               ***   
       PROPS                IPROPS         OFF         [  0]    ***   
       PROP_INTEGR          IINTYP         INTERNAL    [  0]    ***   
       PSI                  IPSI           OFF         [  0]    ***   
       QC_ALG               IQCALG         FLM         [  0]    ***   
       QC_LINALG            IQCLIN         TRIDIAG     [  2]    ***   
       QC_MAXCYC            IQCMAX          10D-100           cycles  
       QC_MAXSCFCY          IQCMSC          10D- 15           cycles  
       QC_RTRUST            IQCRTR          10D-  0           x 10-3  
       QC_SKIPSCF           IQCSKI         OFF         [  0]    ***   
       QC_START             IQCSTA          10D-  1             ***   
       QRHFGUESS            IQGUES         OFF         [  0]    ***   
       QUARTIC              IQUART         OFF         [  0]    ***   
       RAMAN_INT            IRAMIN         OFF         [  0]    ***   
       RAMAN_ORB            IRAMRE         UNRELAXED   [  0]    ***   
       RDO                  IRDOFM         OFF         [  0]    ***   
       REDUCE_REPR          REDREP         Ir          [  0]    ***   
       REFERENCE            IREFNC         RHF         [  0]    ***   
       RELATIVIST           IRELAT         OFF         [  0]    ***   
       RELAX_DENS           IRDENS         OFF         [  0]    ***   
       RESET_FLAGS          IRESET         OFF         [  0]    ***   
       RESTART_CC           ICCRES         OFF         [  0]    ***   
       ROT_EVEC             ROTVEC              0               ***   
       SAVE_INTS            ISVINT         OFF         [  0]    ***   
       SCALE_ON             ISTCRT              0               ***   
       SCF_CONV             ISCFCV          10D-  7             ***   
       SCF_DAMPING          IDAMP               0             x 10-3  
       SCF_EXPORDE          IRPPOR              6               ***   
       SCF_EXPSTAR          IRPPLS              8               ***   
       SCF_EXTRAPO          IRPP           ON          [  1]    ***   
       SCF_MAXCYC           ISCFCY            150              cycles 
       SCF_NOSTOP           ISCFST         OFF         [  0]    ***   
       SCF_PRINT            ISCFPR              0               ***   
       SCF_PROG             ISCFPR         SCF         [  0]    ***   
       SD_FIELD             IFINSD              0             x 10-6  
       SOPERT               IPERSO         OFF         [  0]    ***   
       SPHERICAL            IDFGHI         ON          [  1]    ***   
       SPINORBIT            ISOCAL         OFF         [  0]    ***   
       SPINROTATIO          ISRCON         OFF         [  0]    ***   
       SPIN_FLIP            ISPFLP         OFF         [  0]    ***   
       SPIN_ORBIT           ISPORB         OFF         [  0]    ***   
       SPIN_SCAL            ISCSMP         OFF         [  0]    ***   
       STEEPSCALE           ISTPSC              1000          x 10-3  
       SUBGROUP             ISUBGP         DEFAULT     [  0]    ***   
       SUBGRPAXIS           ISBXYZ         X           [  0]    ***   
       SYMMETRY             ISYM           ON          [  0]    ***   
       SYM_CHECK            ISYMCK         OVERRIDE    [  1]    ***   
       T3_EXTRAPOL          IT3EXT         OFF         [  0]    ***   
       T4_EXTRAPOL          IT4EXP         OFF         [  0]    ***   
       TAMP_SUM             IEVERY              5               ***   
       TESTSUITE            ITESTS         OFF         [  0]    ***   
       THERMOCH             ITHERM         OFF         [  0]    ***   
       TOL_CHOLESK          ITOLCH          10D-  4             ***   
       TRANGRAD             IRESRM         OFF         [  0]    ***   
       TRANS_INV            ITRAIN         USE         [  0]    ***   
       TREAT_PERT           ITREAT         SIMULTANEOUS[  0]    ***   
       TRIP_ALGORI          ITRALG         NORMAL      [  0]    ***   
       UIJ_THRESHO          IUIJTH              1               ***   
       UNITS                IUNITS         ANGSTROM    [  0]    ***   
       UNOS                 IUNOS          OFF         [  0]    ***   
       UPDATE_HESS          IHUPDT         ON          [  1]    ***   
       VIBPHASE             ISETPH         STANDARD    [  0]    ***   
       VIBRATION            IVIB           NO          [  0]    ***   
       VIB_ALGORIT          IGEALG         STANDARD    [  0]    ***   
       VNATORB              IVNORB         OFF         [  0]    ***   
       VTRAN                IVTRAN         FULL/PARTIAL[  0]    ***   
       XFIELD               IXEFLD              0             x 10-6  
       XFORM_TOL            IXFTOL          10D- 11             ***   
       YFIELD               IYEFLD              0             x 10-6  
       ZFIELD               IZEFLD              0             x 10-6  
       ZSCALE_EXP           IZEXPS         OFF         [  0]    ***   
    -------------------------------------------------------------------
  @GETXYZ-I,     7 atoms read from ZMAT.
   Rotational constants (in cm-1): 
          0.5278782105             0.8536890782             0.8576861738
   Rotational constants (in MHz): 
      15825.3928406647         25592.9582983935         25712.7882246067
********************************************************************************
   The full molecular point group is C2v .
   The largest Abelian subgroup of the full molecular point group is C2v .
   The computational point group is C2v .
********************************************************************************


 ----------------------------------------------------------------
         Coordinates used in calculation (QCOMP) 
 ----------------------------------------------------------------
 Z-matrix   Atomic            Coordinates (in bohr)
  Symbol    Number           X              Y              Z
 ----------------------------------------------------------------
     C         6         0.00000000    -1.25572327     0.26531872
     C         6         0.00000000     1.25572327     0.26531872
     H         1         1.81857454    -2.19034422     0.26531872
     H         1         1.81857454     2.19034422     0.26531872
     H         1        -1.81857454    -2.19034422     0.26531872
     H         1        -1.81857454     2.19034422     0.26531872
     H         1         0.00000000     0.00000000    -7.37948402
 ----------------------------------------------------------------
 
   Interatomic distance matrix (Angstroms) 
 
                 C             C             H             H             H    
                [ 1]        [ 2]        [ 3]        [ 4]        [ 5]
  C    [ 1]     0.00000
  C    [ 2]     1.32900     0.00000
  H    [ 3]     1.08200     2.06193     0.00000
  H    [ 4]     2.06193     1.08200     2.31816     0.00000
  H    [ 5]     1.08200     2.06193     1.92470     3.01303     0.00000
  H    [ 6]     2.06193     1.08200     3.01303     1.92470     2.31816
  H    [ 7]     4.09967     4.09967     4.31686     4.31686     4.31686
 
                 H             H    
                [ 6]        [ 7]
  H    [ 6]     0.00000
  H    [ 7]     4.31686     0.00000
 rotcon2
   Rotational constants (in cm-1): 
          0.5278782105             0.8576861738             0.8536890782
   Rotational constants (in MHz): 
      15825.3928406647         25712.7882246067         25592.9582983935
  ECPDATA file not present.   Using default ECPDATA. 
  There are   57 basis functions.
 @GEOPT-W, Archive file not created for single-point calculation.
 @CHECKOUT-I, Total execution time (CPU/WALL):        0.12/       0.13 seconds.
--executable xjoda finished with status     0 in        0.15 seconds (walltime).
 --invoking executable--
/home/tsommerfeld/zscale/bin/xvmol
 SERIAL VERSION OF MOLECULE STARTED
********************************************************************************
                    INPUT FROM MOL FILE
********************************************************************************
INTGRL        1    0    1    0    0    0    0    0    0                         
         *** CFOUR Program System (Release V0.1) ***                            
h_ethylene                                                                      
    3    2 X  Y       0.10E-08              0    0                              
   9999.00      3.00                                                            
          6.00000000    1    3    1    1    1                                   
C #1   0.000000000000000  -1.255723272983657   0.265318722423624                
    9    3                                                                      
   6665.00000000000       6.920000000000000E-004 -1.460000000000000E-004        
  0.000000000000000E+000                                                        
   1000.00000000000       5.329000000000000E-003 -1.154000000000000E-003        
  0.000000000000000E+000                                                        
   228.000000000000       2.707700000000000E-002 -5.725000000000000E-003        
  0.000000000000000E+000                                                        
   64.7100000000000       0.101718000000000      -2.331200000000000E-002        
  0.000000000000000E+000                                                        
   21.0600000000000       0.274740000000000      -6.395500000000000E-002        
  0.000000000000000E+000                                                        
   7.49500000000000       0.448564000000000      -0.149981000000000             
  0.000000000000000E+000                                                        
   2.79700000000000       0.285074000000000      -0.127262000000000             
  0.000000000000000E+000                                                        
  0.521500000000000       1.520400000000000E-002  0.544529000000000             
  0.000000000000000E+000                                                        
  0.159600000000000      -3.191000000000000E-003  0.580496000000000             
   1.00000000000000                                                             
    4    2                                                                      
   9.43900000000000       3.810900000000000E-002  0.000000000000000E+000        
   2.00200000000000       0.209480000000000       0.000000000000000E+000        
  0.545600000000000       0.508557000000000       0.000000000000000E+000        
  0.151700000000000       0.468842000000000        1.00000000000000             
    1    1                                                                      
  0.550000000000000        1.00000000000000                                     
          1.00000000    1    2    1    1                                        
H #2   1.818574537711477  -2.190344215575466   0.265318722423624                
    4    2                                                                      
   13.0100000000000       1.968500000000000E-002  0.000000000000000E+000        
   1.96200000000000       0.137977000000000       0.000000000000000E+000        
  0.444600000000000       0.478148000000000       0.000000000000000E+000        
  0.122000000000000       0.501240000000000        1.00000000000000             
    1    1                                                                      
  0.727000000000000        1.00000000000000                                     
          1.00000000    1    2    1    1                                        
H #3   0.000000000000000   0.000000000000000  -7.379484020277346                
    5    3                                                                      
   13.0100000000000       1.968500000000000E-002  0.000000000000000E+000        
  0.000000000000000E+000                                                        
   1.96200000000000       0.137977000000000       0.000000000000000E+000        
  0.000000000000000E+000                                                        
  0.444600000000000       0.478148000000000       0.000000000000000E+000        
  0.000000000000000E+000                                                        
  0.122000000000000       0.501240000000000        1.00000000000000             
  0.000000000000000E+000                                                        
  2.974000000000000E-002  0.000000000000000E+000  0.000000000000000E+000        
   1.00000000000000                                                             
    2    2                                                                      
  0.727000000000000        1.00000000000000       0.000000000000000E+000        
  0.141000000000000       0.000000000000000E+000   1.00000000000000             
FINISH                                                                          
 
********************************************************************************
 ONE- AND TWO-ELECTRON INTEGRALS OVER SYMMETRY-ADAPTED AOS ARE CALCULATED.

  SPHERICAL HARMONICS ARE USED.
  
  INTEGRALS LESS THAN  0.10E-13 ARE NEGLECTED.

  NUCLEAR REPULSION ENERGY :   35.6284878218 A.U.
  @MOLECU-I, ONE ELECTRON INTEGRALS (CPU/WALL):        0.01/       0.01 SECONDS.
  @TWOEL-I,      29503 INTEGRALS OF SYMMETRY TYPE  I I I I
  @TWOEL-I,     101718 INTEGRALS OF SYMMETRY TYPE  I J I J
  @TWOEL-I,      57966 INTEGRALS OF SYMMETRY TYPE  I I J J
  @TWOEL-I,      75017 INTEGRALS OF SYMMETRY TYPE  I J K L
  @TWOEL-I, TOTAL NUMBER OF 2-E INTEGRALS     264204.
  @MOLECU-I, TWO ELECTRON INTEGRALS (CPU/WALL):        0.22/       0.23 SECONDS.
 @CHECKOUT-I, Total execution time (CPU/WALL):        0.24/       0.25 seconds.

Running with 8 threads/proc

--executable xvmol finished with status     0 in        0.27 seconds (walltime).
 --invoking executable--
/home/tsommerfeld/zscale/bin/xvmol2ja
 @GETMEM-I,  Allocated   85830 MB of main memory.
 @CHECKOUT-I, Total execution time (CPU/WALL):        0.02/       0.01 seconds.
--executable xvmol2ja finished with status     0 in        0.03 seconds (walltime).
 --invoking executable--
/home/tsommerfeld/zscale/bin/xvscf
  There are   57 functions in the AO basis.

  There are 4 irreducible representations.

       Irrep        # of functions
         1                 20
         2                 11
         3                 17
         4                  9


  Parameters for SCF calculation: 
        SCF reference function:  RHF  
  Maximum number of iterations:  150
     Full symmetry point group: C2v 
     Computational point group: C2v 
        Initial density matrix: MOREAD                 
     SCF convergence tolerance: 10**(- 7)
  DIIS convergence acceleration:  ON
          Latest start for DIIS:   8
                     DIIS order:   6

  Memory information:     156410 words required.
  Fock matrices are constructed from AO integral file.
 @GETMEM-I,  Allocated       1 MB of main memory.
  Initialization and symmetry analysis required      0.002 seconds.

  @INITGES-I, Occupancies from core Hamiltonian:

          Alpha population by irrep:   3    1    4    1
           Beta population by irrep:   3    1    4    1


 total no. of electrons in initial guess :  0.000000000000000E+000
  --------------------------------------------------------------------
  Iteration         Total Energy            Largest Density Difference
  --------------------------------------------------------------------
       0            35.628487821785505              0.0000000000D+00
   current occupation vector 
     3  1  4  1
     3  1  4  1
       1           -61.003441693456530              0.8822632518D+01
   current occupation vector 
     3  1  4  1
     3  1  4  1
       2           -53.699703207228104              0.8683095760D+01
   current occupation vector 
     5  1  3  0
     5  1  3  0
       3           -70.355178232091760              0.3961116515D+01
   current occupation vector 
     4  1  3  1
     4  1  3  1
       4           -56.749534833041800              0.3732952894D+01
   current occupation vector 
     5  1  3  0
     5  1  3  0
       5           -71.183979058282915              0.3732981010D+01
   current occupation vector 
     4  1  3  1
     4  1  3  1
       6           -57.152151722452523              0.3717987923D+01
   current occupation vector 
     5  1  3  0
     5  1  3  0
       7           -71.291744688535204              0.3717991525D+01
   current occupation vector 
     4  1  3  1
     4  1  3  1
       8           -57.204446020749536              0.3715355757D+01
   current occupation vector 
     5  1  3  0
     5  1  3  0
       9           -76.247509891612793              0.3715135641D+01
   current occupation vector 
     4  1  3  1
     4  1  3  1
      10           -77.491031135957030              0.6842201060D+00
   current occupation vector 
     4  1  3  1
     4  1  3  1
      11           -78.276411535327611              0.1859484379D+01
   current occupation vector 
     5  1  2  1
     5  1  2  1
      12           -78.377314960033630              0.4182245104D+00
   current occupation vector 
     5  1  2  1
     5  1  2  1
      13           -78.491366039553441              0.5208033020D+00
   current occupation vector 
     5  1  2  1
     5  1  2  1
      14           -78.517113519305667              0.2047309585D+00
   current occupation vector 
     5  1  2  1
     5  1  2  1
      15           -78.517722615129969              0.5099696070D-01
   current occupation vector 
     5  1  2  1
     5  1  2  1
      16           -78.517730239747920              0.6834245669D-02
   current occupation vector 
     5  1  2  1
     5  1  2  1
      17           -78.517730620196033              0.8806614255D-03
   current occupation vector 
     5  1  2  1
     5  1  2  1
      18           -78.517730628663912              0.9132648478D-04
   current occupation vector 
     5  1  2  1
     5  1  2  1
      19           -78.517730629005399              0.2655040791D-04
   current occupation vector 
     5  1  2  1
     5  1  2  1
      20           -78.517730629018445              0.2620659135D-05
   current occupation vector 
     5  1  2  1
     5  1  2  1
      21           -78.517730629019411              0.4692861848D-06
   current occupation vector 
     5  1  2  1
     5  1  2  1
      22           -78.517730629019383              0.1542261441D-06
   current occupation vector 
     5  1  2  1
     5  1  2  1

  SCF has converged.

 Density matrix saved to file den.dat
 total electron number:   18.0000000000000     
     E(SCF)=       -78.517730629019240              0.3680217564D-07


  Final occupancies:

     Alpha population by irrep:   5    1    2    1
      Beta population by irrep:   5    1    2    1


  Eigenvector printing suppressed.

 @PUTMOS-I, Writing converged MOs to NEWMOS. 
 @PUTMOS-I, Symmetry   1 Full Blocks  5 Partial Blocksize   0
 @PUTMOS-I, Symmetry   2 Full Blocks  2 Partial Blocksize   3
 @PUTMOS-I, Symmetry   3 Full Blocks  4 Partial Blocksize   1
 @PUTMOS-I, Symmetry   4 Full Blocks  2 Partial Blocksize   1
 @PUTFOCK-I, Writing converged Fock matrix to NEWFOCK. 
 @PUTFOCK-I, Symmetry   1 Full Blocks  5 Partial Blocksize   0
 @PUTFOCK-I, Symmetry   2 Full Blocks  2 Partial Blocksize   3
 @PUTFOCK-I, Symmetry   3 Full Blocks  4 Partial Blocksize   1
 @PUTFOCK-I, Symmetry   4 Full Blocks  2 Partial Blocksize   1


 
  ORBITAL EIGENVALUES (ALPHA)  (1H = 27.2113834 eV)

       MO #        E(hartree)               E(eV)           FULLSYM    COMPSYM
       ----   --------------------   --------------------   -------   ---------
    1     1         -11.1104314788        -302.3302107099      A1        A1 (1)
    2    32         -11.1087234893        -302.2837339511      B2        B2 (3)
    3     2          -0.9144517695         -24.8834976994      A1        A1 (1)
    4    33          -0.6571886965         -17.8830135867      B2        B2 (3)
    5    21          -0.5350990449         -14.5607852676      B1        B1 (2)
    6     3          -0.4417904284         -12.0217287285      A1        A1 (1)
    7    49          -0.3915729604         -10.6552419541      A2        A2 (4)
    8     4          -0.2496036941          -6.7920618191      A1        A1 (1)
    9     5          -0.0405037450          -1.1021629338      A1        A1 (1)
  +++++++++++++++++++++++++++++++++++++++++++++++++++++++++++++++++++++++++++++
   10     6           0.2843143464           7.7365866861      A1        A1 (1)
   11    34           0.2950274210           8.0281042661      B2        B2 (3)
   12     7           0.3270884058           8.9005280146      A1        A1 (1)
   13    22           0.3419636009           9.3053026539      B1        B1 (2)
   14    35           0.3590788868           9.7710332585      B2        B2 (3)
   15    50           0.4137406987          11.2584567811      A2        A2 (4)
   16     8           0.5555205186          15.1164818181      A1        A1 (1)
   17    36           0.5614029250          15.2765502351      B2        B2 (3)
   18    23           0.5622403281          15.2993371310      B1        B1 (2)
   19    37           0.5631248502          15.3234062012      B2        B2 (3)
   20     9           0.6793305389          18.4855237494      A1        A1 (1)
   21    24           0.7762412366          21.1225978995      B1        B1 (2)
   22    10           0.8108522770          22.0644121908      A1        A1 (1)
   23    11           0.8752813691          23.8176169163      A1        A1 (1)
   24    38           0.9129731988          24.8432637454      B2        B2 (3)
   25    39           0.9380389317          25.5253370135      B2        B2 (3)
   26    25           0.9846748737          26.7943655126      B1        B1 (2)
   27    51           1.0581903293          28.7948227594      A2        A2 (4)
   28    40           1.0852381971          29.5308326619      B2        B2 (3)
   29    12           1.0924903594          29.7281740302      A1        A1 (1)
   30    13           1.1336422213          30.8479731210      A1        A1 (1)
   31    26           1.2404979159          33.7556643961      B1        B1 (2)
   32    41           1.3595886614          36.9962883319      B2        B2 (3)
   33    52           1.4093303961          38.3498297452      A2        A2 (4)
   34    14           1.4111983855          38.4006603206      A1        A1 (1)
   35    53           1.4670214514          39.9196831710      A2        A2 (4)
   36    15           1.7189929961          46.7761774790      A1        A1 (1)
   37    54           1.7352238901          47.2178425577      A2        A2 (4)
   38    27           1.8113816660          49.2902009981      B1        B1 (2)
   39    42           1.9514873312          53.1026699702      B2        B2 (3)
   40    43           1.9986774409          54.3867781372      B2        B2 (3)
   41    16           2.0405098258          55.5250952023      A1        A1 (1)
   42    17           2.0536465635          55.8825640063      A1        A1 (1)
   43    28           2.1087128149          57.3809928856      B1        B1 (2)
   44    29           2.1418742711          58.2833619855      B1        B1 (2)
   45    30           2.1458709247          58.3921164577      B1        B1 (2)
   46    44           2.1477741206          58.4439050521      B2        B2 (3)
   47    18           2.1679839682          58.9938429635      A1        A1 (1)
   48    45           2.2919849574          62.3680814239      B2        B2 (3)
   49    46           2.3881569158          64.9850534545      B2        B2 (3)
   50    55           2.5379413473          69.0608950481      A2        A2 (4)
   51    19           2.5382012883          69.0679684018      A1        A1 (1)
   52    56           2.6096862819          71.0131739718      A2        A2 (4)
   53    47           2.6525905548          72.1806585911      B2        B2 (3)
   54    31           2.9098483584          79.1809993173      B1        B1 (2)
   55    20           2.9116995637          79.2313731736      A1        A1 (1)
   56    48           3.3513706144          91.1954307029      B2        B2 (3)
   57    57           3.4611985273          94.1840001488      A2        A2 (4)


  VSCF finished.

 @CHECKOUT-I, Total execution time (CPU/WALL):        0.26/       0.11 seconds.
--executable xvscf finished with status     0 in        0.13 seconds (walltime).
 --invoking executable--
/home/tsommerfeld/zscale/bin/xvtran
 @GETMEM-I,  Allocated   85830 MB of main memory.
  Full RHF integral transformation
  Transformation of IIII integrals :
  1 pass through the AO integral file was required.
       29503 AO integrals were read.
       37182 MO integrals were written to HF2.
  Transformation of IIJJ integrals :
  1 pass through the AO integral file was required.
       57966 AO integrals were read.
       75393 MO integrals were written to HF2.
  Transformation of IJIJ integrals :
  1 pass through the AO integral file was required.
      101718 AO integrals were read.
      132879 MO integrals were written to HF2.
  Transformation of IJKL integrals :
  1 pass through the AO integral file was required.
       75017 AO integrals were read.
      100980 MO integrals were written to HF2.
  Summary of active molecular orbitals: 
------------------------------------------------------------------------
 
  Index      Eigenvalue    Symmetry    Index      Eigenvalue    Symmetry
------------------------------------------------------------------------
     1       -11.1104315        1        30         1.8113817        2
     2        -0.9144518        1        31         2.1087128        2
     3        -0.4417904        1        32         2.1418743        2
     4        -0.2496037        1        33         2.1458709        2
     5        -0.0405037        1        34         2.9098484        2
     6        -0.5350990        2        35         0.2950274        3
     7       -11.1087235        3        36         0.3590789        3
     8        -0.6571887        3        37         0.5614029        3
     9        -0.3915730        4        38         0.5631249        3
    10         0.2843143        1        39         0.9129732        3
    11         0.3270884        1        40         0.9380389        3
    12         0.5555205        1        41         1.0852382        3
    13         0.6793305        1        42         1.3595887        3
    14         0.8108523        1        43         1.9514873        3
    15         0.8752814        1        44         1.9986774        3
    16         1.0924904        1        45         2.1477741        3
    17         1.1336422        1        46         2.2919850        3
    18         1.4111984        1        47         2.3881569        3
    19         1.7189930        1        48         2.6525906        3
    20         2.0405098        1        49         3.3513706        3
    21         2.0536466        1        50         0.4137407        4
    22         2.1679840        1        51         1.0581903        4
    23         2.5382013        1        52         1.4093304        4
    24         2.9116996        1        53         1.4670215        4
    25         0.3419636        2        54         1.7352239        4
    26         0.5622403        2        55         2.5379413        4
    27         0.7762412        2        56         2.6096863        4
    28         0.9846749        2        57         3.4611985        4
    29         1.2404979        2
------------------------------------------------------------------------
  -11.1104314788305      -0.914451769452813      -0.441790428358163     
 -0.249603694131786      -4.050374497971855E-002 -0.535099044894316     
  -11.1087234892678      -0.657188696502069      -0.391572960386219     
  0.284314346402918       0.327088405752581       0.555520518597027     
  0.679330538901237       0.810852277022962       0.875281369056651     
   1.09249035939026        1.13364222125491        1.41119838547243     
   1.71899299610886        2.04050982583775        2.05364656345798     
   2.16798396819194        2.53820128828012        2.91169956370576     
  0.341963600934753       0.562240328102976       0.776241236582605     
  0.984674873701172        1.24049791588852        1.81138166602918     
   2.10871281485689        2.14187427110100        2.14587092465421     
   2.90984835843567       0.295027420989709       0.359078886761261     
  0.561402925038436       0.563124850213690       0.912973198761064     
  0.938038931657859        1.08523819711061        1.35958866140864     
   1.95148733122597        1.99867744089833        2.14777412059475     
   2.29198495743927        2.38815691577354        2.65259055484594     
   3.35137061436162       0.413740698721468        1.05819032925125     
   1.40933039608692        1.46702145143554        1.73522389007454     
   2.53794134730157        2.60968628194895        3.46119852725931     
 @CHECKOUT-I, Total execution time (CPU/WALL):        0.43/       0.08 seconds.
--executable xvtran finished with status     0 in        0.10 seconds (walltime).
 --invoking executable--
/home/tsommerfeld/zscale/bin/xintprc
 @GETMEM-I,  Allocated   85830 MB of main memory.
  Processing integrals for CCSD calculation.
  @GMOIAA-I, Processing MO integrals for spin case AA.
  @GMOIAA-I, Generation of integral list completed.
                      TYPE                NUMBER
                      ----               --------
                      PPPP                174781
                      PPPH                128448
                      PPHH                 24003
                      PHPH                 13755
                      PHHH                  5115
                      HHHH                   332

                     TOTAL                346434

  @FORMT2-I, Second-order MP correlation energies:
            ------------------------------------------------
            E(SCF)                  =    -78.517730629019 a.u.
            E2(AA)                  =     -0.031269654800 a.u.
            E2(AB)                  =     -0.244048972478 a.u.
            E2(TOT)                 =     -0.306588282079 a.u.
            Total MP2 energy        =    -78.824318911098 a.u.
            ------------------------------------------------
   Largest T2 amplitudes for spin case AB:
       _       _                 _       _                 _       _
   i   j   a   b             i   j   a   b             i   j   a   b
-----------------------------------------------------------------------------
[  4   4  35  35]-0.09184 [  5   5  10  10]-0.07682 [  5   5  26  26]-0.04479
[  5   5  12  12]-0.04191 [  5   5  10  11] 0.03315 [  5   5  11  10] 0.03315
[  5   5  16  16]-0.03224 [  4   4  40  35] 0.02980 [  4   4  35  40] 0.02980
[  5   5  16  10] 0.02932 [  5   5  10  16] 0.02932 [  4   3  35  41] 0.02661
[  3   4  41  35] 0.02661 [  5   5  38  38]-0.02652 [  4   4  14  14]-0.02588
-----------------------------------------------------------------------------
   Norm of T2AB vector (    47574 symmetry allowed elements):  0.3156819405.
-----------------------------------------------------------------------------
 @CHECKOUT-I, Total execution time (CPU/WALL):        0.39/       0.08 seconds.
--executable xintprc finished with status     0 in        0.10 seconds (walltime).
  calling xvcc 
 --invoking executable--
/home/tsommerfeld/zscale/bin/xvcc
 @GETMEM-I,  Allocated   85830 MB of main memory.
   CCSD energy will be calculated.
   The total correlation energy is -0.306588282079 a.u.
   The total correlation energy is -0.332457583022 a.u.
  Convergence information after     1 iterations: 
  Largest element of residual vector : -0.30159511E-01.
  Largest element of DIIS residual   : -0.30159511E-01.
   The total correlation energy is -0.342503562284 a.u.
  Convergence information after     2 iterations: 
  Largest element of residual vector : -0.14241476E-01.
  Largest element of DIIS residual   : -0.10411324E-01.
   The total correlation energy is -0.346636146183 a.u.
  Convergence information after     3 iterations: 
  Largest element of residual vector : -0.49701970E-02.
  Largest element of DIIS residual   : -0.42886956E-02.
   The total correlation energy is -0.347694384586 a.u.
  Convergence information after     4 iterations: 
  Largest element of residual vector : -0.22906466E-02.
  Largest element of DIIS residual   : -0.12542489E-02.
   The total correlation energy is -0.347878377986 a.u.
  Convergence information after     5 iterations: 
  Largest element of residual vector : -0.62225459E-03.
  Largest element of DIIS residual   :  0.32469790E-03.
   The total correlation energy is -0.347874734060 a.u.
  Convergence information after     6 iterations: 
  Largest element of residual vector : -0.21421294E-03.
  Largest element of DIIS residual   : -0.18298720E-03.
   The total correlation energy is -0.347865406513 a.u.
  Convergence information after     7 iterations: 
  Largest element of residual vector :  0.90316594E-04.
  Largest element of DIIS residual   : -0.54043097E-04.
   The total correlation energy is -0.347858190404 a.u.
  Convergence information after     8 iterations: 
  Largest element of residual vector :  0.34536511E-04.
  Largest element of DIIS residual   : -0.18560876E-04.
   The total correlation energy is -0.347857371718 a.u.
  Convergence information after     9 iterations: 
  Largest element of residual vector : -0.13803670E-04.
  Largest element of DIIS residual   : -0.10793832E-04.
   The total correlation energy is -0.347857769867 a.u.
  Convergence information after    10 iterations: 
  Largest element of residual vector : -0.51596477E-05.
  Largest element of DIIS residual   : -0.51684908E-05.
   The total correlation energy is -0.347858344464 a.u.
  Convergence information after    11 iterations: 
  Largest element of residual vector : -0.32875795E-05.
  Largest element of DIIS residual   : -0.26207807E-05.
   The total correlation energy is -0.347858762633 a.u.
  Convergence information after    12 iterations: 
  Largest element of residual vector : -0.14165403E-05.
  Largest element of DIIS residual   : -0.91651314E-06.
   The total correlation energy is -0.347858972610 a.u.
  Convergence information after    13 iterations: 
  Largest element of residual vector : -0.61393774E-06.
  Largest element of DIIS residual   : -0.40751548E-06.
   The total correlation energy is -0.347859001254 a.u.
  Convergence information after    14 iterations: 
  Largest element of residual vector : -0.22002920E-06.
  Largest element of DIIS residual   :  0.17604286E-06.
   The total correlation energy is -0.347858996310 a.u.
  Convergence information after    15 iterations: 
  Largest element of residual vector : -0.10172314E-06.
  Largest element of DIIS residual   :  0.94563200E-07.
   The total correlation energy is -0.347858986961 a.u.
  Convergence information after    16 iterations: 
  Largest element of residual vector :  0.53232296E-07.
  Largest element of DIIS residual   :  0.32641936E-07.
  Amplitude equations converged in    16iterations.
   The total correlation energy is -0.347858981823 a.u.
   The CC iterations have converged.

   Largest T1 amplitudes for spin case AA:
   i       a                 i       a                 i       a    
-----------------------------------------------------------------------------
[  5      10    ]-0.02297 [  4      14    ]-0.01682 [  4      18    ] 0.01593
[  4      15    ] 0.01540 [  5      16    ]-0.01304 [  5      17    ] 0.00758
[  4      12    ] 0.00740 [  6      27    ]-0.00617 [  4      21    ] 0.00581
[  3      13    ]-0.00480 [  9      56    ] 0.00447 [  9      50    ]-0.00438
[  3      23    ] 0.00402 [  6      30    ] 0.00399 [  3      19    ]-0.00374
-----------------------------------------------------------------------------
   Norm of T1AA vector (      123 symmetry allowed elements):  0.0438914316.
-----------------------------------------------------------------------------
   Largest T2 amplitudes for spin case AB:
       _       _                 _       _                 _       _
   i   j   a   b             i   j   a   b             i   j   a   b
-----------------------------------------------------------------------------
[  5   5  10  10]-0.14146 [  4   4  35  35]-0.13477 [  5   5  26  26]-0.06298
[  5   5  11  10] 0.06081 [  5   5  10  11] 0.06081 [  5   5  12  12]-0.05869
[  5   5  16  10] 0.05583 [  5   5  10  16] 0.05583 [  4   4  40  35] 0.04121
[  4   4  35  40] 0.04121 [  5   5  38  38]-0.03722 [  5   5  16  16]-0.03691
[  5   5  38  37] 0.03068 [  5   5  37  38] 0.03068 [  5   5  11  11]-0.02750
-----------------------------------------------------------------------------
   Norm of T2AB vector (    47574 symmetry allowed elements):  0.4109665712.
-----------------------------------------------------------------------------
       Summary of iterative solution of CC equations 
      -----------------------------------------------------------
                       Correlation           Total
       Iteration         Energy              Energy
      -----------------------------------------------------------
            0        -0.306588282079     -78.824318911098  DIIS 
            1        -0.332457583022     -78.850188212041  DIIS 
            2        -0.342503562284     -78.860234191303  DIIS 
            3        -0.346636146183     -78.864366775202  DIIS 
            4        -0.347694384586     -78.865425013605  DIIS 
            5        -0.347878377986     -78.865609007006  DIIS 
            6        -0.347874734060     -78.865605363080  DIIS 
            7        -0.347865406513     -78.865596035532  DIIS 
            8        -0.347858190404     -78.865588819423  DIIS 
            9        -0.347857371718     -78.865588000737  DIIS 
           10        -0.347857769867     -78.865588398886  DIIS 
           11        -0.347858344464     -78.865588973483  DIIS 
           12        -0.347858762633     -78.865589391652  DIIS 
           13        -0.347858972610     -78.865589601629  DIIS 
           14        -0.347859001254     -78.865589630273  DIIS 
           15        -0.347858996310     -78.865589625329  DIIS 
           16        -0.347858981823     -78.865589610842  DIIS 
      -----------------------------------------------------------
      A miracle has come to pass. The CC iterations have converged.
      The reference energy is       -78.51773062901924 a.u.
      The correlation energy is      -0.34785898182278 a.u.
      The total energy is           -78.86558961084202 a.u.
 @CHECKOUT-I, Total execution time (CPU/WALL):        5.66/       0.72 seconds.
--executable xvcc finished with status     0 in        0.74 seconds (walltime).
 --invoking executable--
/home/tsommerfeld/zscale/bin/xlambda
 @GETMEM-I,  Allocated   85830 MB of main memory.
 Hbar is calculated for a CCSD wave function.
 Calculation of Hbar completed.
 @CHECKOUT-I, Total execution time (CPU/WALL):        0.80/       0.11 seconds.
--executable xlambda finished with status     0 in        0.13 seconds (walltime).
 --invoking executable--
/home/tsommerfeld/zscale/bin/xvee
 @GETMEM-I,  Allocated   85830 MB of main memory.
  cc2 and ccprog  F                     0
  EOMEE-CCSD excitation energies will be evaluated.
  @SETMET-I, VPROP property integrals are used.
  @SETMET-I, A total of   3 target states will be studied.
  Summary of active alpha molecular orbitals:
------------------------------------------------------------------------------
Orbital      Sym   Eigenvalue  <xx>     <yy>     <zz>     <xy>     <xz>     <yz>
        SCF
  #  position
------------------------------------------------------------------------------
   1      1    1     -11.1104   0.000    0.000    0.000    0.000    0.000    0.000
   2      3    1      -0.9145   0.000    0.000    0.000    0.000    0.000    0.000
   3      6    1      -0.4418   0.000    0.000    0.000    0.000    0.000    0.000
   4      8    1      -0.2496   0.000    0.000    0.000    0.000    0.000    0.000
   5      9    1      -0.0405   0.000    0.000    0.000    0.000    0.000    0.000
   6      5    2      -0.5351   0.000    0.000    0.000    0.000    0.000    0.000
   7      2    3     -11.1087   0.000    0.000    0.000    0.000    0.000    0.000
   8      4    3      -0.6572   0.000    0.000    0.000    0.000    0.000    0.000
   9      7    4      -0.3916   0.000    0.000    0.000    0.000    0.000    0.000
  10     10    1       0.2843   0.000    0.000    0.000    0.000    0.000    0.000
  11     12    1       0.3271   0.000    0.000    0.000    0.000    0.000    0.000
  12     16    1       0.5555   0.000    0.000    0.000    0.000    0.000    0.000
  13     20    1       0.6793   0.000    0.000    0.000    0.000    0.000    0.000
  14     22    1       0.8109   0.000    0.000    0.000    0.000    0.000    0.000
  15     23    1       0.8753   0.000    0.000    0.000    0.000    0.000    0.000
  16     29    1       1.0925   0.000    0.000    0.000    0.000    0.000    0.000
  17     30    1       1.1336   0.000    0.000    0.000    0.000    0.000    0.000
  18     34    1       1.4112   0.000    0.000    0.000    0.000    0.000    0.000
  19     36    1       1.7190   0.000    0.000    0.000    0.000    0.000    0.000
  20     41    1       2.0405   0.000    0.000    0.000    0.000    0.000    0.000
  21     42    1       2.0536   0.000    0.000    0.000    0.000    0.000    0.000
  22     47    1       2.1680   0.000    0.000    0.000    0.000    0.000    0.000
  23     51    1       2.5382   0.000    0.000    0.000    0.000    0.000    0.000
  24     55    1       2.9117   0.000    0.000    0.000    0.000    0.000    0.000
  25     13    2       0.3420   0.000    0.000    0.000    0.000    0.000    0.000
  26     18    2       0.5622   0.000    0.000    0.000    0.000    0.000    0.000
  27     21    2       0.7762   0.000    0.000    0.000    0.000    0.000    0.000
  28     26    2       0.9847   0.000    0.000    0.000    0.000    0.000    0.000
  29     31    2       1.2405   0.000    0.000    0.000    0.000    0.000    0.000
  30     38    2       1.8114   0.000    0.000    0.000    0.000    0.000    0.000
  31     43    2       2.1087   0.000    0.000    0.000    0.000    0.000    0.000
  32     44    2       2.1419   0.000    0.000    0.000    0.000    0.000    0.000
  33     45    2       2.1459   0.000    0.000    0.000    0.000    0.000    0.000
  34     54    2       2.9098   0.000    0.000    0.000    0.000    0.000    0.000
  35     11    3       0.2950   0.000    0.000    0.000    0.000    0.000    0.000
  36     14    3       0.3591   0.000    0.000    0.000    0.000    0.000    0.000
  37     17    3       0.5614   0.000    0.000    0.000    0.000    0.000    0.000
  38     19    3       0.5631   0.000    0.000    0.000    0.000    0.000    0.000
  39     24    3       0.9130   0.000    0.000    0.000    0.000    0.000    0.000
  40     25    3       0.9380   0.000    0.000    0.000    0.000    0.000    0.000
  41     28    3       1.0852   0.000    0.000    0.000    0.000    0.000    0.000
  42     32    3       1.3596   0.000    0.000    0.000    0.000    0.000    0.000
  43     39    3       1.9515   0.000    0.000    0.000    0.000    0.000    0.000
  44     40    3       1.9987   0.000    0.000    0.000    0.000    0.000    0.000
  45     46    3       2.1478   0.000    0.000    0.000    0.000    0.000    0.000
  46     48    3       2.2920   0.000    0.000    0.000    0.000    0.000    0.000
  47     49    3       2.3882   0.000    0.000    0.000    0.000    0.000    0.000
  48     53    3       2.6526   0.000    0.000    0.000    0.000    0.000    0.000
  49     56    3       3.3514   0.000    0.000    0.000    0.000    0.000    0.000
  50     15    4       0.4137   0.000    0.000    0.000    0.000    0.000    0.000
  51     27    4       1.0582   0.000    0.000    0.000    0.000    0.000    0.000
  52     33    4       1.4093   0.000    0.000    0.000    0.000    0.000    0.000
  53     35    4       1.4670   0.000    0.000    0.000    0.000    0.000    0.000
  54     37    4       1.7352   0.000    0.000    0.000    0.000    0.000    0.000
  55     50    4       2.5379   0.000    0.000    0.000    0.000    0.000    0.000
  56     52    4       2.6097   0.000    0.000    0.000    0.000    0.000    0.000
  57     57    4       3.4612   0.000    0.000    0.000    0.000    0.000    0.000
------------------------------------------------------------------------------
  @DRVTDA-I, Roots obtained by Davidson method.
  calling tda davidson                       6                     2
  after tda davidson                      6                     6
                     3                     3
  kroot is                      3
__________________________________________________________________________
    Tamm-Dancoff (CIS) Excitation Energies and Transition Moments

                Excitation         Transition Dipole         Oscillator
 Root  Symmetry  Energy         x           y           z     Strength
__________________________________________________________________________
   1       2    0.26664      0.0000      0.0000      0.0000  .00000000D+00
__________________________________________________________________________
 
__________________________________________________________________________
  TDA excitation ergy:             0.266640202326 a.u.    7.2556 eV
  Total TDA electronic energy:   -78.251090426693 a.u.
 
  Dominant contributions: 
  SCF eigenvalue ordering used in list below. 
--------------------------------------------------------------------------------
    I    j    A    b
--------------------------------------------------------------------------------
    9    0   13    0  -0.9950746945 AA  
    8    0   13    0  -0.0892943247 AA  
    9    0   18    0   0.0293177926 AA  
    8    0   26    0  -0.0155995062 AA  
    7    0   11    0   0.0130871064 AA  
    8    0   21    0   0.0120334100 AA  
    6    0   13    0   0.0095568488 AA  
    9    0   26    0  -0.0090200993 AA  
    7    0   14    0   0.0087374025 AA  
    9    0   21    0   0.0070882026 AA  
    5    0   12    0   0.0059796490 AA  
    5    0   10    0   0.0034130908 AA  
    4    0   15    0   0.0031498259 AA  
    7    0   17    0  -0.0031238460 AA  
    8    0   18    0  -0.0030428861 AA  
--------------------------------------------------------------------------------
   2       2    0.33925      0.0000      0.0000      0.0000  .00000000D+00
__________________________________________________________________________
 
__________________________________________________________________________
  TDA excitation ergy:             0.339253175433 a.u.    9.2315 eV
  Total TDA electronic energy:   -78.178477453586 a.u.
 
  Dominant contributions: 
  SCF eigenvalue ordering used in list below. 
--------------------------------------------------------------------------------
    I    j    A    b
--------------------------------------------------------------------------------
    8    0   13    0  -0.9621726578 AA  
    7    0   11    0   0.2004938886 AA  
    8    0   26    0  -0.1128495410 AA  
    8    0   21    0   0.1055356997 AA  
    9    0   13    0   0.0923218642 AA  
    7    0   25    0  -0.0223941085 AA  
    8    0   18    0  -0.0210736641 AA  
    8    0   43    0   0.0099114071 AA  
    5    0   34    0   0.0090336867 AA  
    8    0   38    0  -0.0083447013 AA  
    9    0   21    0   0.0081543515 AA  
    7    0   24    0  -0.0074346430 AA  
    9    0   26    0  -0.0073333080 AA  
    7    0   14    0   0.0068713666 AA  
    4    0   33    0  -0.0058868859 AA  
--------------------------------------------------------------------------------
   3       2    0.36499      0.0000      0.0000      0.0000  .00000000D+00
__________________________________________________________________________
 
__________________________________________________________________________
  TDA excitation ergy:             0.364986268932 a.u.    9.9318 eV
  Total TDA electronic energy:   -78.152744360087 a.u.
 
  Dominant contributions: 
  SCF eigenvalue ordering used in list below. 
--------------------------------------------------------------------------------
    I    j    A    b
--------------------------------------------------------------------------------
    7    0   11    0  -0.9695319784 AA  
    8    0   13    0  -0.2017026673 AA  
    7    0   25    0   0.0927189067 AA  
    9    0   18    0  -0.0666746320 AA  
    5    0   34    0  -0.0409979798 AA  
    7    0   24    0   0.0308566027 AA  
    7    0   14    0  -0.0259325479 AA  
    8    0   26    0  -0.0250357405 AA  
    7    0   19    0  -0.0240301335 AA  
    5    0   22    0   0.0206370265 AA  
    7    0   17    0   0.0170812490 AA  
    5    0   23    0  -0.0167509511 AA  
    5    0   42    0  -0.0132130600 AA  
    5    0   16    0  -0.0126397313 AA  
    4    0   33    0   0.0119364960 AA  
--------------------------------------------------------------------------------
__________________________________________________________________________
  @DOEOMEE-I, Excitation energies computed by the EOMEE-CCSD/CCSD-LR method.
  @DOEOMEE-I, right-hand eigenvectors will be computed.
  Beginning symmetry block   2.   3 roots requested.
  @DOEOMEE-I, Matrix dimension for diagonalization:    45852
  Creating initial guess for root
________________________________________________________________________
            Subspace          Eigenvalue           
 Iteration  Dimension   (a.u.)         (eV)       Overlap      Residual
________________________________________________________________________
  @NEWGES-I, Using TDA initial guess.
  1   1  0.3168206301D+00  0.8621127633D+01  0.0000000000D+00  0.1270456707D+01
  2   2  0.2363815913D+00  0.6432270109D+01  0.9393693576D+00  0.1570041609D+00
  3   3  0.2271042495D+00  0.6179820804D+01  0.9896358903D+00  0.4285784633D-01
  4   4  0.2260722242D+00  0.6151737968D+01  0.9992255393D+00  0.2158466497D-01
  5   5  0.2258562815D+00  0.6145861868D+01  0.9996840234D+00  0.5624041985D-02
  6   6  0.2258258378D+00  0.6145033454D+01  0.9999404529D+00  0.3430686512D-02
  L-O-C-K-I-N-G O-N R-O-O-T 
  7   7  0.2258352013D+00  0.6145288249D+01  0.9999932437D+00  0.8544979168D-03
  8   8  0.2258348323D+00  0.6145278206D+01  0.9999996608D+00  0.5092701919D-03
  9   9  0.2258337077D+00  0.6145247605D+01  0.9999997527D+00  0.1410199697D-03
 10  10  0.2258336991D+00  0.6145247372D+01  0.9999999751D+00  0.1156573477D-03
 11  11  0.2258337443D+00  0.6145248602D+01  0.9999999917D+00  0.2749713749D-04
 12  12  0.2258337831D+00  0.6145249656D+01  0.9999999995D+00  0.8859368477D-05
  Converged eigenvalue:   0.225833783095664       a.u.
   Total EOMEE-CCSD electronic energy      -78.639755827746356 a.u.
  Converged eigenvector 
  SCF eigenvalue ordering used in list below. 
--------------------------------------------------------------------------------
    I    j    A    b
--------------------------------------------------------------------------------
    9    0   13    0   0.6512122784 AA  
    9    9   13   10   0.2153544079 ABAB
    9    9   10   13   0.2153544079 ABAB
    9    9   13   12  -0.0877598641 ABAB
    9    9   12   13  -0.0877598641 ABAB
    9    9   13   29  -0.0768527590 ABAB
    9    9   29   13  -0.0768527590 ABAB
    9    9   13   30   0.0365554900 ABAB
    9    9   30   13   0.0365554900 ABAB
    9    8   15   11  -0.0326178002 ABAB
    8    9   11   15  -0.0326178002 ABAB
    9    0   26    0   0.0262419809 AA  
    9    9   13   16  -0.0258317381 ABAB
    9    9   16   13  -0.0258317381 ABAB
    9    0   21    0  -0.0185758125 AA  
--------------------------------------------------------------------------------
  Converged eigenvector, normalized to one 
  SCF eigenvalue ordering used in list below. 
--------------------------------------------------------------------------------
    I    j    A    b
--------------------------------------------------------------------------------
    9    0   13    0   0.6512122784 AA  
    9    9   13   10   0.2153544079 ABAB
    9    9   10   13   0.2153544079 ABAB
    9    9   13   12  -0.0877598641 ABAB
    9    9   12   13  -0.0877598641 ABAB
    9    9   13   29  -0.0768527590 ABAB
    9    9   29   13  -0.0768527590 ABAB
    9    9   13   30   0.0365554900 ABAB
    9    9   30   13   0.0365554900 ABAB
    9    8   15   11  -0.0326178002 ABAB
    8    9   11   15  -0.0326178002 ABAB
    9    0   26    0   0.0262419809 AA  
    9    9   13   16  -0.0258317381 ABAB
    9    9   16   13  -0.0258317381 ABAB
    9    0   21    0  -0.0185758125 AA  
--------------------------------------------------------------------------------

  Eigenvector is saved on CCRE_2_1  

  Adding new vector to expansion space.
  Guess for next eigenvalue   0.339253175432750     
 13  13  0.3443274490D+00  0.9369626230D+01  0.6075792937D+00  0.1235863234D+00
 14  14  0.3397369148D+00  0.9244711443D+01  0.9882021986D+00  0.3521432873D-01
 15  15  0.3392703372D+00  0.9232015223D+01  0.9994334321D+00  0.1594582945D-01
 16  16  0.3392274451D+00  0.9230848068D+01  0.9998803082D+00  0.5367773533D-02
  L-O-C-K-I-N-G O-N R-O-O-T 
 17  17  0.3392233649D+00  0.9230737039D+01  0.9999614376D+00  0.1470563115D-02
 18  18  0.3392235255D+00  0.9230741411D+01  0.9999963552D+00  0.5796886605D-03
 19  19  0.3392234874D+00  0.9230740373D+01  0.9999997608D+00  0.1691640470D-03
 20  20  0.3392238206D+00  0.9230749440D+01  0.9999999851D+00  0.7312374577D-04
 21  21  0.3392238566D+00  0.9230750422D+01  0.9999999954D+00  0.2225848566D-04
 22  22  0.3392237764D+00  0.9230748237D+01  0.9999999995D+00  0.1081374900D-04
 23  23  0.3392237791D+00  0.9230748312D+01  0.9999999999D+00  0.5901970503D-05
  Converged eigenvalue:   0.339223779104713       a.u.
   Total EOMEE-CCSD electronic energy      -78.526365831737309 a.u.
  Converged eigenvector 
  SCF eigenvalue ordering used in list below. 
--------------------------------------------------------------------------------
    I    j    A    b
--------------------------------------------------------------------------------
    7    0   11    0   0.5509522182 AA  
    8    0   13    0  -0.3922153806 AA  
    5    8   11   11   0.0774433215 ABAB
    8    5   11   11   0.0774433215 ABAB
    7    0   25    0  -0.0648534981 AA  
    8    0   21    0   0.0479286113 AA  
    8    0   26    0  -0.0456351165 AA  
    8    8   15   11   0.0344244290 ABAB
    8    8   11   15   0.0344244290 ABAB
    7    4   24   11  -0.0278976578 ABAB
    4    7   11   24  -0.0278976578 ABAB
    7    5   21   11   0.0257531531 ABAB
    5    7   11   21   0.0257531531 ABAB
    5    8   13   13  -0.0222721833 ABAB
    8    5   13   13  -0.0222721833 ABAB
--------------------------------------------------------------------------------
  Converged eigenvector, normalized to one 
  SCF eigenvalue ordering used in list below. 
--------------------------------------------------------------------------------
    I    j    A    b
--------------------------------------------------------------------------------
    7    0   11    0   0.5509522182 AA  
    8    0   13    0  -0.3922153806 AA  
    5    8   11   11   0.0774433215 ABAB
    8    5   11   11   0.0774433215 ABAB
    7    0   25    0  -0.0648534981 AA  
    8    0   21    0   0.0479286113 AA  
    8    0   26    0  -0.0456351165 AA  
    8    8   15   11   0.0344244290 ABAB
    8    8   11   15   0.0344244290 ABAB
    7    4   24   11  -0.0278976578 ABAB
    4    7   11   24  -0.0278976578 ABAB
    7    5   21   11   0.0257531531 ABAB
    5    7   11   21   0.0257531531 ABAB
    5    8   13   13  -0.0222721833 ABAB
    8    5   13   13  -0.0222721833 ABAB
--------------------------------------------------------------------------------

  Eigenvector is saved on CCRE_2_2  

  Adding new vector to expansion space.
  Guess for next eigenvalue   0.364986268931825     
 24  24  0.3547684178D+00  0.9653739435D+01  0.5217008593D+00  0.5968225720D-01
 25  25  0.3530905208D+00  0.9608081535D+01  0.9986872211D+00  0.1114608831D-01
 26  26  0.3529195686D+00  0.9603429690D+01  0.9999166197D+00  0.3700299158D-02
  L-O-C-K-I-N-G O-N R-O-O-T 
 27  27  0.3529133827D+00  0.9603261363D+01  0.9999941565D+00  0.1064481299D-02
 28  28  0.3529133725D+00  0.9603261086D+01  0.9999993884D+00  0.6141954629D-03
 The phase angle is:  -5.655923680587291E-002
 Cr.Cr.  8.273100952939461E-002
 Ci.Ci.  0.917268990470605     
 29  29  0.3529130731D+00  0.9603252938D+01  0.9999998688D+00  0.2068653494D-03
 30  30  0.3529131499D+00  0.9603255030D+01  0.9999999812D+00  0.7454367148D-04
 31  31  0.3529132354D+00  0.9603257355D+01  0.9999999972D+00  0.3895655171D-04
 32  32  0.3529132211D+00  0.9603256967D+01  0.9999999995D+00  0.8828482723D-05
  Converged eigenvalue:   0.352913221133251       a.u.
   Total EOMEE-CCSD electronic energy      -78.512676389708773 a.u.
  Converged eigenvector 
  SCF eigenvalue ordering used in list below. 
--------------------------------------------------------------------------------
    I    j    A    b
--------------------------------------------------------------------------------
    8    0   13    0  -0.5573304565 AA  
    7    0   11    0  -0.3920549943 AA  
    8    0   26    0  -0.0638304553 AA  
    5    8   11   11  -0.0508258379 ABAB
    8    5   11   11  -0.0508258379 ABAB
    8    0   21    0   0.0445510834 AA  
    7    0   25    0   0.0422205797 AA  
    8    8   15   11   0.0382073729 ABAB
    8    8   11   15   0.0382073729 ABAB
    5    8   13   13  -0.0318041656 ABAB
    8    5   13   13  -0.0318041656 ABAB
    4    8   14   13  -0.0240753947 ABAB
    8    4   13   14  -0.0240753947 ABAB
    7    8   15   13  -0.0229565941 ABAB
    8    7   13   15  -0.0229565941 ABAB
--------------------------------------------------------------------------------
  Converged eigenvector, normalized to one 
  SCF eigenvalue ordering used in list below. 
--------------------------------------------------------------------------------
    I    j    A    b
--------------------------------------------------------------------------------
    8    0   13    0  -0.5573304565 AA  
    7    0   11    0  -0.3920549943 AA  
    8    0   26    0  -0.0638304553 AA  
    5    8   11   11  -0.0508258379 ABAB
    8    5   11   11  -0.0508258379 ABAB
    8    0   21    0   0.0445510834 AA  
    7    0   25    0   0.0422205797 AA  
    8    8   15   11   0.0382073729 ABAB
    8    8   11   15   0.0382073729 ABAB
    5    8   13   13  -0.0318041656 ABAB
    8    5   13   13  -0.0318041656 ABAB
    4    8   14   13  -0.0240753947 ABAB
    8    4   13   14  -0.0240753947 ABAB
    7    8   15   13  -0.0229565941 ABAB
    8    7   13   15  -0.0229565941 ABAB
--------------------------------------------------------------------------------

  Eigenvector is saved on CCRE_2_3  

  Solution of   3 roots required   32 iterations.
 @CHECKOUT-I, Total execution time (CPU/WALL):       18.27/       2.29 seconds.
--executable xvee finished with status     0 in        2.31 seconds (walltime).
  The final electronic energy is       -78.512676389708773 a.u. 
  This computation required                            3.98 seconds (walltime).
