CFour on node02
 --invoking executable--
/home/tsommerfeld/zscale/bin/xjoda


   *************************************************************************
         <<<     CCCCCC     CCCCCC   |||     CCCCCC     CCCCCC   >>>
       <<<      CCC        CCC       |||    CCC        CCC         >>>
      <<<      CCC        CCC        |||   CCC        CCC            >>>
    <<<        CCC        CCC        |||   CCC        CCC              >>>
      <<<      CCC        CCC        |||   CCC        CCC            >>>
       <<<      CCC        CCC       |||    CCC        CCC         >>>
         <<<     CCCCCC     CCCCCC   |||     CCCCCC     CCCCCC   >>>
   *************************************************************************

     ****************************************************************
     * CFOUR Coupled-Cluster techniques for Computational Chemistry *
     ****************************************************************
 

   Department of Chemistry                Institut fuer Physikalische Chemie
   University of Florida                  Universitaet Mainz
   Gainesville, FL 32611, USA             D-55099 Mainz, Germany

   Department of Chemistry                Department of Chemistry
   Johns Hopkins University               Southern Methodist University
   Baltimore, MD 21218, USA               Dallas, TX 75275, USA

   Institute of Nanotechnology            Department of Physical Chemistry
   Karlsruhe Inst. of Technology          Eotvos Lorand University
   D-76021 Karlsruhe, Germany             H-1053 Budapest, Hungary

 
                       Version 2.1
 
                     node02                                            
                     Tue Mar 29 16:05:08 CST 2022                      
                     integer*8 version is running
 
********************************************************************************
*                          Input from ZMAT file                                *
********************************************************************************
h_ethylene                                                                      
C       0.000000      0.0   -0.664500                                           
C       0.000000      0.0    0.664500                                           
H       0.962348      0.0   -1.159080                                           
H       0.962348      0.0    1.159080                                           
H      -0.962348      0.0   -1.159080                                           
H      -0.962348      0.0    1.159080                                           
H      0.000000      2.6818181818181817      0.000000                           
                                                                                
*CFOUR(CALC=CCSD                                                                
EXCITE=EOMEE                                                                    
ESTATE_SYM=0/3/0/0                                                              
CC_PROG=VCC                                                                     
CHARGE=-1                                                                       
COORDINATES=CARTESIAN                                                           
BASIS=SPECIAL                                                                   
REFERENCE=RHF                                                                   
MEM_SIZE=90,MEM_UNIT=GB)                                                        
                                                                                
C:CC-PVDZ                                                                       
C:CC-PVDZ                                                                       
H:CC-PVDZ                                                                       
H:CC-PVDZ                                                                       
H:CC-PVDZ                                                                       
H:CC-PVDZ                                                                       
H:AUG-CC-PVDZ                                                                   
                                                                                
********************************************************************************
    -------------------------------------------------------------------
                    CFOUR Control Parameters 
    -------------------------------------------------------------------
        External           Internal           Value            Units
          Name               Name
    -------------------------------------------------------------------
       ABCDTYPE             IABCDT         STANDARD    [  0]    ***   
       ANHARMONIC           IANHAR         OFF         [  0]    ***   
       ANH_ALGORIT          IANALG         STANDARD    [  0]    ***   
       ANH_DERIVAT          IANDER         SECOND      [  1]    ***   
       ANH_MODE             ANHMOD         VIBRATION   [  0]    ***   
       ANH_STEPSIZ          ICUBST             50000          x 10-6  
       ANH_SYMMETR          IANHSM         ABELIAN     [  0]    ***   
       AO_LADDERS           IAOLAD         SINGLEPASS  [  1]    ***   
       AV_SCF               IAVSCF         OFF         [  0]    ***   
       BASIS                IBASIS         SPECIAL     [  0]    ***   
       BOTHVECTORS          BOTHVC         OFF         [  0]    ***   
       BOX_POTENT           IPIAB          OFF         [  0]    ***   
       BREIT                IBREIT         OFF         [  0]    ***   
       BRUCK_CONV           IBRTOL          10D-  4             ***   
       BRUECKNER            IBRKNR         OFF         [  0]    ***   
       BUFFERSIZE           IBUFFS              4096            ***   
       CACHE_RECS           ICHREC             10               ***   
       CALCLEVEL            ICLLVL         CCSD        [ 10]    ***   
       CCORBOPT             ICCORB         OFF         [  0]  x 0.01  
       CC_CONV              ICCCNV          10D-  7             ***   
       CC_EXPORDER          ICCEOR              5               ***   
       CC_EXTRAPOL          ICCEXT         DIIS        [  1]    ***   
       CC_GUESS             ICCGES         MP2         [  0]    ***   
       CC_MAXCYC            ICCCYC            100              cycles 
       CC_PROGRAM           ICCPRO         VCC         [  0]    ***   
       CHARGE               ICHRGE             -1               ***   
       CHOLESKY             ICHOLE         OFF         [  0]    ***   
       CIS_CONV             ICISTL              5               ***   
       COMM_SIZE            IPSIZE            ***               ***   
       CONSTANT             ICONST         OLD         [  1]    ***   
       CONTINUUM            ICONTU         NONE        [  0]    ***   
       CONTRACTION          ICNTYP         GENERAL     [  1]    ***   
       COORDINATES          ICOORD         CARTESIAN   [  1]    ***   
       CPHF_CONVER          ICPHFT          10D- 16             ***   
       CPHF_MAXCYC          ICPHFC             64              cycles 
       CUBIC                ICUBIC         OFF         [  0]    ***   
       CURVILINEAR          ICURVY         OFF         [  0]    ***   
       DBOC                 IDBOC          OFF         [  0]    ***   
       DCT                  IDCT           OFF         [  0]    ***   
       DERIV_LEV            IDRLVL         ZERO        [  0]    ***   
       DEVMEM_SIZE          IDVMEM         *********           MByte  
       DIAG_MRCC            IEOMST          10D-  0             ***   
       DIFF_TYPE            IDIFTY         RELAXED     [  0]    ***   
       DIRECT               IDIRCT         OFF         [  0]    ***   
       DROPMO               IDRPMO      NONE         
       ECP                  IECP           OFF         [  0]    ***   
       EIGENVECTOR          IVEC                1               ***   
       EL_ANHARM            IELANH         OFF         [  0]    ***   
       EOMFOLLOW            IEOMSR         ENERGY      [  0]    ***   
       EOMIP                IEOMIP         OFF         [  0]    ***   
       EOMLEVEL             HBARFM         SAME        [  0]    ***   
       EOM_MRCC             IMRCCE         NEW         [  1]    ***   
       EOM_NONIT            EOMNON         OFF         [  0]    ***   
       EOM_NSING            IEOMSI          10D-  0             ***   
       EOM_NSTATES          IMRCCD         DAVIDSON    [  0]    ***   
       EOM_NTRIP            IEOMTR          10D-  0             ***   
       EOM_ORDER            IEXORD         ENERGY      [  0]    ***   
       EOM_PROPSTA          IEOMST              0               ***   
       ESTATE_CONV          IEXTOL          10D-  5             ***   
       ESTATE_DIAG          IEXDIG         ITERATIVE   [  0]    ***   
       ESTATE_LOCK          IESLOC         ON          [  1]    ***   
       ESTATE_MAXC          IEXMXC             40               ***   
       ESTATE_PROP          IEXPRP         OFF         [  0]    ***   
       ESTATE_SYM           IEXSYM   0,  3,  0,  0,
       EVAL_HESS            IRECAL              0            # of cyc.
       EXCITATION           IEXCIT              0               ***   
       EXCITE               IEXCIT         EOMEE       [  3]    ***   
       EXTERN_POT           IEXPOT         OFF         [  0]    ***   
       FCGRADNEW            IFCGNW         OFF         [  0]    ***   
       FC_FIELD             IFINFC              0             x 10-6  
       FD_CALTYPE           IFDCAL         GRADONLY    [  0]    ***   
       FD_PROJECT           IFDPRJ         OFF         [  1]    ***   
       FD_STEPSIZE          IDISFD              0            10-4 bohr
       FD_USEGROUP          IFDGRP         FULL        [  0]    ***   
       FILE_RECSIZ          IFLREC              4096           words  
       FINITE_PERT          IFIPER              0             x 10-6  
       FIXGEOM              IFIXGM         OFF         [  0]    ***   
       FOCK                 IFOCK          AO          [  1]    ***   
       FREQ_ALGORI          IVIALG         STANDARD    [  0]    ***   
       FROZEN_CORE          IFROCO         OFF         [  0]    ***   
       GAMMA_ABCD           IGABCD         STORE       [  0]    ***   
       GAMMA_ABCI           IGABCI         STORE       [  0]    ***   
       GENBAS_1             IGNBS1              0               ***   
       GENBAS_2             IGNBS2              0               ***   
       GENBAS_3             IGNBS3              0               ***   
       GENBAS_4             IGNBS4              0               ***   
       GEO_CONV             ICONTL              5              H/bohr 
       GEO_MAXCYC           IOPTCY             50               ***   
       GEO_MAXSTEP          IMXSTP            300            millibohr
       GEO_METHOD           INR            SINGLE_POINT[  5]    ***   
       GIAO                 IGIAO          OFF         [  1]    ***   
       GIMIC                IGIMIC         OFF         [  0]    ***   
       GRID                 IGRID          OFF         [  0]    ***   
       GRID_ALGO            IGALGO         SERIAL      [  0]    ***   
       GUESS                IGUESS         MOREAD      [  0]    ***   
       HBAR                 IHBAR          ON          [  1]    ***   
       HESS_TYPE            IHESTP         SCF         [  0]    ***   
       HF2_FILE             IHF2Fl         USE         [  1]    ***   
       HFSTABILITY          ISTABL         OFF         [  0]    ***   
       INCORE               INCORE         OFF         [  0]    ***   
       INPUT_MRCC           IMRCC          ON          [  1]    ***   
       INTEGRALS            INTTYP         VMOL        [  1]    ***   
       JODA_PRINT           IJPRNT              0               ***   
       KEYWORD_OUT          IDMPKW         NO          [  0]    ***   
       LINDEP_TOL           ILINDP              8               ***   
       LINEQ_CONV           IZTACN          10D-  7           cycles  
       LINEQ_EXPOR          ILMAXD              5               ***   
       LINEQ_MAXCY          ILMAXC            100               ***   
       LINEQ_TYPE           ILTYPE         DIIS        [  1]    ***   
       LOCK_ORBOCC          ILOCOC         OFF         [  0]    ***   
       MEMORY_SIZE          IMEMSZ         *********           words  
       MEM_UNIT             IMEMU          GB          [  3]    ***   
       MRCC                 IMRCCC         OFF         [  0]    ***   
       MULTIPLICTY          IMULTP              1               ***   
       NACOUPLING           IVCOUP         OFF         [  0]    ***   
       NEGEVAL              IDIE           ABORT       [  0]    ***   
       NEWNORM              INEWNO         OFF         [  0]    ***   
       NON-HF               INONHF         OFF         [  0]    ***   
       NTOP_TAMP            ITOPT2             15               ***   
       NUC_MODEL            INUCMO         POINT       [  0]    ***   
       OCCUPATION           IOCCU   ESTIMATED BY SCF 
       OPEN-SHELL           IOPEN          SPIN-ORBITAL[  0]    ***   
       OPTVIB               IOPTVB         OFF         [  0]    ***   
       ORBITALS             IORBTP         STANDARD    [  0]    ***   
       PARALLEL             IPARAL         ON          [  1]    ***   
       PARA_INT             IPINTS         ON          [  1]    ***   
       PARA_PRINT           IPPRIN              0               ***   
       PERT_ORB             IPTORB         STANDARD    [  0]    ***   
       POINTS               IGRDFD              0               ***   
       PRINT                IPRNT               0               ***   
       PROPS                IPROPS         OFF         [  0]    ***   
       PROP_INTEGR          IINTYP         INTERNAL    [  0]    ***   
       PSI                  IPSI           OFF         [  0]    ***   
       QC_ALG               IQCALG         FLM         [  0]    ***   
       QC_LINALG            IQCLIN         TRIDIAG     [  2]    ***   
       QC_MAXCYC            IQCMAX          10D-100           cycles  
       QC_MAXSCFCY          IQCMSC          10D- 15           cycles  
       QC_RTRUST            IQCRTR          10D-  0           x 10-3  
       QC_SKIPSCF           IQCSKI         OFF         [  0]    ***   
       QC_START             IQCSTA          10D-  1             ***   
       QRHFGUESS            IQGUES         OFF         [  0]    ***   
       QUARTIC              IQUART         OFF         [  0]    ***   
       RAMAN_INT            IRAMIN         OFF         [  0]    ***   
       RAMAN_ORB            IRAMRE         UNRELAXED   [  0]    ***   
       RDO                  IRDOFM         OFF         [  0]    ***   
       REDUCE_REPR          REDREP         Ir          [  0]    ***   
       REFERENCE            IREFNC         RHF         [  0]    ***   
       RELATIVIST           IRELAT         OFF         [  0]    ***   
       RELAX_DENS           IRDENS         OFF         [  0]    ***   
       RESET_FLAGS          IRESET         OFF         [  0]    ***   
       RESTART_CC           ICCRES         OFF         [  0]    ***   
       ROT_EVEC             ROTVEC              0               ***   
       SAVE_INTS            ISVINT         OFF         [  0]    ***   
       SCALE_ON             ISTCRT              0               ***   
       SCF_CONV             ISCFCV          10D-  7             ***   
       SCF_DAMPING          IDAMP               0             x 10-3  
       SCF_EXPORDE          IRPPOR              6               ***   
       SCF_EXPSTAR          IRPPLS              8               ***   
       SCF_EXTRAPO          IRPP           ON          [  1]    ***   
       SCF_MAXCYC           ISCFCY            150              cycles 
       SCF_NOSTOP           ISCFST         OFF         [  0]    ***   
       SCF_PRINT            ISCFPR              0               ***   
       SCF_PROG             ISCFPR         SCF         [  0]    ***   
       SD_FIELD             IFINSD              0             x 10-6  
       SOPERT               IPERSO         OFF         [  0]    ***   
       SPHERICAL            IDFGHI         ON          [  1]    ***   
       SPINORBIT            ISOCAL         OFF         [  0]    ***   
       SPINROTATIO          ISRCON         OFF         [  0]    ***   
       SPIN_FLIP            ISPFLP         OFF         [  0]    ***   
       SPIN_ORBIT           ISPORB         OFF         [  0]    ***   
       SPIN_SCAL            ISCSMP         OFF         [  0]    ***   
       STEEPSCALE           ISTPSC              1000          x 10-3  
       SUBGROUP             ISUBGP         DEFAULT     [  0]    ***   
       SUBGRPAXIS           ISBXYZ         X           [  0]    ***   
       SYMMETRY             ISYM           ON          [  0]    ***   
       SYM_CHECK            ISYMCK         OVERRIDE    [  1]    ***   
       T3_EXTRAPOL          IT3EXT         OFF         [  0]    ***   
       T4_EXTRAPOL          IT4EXP         OFF         [  0]    ***   
       TAMP_SUM             IEVERY              5               ***   
       TESTSUITE            ITESTS         OFF         [  0]    ***   
       THERMOCH             ITHERM         OFF         [  0]    ***   
       TOL_CHOLESK          ITOLCH          10D-  4             ***   
       TRANGRAD             IRESRM         OFF         [  0]    ***   
       TRANS_INV            ITRAIN         USE         [  0]    ***   
       TREAT_PERT           ITREAT         SIMULTANEOUS[  0]    ***   
       TRIP_ALGORI          ITRALG         NORMAL      [  0]    ***   
       UIJ_THRESHO          IUIJTH              1               ***   
       UNITS                IUNITS         ANGSTROM    [  0]    ***   
       UNOS                 IUNOS          OFF         [  0]    ***   
       UPDATE_HESS          IHUPDT         ON          [  1]    ***   
       VIBPHASE             ISETPH         STANDARD    [  0]    ***   
       VIBRATION            IVIB           NO          [  0]    ***   
       VIB_ALGORIT          IGEALG         STANDARD    [  0]    ***   
       VNATORB              IVNORB         OFF         [  0]    ***   
       VTRAN                IVTRAN         FULL/PARTIAL[  0]    ***   
       XFIELD               IXEFLD              0             x 10-6  
       XFORM_TOL            IXFTOL          10D- 11             ***   
       YFIELD               IYEFLD              0             x 10-6  
       ZFIELD               IZEFLD              0             x 10-6  
       ZSCALE_EXP           IZEXPS         OFF         [  0]    ***   
    -------------------------------------------------------------------
  @GETXYZ-I,     7 atoms read from ZMAT.
   Rotational constants (in cm-1): 
          0.7326147132             0.8536890782             1.5710296657
   Rotational constants (in MHz): 
      21963.2396407149         25592.9582983936         47098.2911056539
********************************************************************************
   The full molecular point group is C2v .
   The largest Abelian subgroup of the full molecular point group is C2v .
   The computational point group is C2v .
********************************************************************************


 ----------------------------------------------------------------
         Coordinates used in calculation (QCOMP) 
 ----------------------------------------------------------------
 Z-matrix   Atomic            Coordinates (in bohr)
  Symbol    Number           X              Y              Z
 ----------------------------------------------------------------
     C         6         0.00000000    -1.25572327     0.17588545
     C         6         0.00000000     1.25572327     0.17588545
     H         1         1.81857454    -2.19034422     0.17588545
     H         1         1.81857454     2.19034422     0.17588545
     H         1        -1.81857454    -2.19034422     0.17588545
     H         1        -1.81857454     2.19034422     0.17588545
     H         1         0.00000000     0.00000000    -4.89201750
 ----------------------------------------------------------------
 
   Interatomic distance matrix (Angstroms) 
 
                 C             C             H             H             H    
                [ 1]        [ 2]        [ 3]        [ 4]        [ 5]
  C    [ 1]     0.00000
  C    [ 2]     1.32900     0.00000
  H    [ 3]     1.08200     2.06193     0.00000
  H    [ 4]     2.06193     1.08200     2.31816     0.00000
  H    [ 5]     1.08200     2.06193     1.92470     3.01303     0.00000
  H    [ 6]     2.06193     1.08200     3.01303     1.92470     2.31816
  H    [ 7]     2.76292     2.76292     3.07599     3.07599     3.07599
 
                 H             H    
                [ 6]        [ 7]
  H    [ 6]     0.00000
  H    [ 7]     3.07599     0.00000
 rotcon2
   Rotational constants (in cm-1): 
          0.7326147132             1.5710296657             0.8536890782
   Rotational constants (in MHz): 
      21963.2396407149         47098.2911056539         25592.9582983935
  ECPDATA file not present.   Using default ECPDATA. 
  There are   57 basis functions.
 @GEOPT-W, Archive file not created for single-point calculation.
 @CHECKOUT-I, Total execution time (CPU/WALL):        0.12/       0.13 seconds.
--executable xjoda finished with status     0 in        0.15 seconds (walltime).
 --invoking executable--
/home/tsommerfeld/zscale/bin/xvmol
 SERIAL VERSION OF MOLECULE STARTED
********************************************************************************
                    INPUT FROM MOL FILE
********************************************************************************
INTGRL        1    0    1    0    0    0    0    0    0                         
         *** CFOUR Program System (Release V0.1) ***                            
h_ethylene                                                                      
    3    2 X  Y       0.10E-08              0    0                              
   9999.00      3.00                                                            
          6.00000000    1    3    1    1    1                                   
C #1   0.000000000000000  -1.255723272983657   0.175885445202178                
    9    3                                                                      
   6665.00000000000       6.920000000000000E-004 -1.460000000000000E-004        
  0.000000000000000E+000                                                        
   1000.00000000000       5.329000000000000E-003 -1.154000000000000E-003        
  0.000000000000000E+000                                                        
   228.000000000000       2.707700000000000E-002 -5.725000000000000E-003        
  0.000000000000000E+000                                                        
   64.7100000000000       0.101718000000000      -2.331200000000000E-002        
  0.000000000000000E+000                                                        
   21.0600000000000       0.274740000000000      -6.395500000000000E-002        
  0.000000000000000E+000                                                        
   7.49500000000000       0.448564000000000      -0.149981000000000             
  0.000000000000000E+000                                                        
   2.79700000000000       0.285074000000000      -0.127262000000000             
  0.000000000000000E+000                                                        
  0.521500000000000       1.520400000000000E-002  0.544529000000000             
  0.000000000000000E+000                                                        
  0.159600000000000      -3.191000000000000E-003  0.580496000000000             
   1.00000000000000                                                             
    4    2                                                                      
   9.43900000000000       3.810900000000000E-002  0.000000000000000E+000        
   2.00200000000000       0.209480000000000       0.000000000000000E+000        
  0.545600000000000       0.508557000000000       0.000000000000000E+000        
  0.151700000000000       0.468842000000000        1.00000000000000             
    1    1                                                                      
  0.550000000000000        1.00000000000000                                     
          1.00000000    1    2    1    1                                        
H #2   1.818574537711477  -2.190344215575466   0.175885445202178                
    4    2                                                                      
   13.0100000000000       1.968500000000000E-002  0.000000000000000E+000        
   1.96200000000000       0.137977000000000       0.000000000000000E+000        
  0.444600000000000       0.478148000000000       0.000000000000000E+000        
  0.122000000000000       0.501240000000000        1.00000000000000             
    1    1                                                                      
  0.727000000000000        1.00000000000000                                     
          1.00000000    1    2    1    1                                        
H #3   0.000000000000000   0.000000000000000  -4.892017496588354                
    5    3                                                                      
   13.0100000000000       1.968500000000000E-002  0.000000000000000E+000        
  0.000000000000000E+000                                                        
   1.96200000000000       0.137977000000000       0.000000000000000E+000        
  0.000000000000000E+000                                                        
  0.444600000000000       0.478148000000000       0.000000000000000E+000        
  0.000000000000000E+000                                                        
  0.122000000000000       0.501240000000000        1.00000000000000             
  0.000000000000000E+000                                                        
  2.974000000000000E-002  0.000000000000000E+000  0.000000000000000E+000        
   1.00000000000000                                                             
    2    2                                                                      
  0.727000000000000        1.00000000000000       0.000000000000000E+000        
  0.141000000000000       0.000000000000000E+000   1.00000000000000             
FINISH                                                                          
 
********************************************************************************
 ONE- AND TWO-ELECTRON INTEGRALS OVER SYMMETRY-ADAPTED AOS ARE CALCULATED.

  SPHERICAL HARMONICS ARE USED.
  
  INTEGRALS LESS THAN  0.10E-13 ARE NEGLECTED.

  NUCLEAR REPULSION ENERGY :   36.5756950206 A.U.
  @MOLECU-I, ONE ELECTRON INTEGRALS (CPU/WALL):        0.01/       0.01 SECONDS.
  @TWOEL-I,      29572 INTEGRALS OF SYMMETRY TYPE  I I I I
  @TWOEL-I,     102291 INTEGRALS OF SYMMETRY TYPE  I J I J
  @TWOEL-I,      58089 INTEGRALS OF SYMMETRY TYPE  I I J J
  @TWOEL-I,      75480 INTEGRALS OF SYMMETRY TYPE  I J K L
  @TWOEL-I, TOTAL NUMBER OF 2-E INTEGRALS     265432.
  @MOLECU-I, TWO ELECTRON INTEGRALS (CPU/WALL):        0.22/       0.23 SECONDS.
 @CHECKOUT-I, Total execution time (CPU/WALL):        0.24/       0.25 seconds.

Running with 8 threads/proc

--executable xvmol finished with status     0 in        0.27 seconds (walltime).
 --invoking executable--
/home/tsommerfeld/zscale/bin/xvmol2ja
 @GETMEM-I,  Allocated   85830 MB of main memory.
 @CHECKOUT-I, Total execution time (CPU/WALL):        0.02/       0.01 seconds.
--executable xvmol2ja finished with status     0 in        0.03 seconds (walltime).
 --invoking executable--
/home/tsommerfeld/zscale/bin/xvscf
  There are   57 functions in the AO basis.

  There are 4 irreducible representations.

       Irrep        # of functions
         1                 20
         2                 11
         3                 17
         4                  9


  Parameters for SCF calculation: 
        SCF reference function:  RHF  
  Maximum number of iterations:  150
     Full symmetry point group: C2v 
     Computational point group: C2v 
        Initial density matrix: MOREAD                 
     SCF convergence tolerance: 10**(- 7)
  DIIS convergence acceleration:  ON
          Latest start for DIIS:   8
                     DIIS order:   6

  Memory information:     156410 words required.
  Fock matrices are constructed from AO integral file.
 @GETMEM-I,  Allocated       1 MB of main memory.
  Initialization and symmetry analysis required      0.002 seconds.

  @INITGES-I, Occupancies from core Hamiltonian:

          Alpha population by irrep:   3    1    4    1
           Beta population by irrep:   3    1    4    1


 total no. of electrons in initial guess :  0.000000000000000E+000
  --------------------------------------------------------------------
  Iteration         Total Energy            Largest Density Difference
  --------------------------------------------------------------------
       0            36.575695020558626              0.0000000000D+00
   current occupation vector 
     3  1  4  1
     3  1  4  1
       1           -61.141587043804734              0.8840233564D+01
   current occupation vector 
     3  1  4  1
     3  1  4  1
       2           -60.906734484207703              0.8697977964D+01
   current occupation vector 
     4  1  3  1
     4  1  3  1
       3           -70.661560857811025              0.4583497046D+01
   current occupation vector 
     4  1  3  1
     4  1  3  1
       4           -64.019774516850759              0.4441609754D+01
   current occupation vector 
     4  2  3  0
     4  2  3  0
       5           -71.818796219148084              0.4441654499D+01
   current occupation vector 
     4  1  3  1
     4  1  3  1
       6           -64.851467265384187              0.4392436420D+01
   current occupation vector 
     4  2  3  0
     4  2  3  0
       7           -72.096868669354421              0.4392435562D+01
   current occupation vector 
     4  1  3  1
     4  1  3  1
       8           -65.041880240480197              0.4380253082D+01
   current occupation vector 
     4  2  3  0
     4  2  3  0
       9           -77.018325503052480              0.4380207752D+01
   current occupation vector 
     4  1  3  1
     4  1  3  1
      10           -78.450610021473040              0.1286374554D+01
   current occupation vector 
     5  1  2  1
     5  1  2  1
      11           -78.490414808149382              0.4222811617D+00
   current occupation vector 
     5  1  2  1
     5  1  2  1
      12           -78.498091970363404              0.8861929772D-01
   current occupation vector 
     5  1  2  1
     5  1  2  1
      13           -78.499339860575105              0.4966690078D-01
   current occupation vector 
     5  1  2  1
     5  1  2  1
      14           -78.499366569872180              0.7076460347D-02
   current occupation vector 
     5  1  2  1
     5  1  2  1
      15           -78.499367307060851              0.1064518870D-02
   current occupation vector 
     5  1  2  1
     5  1  2  1
      16           -78.499367369951202              0.3527698792D-03
   current occupation vector 
     5  1  2  1
     5  1  2  1
      17           -78.499367373229660              0.6053040612D-04
   current occupation vector 
     5  1  2  1
     5  1  2  1
      18           -78.499367373298369              0.7791274551D-05
   current occupation vector 
     5  1  2  1
     5  1  2  1
      19           -78.499367373299407              0.1333672204D-05
   current occupation vector 
     5  1  2  1
     5  1  2  1
      20           -78.499367373299904              0.2994176735D-06
   current occupation vector 
     5  1  2  1
     5  1  2  1

  SCF has converged.

 Density matrix saved to file den.dat
 total electron number:   18.0000000000000     
     E(SCF)=       -78.499367373299734              0.6678697634D-07


  Final occupancies:

     Alpha population by irrep:   5    1    2    1
      Beta population by irrep:   5    1    2    1


  Eigenvector printing suppressed.

 @PUTMOS-I, Writing converged MOs to NEWMOS. 
 @PUTMOS-I, Symmetry   1 Full Blocks  5 Partial Blocksize   0
 @PUTMOS-I, Symmetry   2 Full Blocks  2 Partial Blocksize   3
 @PUTMOS-I, Symmetry   3 Full Blocks  4 Partial Blocksize   1
 @PUTMOS-I, Symmetry   4 Full Blocks  2 Partial Blocksize   1
 @PUTFOCK-I, Writing converged Fock matrix to NEWFOCK. 
 @PUTFOCK-I, Symmetry   1 Full Blocks  5 Partial Blocksize   0
 @PUTFOCK-I, Symmetry   2 Full Blocks  2 Partial Blocksize   3
 @PUTFOCK-I, Symmetry   3 Full Blocks  4 Partial Blocksize   1
 @PUTFOCK-I, Symmetry   4 Full Blocks  2 Partial Blocksize   1


 
  ORBITAL EIGENVALUES (ALPHA)  (1H = 27.2113834 eV)

       MO #        E(hartree)               E(eV)           FULLSYM    COMPSYM
       ----   --------------------   --------------------   -------   ---------
    1     1         -11.0721171222        -301.2876240615      A1        A1 (1)
    2    32         -11.0704044905        -301.2410209836      B2        B2 (3)
    3     2          -0.8758444181         -23.8329382608      A1        A1 (1)
    4    33          -0.6208276468         -16.8935791222      B2        B2 (3)
    5    21          -0.4978872075         -13.5481996942      B1        B1 (2)
    6     3          -0.4047178218         -11.0129318171      A1        A1 (1)
    7    49          -0.3556175412          -9.6768452576      A2        A2 (4)
    8     4          -0.2164935760          -5.8910896992      A1        A1 (1)
    9     5          -0.0274399260          -0.7466783468      A1        A1 (1)
  +++++++++++++++++++++++++++++++++++++++++++++++++++++++++++++++++++++++++++++
   10     6           0.2826359727           7.6909158158      A1        A1 (1)
   11    34           0.3312738019           9.0144184337      B2        B2 (3)
   12     7           0.3600973593           9.7987473063      A1        A1 (1)
   13    22           0.3686885523          10.0325255507      B1        B1 (2)
   14    35           0.3852614231          10.4834962945      B2        B2 (3)
   15    50           0.4400305584          11.9738402312      A2        A2 (4)
   16    23           0.5631544130          15.3242106467      B1        B1 (2)
   17    36           0.5749139096          15.6442028165      B2        B2 (3)
   18    37           0.6026445258          16.3987912460      B2        B2 (3)
   19     8           0.6103618643          16.6087907012      A1        A1 (1)
   20     9           0.7201586111          19.5965120764      A1        A1 (1)
   21    24           0.8234940474          22.4084122511      B1        B1 (2)
   22    10           0.8443822502          22.9768091471      A1        A1 (1)
   23    38           0.9502152222          25.8566707226      B2        B2 (3)
   24    11           1.0040404179          27.3213287599      A1        A1 (1)
   25    39           1.0149341806          27.6177631146      B2        B2 (3)
   26    25           1.0208098723          27.7776488132      B1        B1 (2)
   27    51           1.0924205309          29.7262738994      A2        A2 (4)
   28    12           1.0989757445          29.9046503315      A1        A1 (1)
   29    40           1.1233433095          30.5677254847      B2        B2 (3)
   30    26           1.2863262892          35.0027178328      B1        B1 (2)
   31    13           1.3255950334          36.0712746866      A1        A1 (1)
   32    41           1.4197892800          38.6344304450      B2        B2 (3)
   33    52           1.4460689519          39.3495366743      A2        A2 (4)
   34    14           1.4932417455          40.6331736463      A1        A1 (1)
   35    53           1.5032025856          40.9042218835      A2        A2 (4)
   36    15           1.7573517834          47.8199731476      A1        A1 (1)
   37    54           1.7698966404          48.1613360609      A2        A2 (4)
   38    27           1.8569177056          50.5292996282      B1        B1 (2)
   39    42           2.0052154088          54.5646852895      B2        B2 (3)
   40    43           2.0358043653          55.3970531107      B2        B2 (3)
   41    16           2.0786441837          56.5627838342      A1        A1 (1)
   42    17           2.1298118212          57.9551260354      A1        A1 (1)
   43    28           2.1404102341          58.2435235140      B1        B1 (2)
   44    29           2.1678059885          58.9889998896      B1        B1 (2)
   45    44           2.1737048686          59.1495165786      B2        B2 (3)
   46    30           2.1789312975          59.2917349383      B1        B1 (2)
   47    18           2.2375852297          60.8877895746      A1        A1 (1)
   48    45           2.3312854139          63.4375012116      B2        B2 (3)
   49    46           2.4317012003          66.1699536758      B2        B2 (3)
   50    55           2.5754100422          70.0804700710      A2        A2 (4)
   51    19           2.5813140119          70.2411252534      A1        A1 (1)
   52    56           2.6449622484          71.9730818204      A2        A2 (4)
   53    47           2.6919487724          73.2516501376      B2        B2 (3)
   54    31           2.9467573243          80.1853433391      B1        B1 (2)
   55    20           2.9502139180          80.2794020346      A1        A1 (1)
   56    48           3.3974437678          92.4491449463      B2        B2 (3)
   57    57           3.4976967432          95.1771670952      A2        A2 (4)


  VSCF finished.

 @CHECKOUT-I, Total execution time (CPU/WALL):        0.26/       0.10 seconds.
--executable xvscf finished with status     0 in        0.12 seconds (walltime).
 --invoking executable--
/home/tsommerfeld/zscale/bin/xvtran
 @GETMEM-I,  Allocated   85830 MB of main memory.
  Full RHF integral transformation
  Transformation of IIII integrals :
  1 pass through the AO integral file was required.
       29572 AO integrals were read.
       37182 MO integrals were written to HF2.
  Transformation of IIJJ integrals :
  1 pass through the AO integral file was required.
       58089 AO integrals were read.
       75393 MO integrals were written to HF2.
  Transformation of IJIJ integrals :
  1 pass through the AO integral file was required.
      102291 AO integrals were read.
      132879 MO integrals were written to HF2.
  Transformation of IJKL integrals :
  1 pass through the AO integral file was required.
       75480 AO integrals were read.
      100980 MO integrals were written to HF2.
  Summary of active molecular orbitals: 
------------------------------------------------------------------------
 
  Index      Eigenvalue    Symmetry    Index      Eigenvalue    Symmetry
------------------------------------------------------------------------
     1       -11.0721171        1        30         1.8569177        2
     2        -0.8758444        1        31         2.1404102        2
     3        -0.4047178        1        32         2.1678060        2
     4        -0.2164936        1        33         2.1789313        2
     5        -0.0274399        1        34         2.9467573        2
     6        -0.4978872        2        35         0.3312738        3
     7       -11.0704045        3        36         0.3852614        3
     8        -0.6208276        3        37         0.5749139        3
     9        -0.3556175        4        38         0.6026445        3
    10         0.2826360        1        39         0.9502152        3
    11         0.3600974        1        40         1.0149342        3
    12         0.6103619        1        41         1.1233433        3
    13         0.7201586        1        42         1.4197893        3
    14         0.8443823        1        43         2.0052154        3
    15         1.0040404        1        44         2.0358044        3
    16         1.0989757        1        45         2.1737049        3
    17         1.3255950        1        46         2.3312854        3
    18         1.4932417        1        47         2.4317012        3
    19         1.7573518        1        48         2.6919488        3
    20         2.0786442        1        49         3.3974438        3
    21         2.1298118        1        50         0.4400306        4
    22         2.2375852        1        51         1.0924205        4
    23         2.5813140        1        52         1.4460690        4
    24         2.9502139        1        53         1.5032026        4
    25         0.3686886        2        54         1.7698966        4
    26         0.5631544        2        55         2.5754100        4
    27         0.8234940        2        56         2.6449622        4
    28         1.0208099        2        57         3.4976967        4
    29         1.2863263        2
------------------------------------------------------------------------
  -11.0721171221873      -0.875844418141611      -0.404717821775359     
 -0.216493575965372      -2.743992599826092E-002 -0.497887207536353     
  -11.0704044904833      -0.620827646794330      -0.355617541209655     
  0.282635972701149       0.360097359338487       0.610361864263826     
  0.720158611135991       0.844382250227947        1.00404041787377     
   1.09897574452156        1.32559503338582        1.49324174552357     
   1.75735178343013        2.07864418367705        2.12981182115912     
   2.23758522966399        2.58131401189318        2.95021391799695     
  0.368688552257999       0.563154413043660       0.823494047387598     
   1.02080987228283        1.28632628919379        1.85691770555908     
   2.14041023412127        2.16780598848883        2.17893129749058     
   2.94675732432998       0.331273801892606       0.385261423148512     
  0.574913909613193       0.602644525820359       0.950215222154600     
   1.01493418062022        1.12334330950385        1.41978927999052     
   2.00521540883770        2.03580436526637        2.17370486862319     
   2.33128541386695        2.43170120030811        2.69194877235109     
   3.39744376782720       0.440030558359789        1.09242053086679     
   1.44606895194853        1.50320258555886        1.76989664042326     
   2.57541004221633        2.64496224842292        3.49769674316624     
 @CHECKOUT-I, Total execution time (CPU/WALL):        0.54/       0.09 seconds.
--executable xvtran finished with status     0 in        0.11 seconds (walltime).
 --invoking executable--
/home/tsommerfeld/zscale/bin/xintprc
 @GETMEM-I,  Allocated   85830 MB of main memory.
  Processing integrals for CCSD calculation.
  @GMOIAA-I, Processing MO integrals for spin case AA.
  @GMOIAA-I, Generation of integral list completed.
                      TYPE                NUMBER
                      ----               --------
                      PPPP                174781
                      PPPH                128448
                      PPHH                 24003
                      PHPH                 13755
                      PHHH                  5115
                      HHHH                   332

                     TOTAL                346434

  @FORMT2-I, Second-order MP correlation energies:
            ------------------------------------------------
            E(SCF)                  =    -78.499367373300 a.u.
            E2(AA)                  =     -0.032222021425 a.u.
            E2(AB)                  =     -0.247595358610 a.u.
            E2(TOT)                 =     -0.312039401459 a.u.
            Total MP2 energy        =    -78.811406774759 a.u.
            ------------------------------------------------
   Largest T2 amplitudes for spin case AB:
       _       _                 _       _                 _       _
   i   j   a   b             i   j   a   b             i   j   a   b
-----------------------------------------------------------------------------
[  5   5  10  10]-0.08839 [  4   4  35  35]-0.08725 [  5   5  26  26]-0.04195
[  5   5  12  12]-0.03155 [  5   5  37  37]-0.02720 [  3   4  41  35] 0.02646
[  4   3  35  41] 0.02646 [  4   4  14  14]-0.02608 [  5   5  15  10] 0.02453
[  5   5  10  15] 0.02453 [  3   3  41  41]-0.02291 [  5   5  16  10] 0.02278
[  5   5  10  16] 0.02278 [  4   4  35  40] 0.02228 [  4   4  40  35] 0.02228
-----------------------------------------------------------------------------
   Norm of T2AB vector (    47574 symmetry allowed elements):  0.3195787909.
-----------------------------------------------------------------------------
 @CHECKOUT-I, Total execution time (CPU/WALL):        0.41/       0.09 seconds.
--executable xintprc finished with status     0 in        0.11 seconds (walltime).
  calling xvcc 
 --invoking executable--
/home/tsommerfeld/zscale/bin/xvcc
 @GETMEM-I,  Allocated   85830 MB of main memory.
   CCSD energy will be calculated.
   The total correlation energy is -0.312039401459 a.u.
   The total correlation energy is -0.337326988126 a.u.
  Convergence information after     1 iterations: 
  Largest element of residual vector : -0.33876005E-01.
  Largest element of DIIS residual   : -0.33876005E-01.
   The total correlation energy is -0.347395147953 a.u.
  Convergence information after     2 iterations: 
  Largest element of residual vector : -0.16516634E-01.
  Largest element of DIIS residual   : -0.97787597E-02.
   The total correlation energy is -0.351452591646 a.u.
  Convergence information after     3 iterations: 
  Largest element of residual vector : -0.64021682E-02.
  Largest element of DIIS residual   : -0.45812544E-02.
   The total correlation energy is -0.352618628549 a.u.
  Convergence information after     4 iterations: 
  Largest element of residual vector : -0.28415186E-02.
  Largest element of DIIS residual   : -0.13734937E-02.
   The total correlation energy is -0.352817377350 a.u.
  Convergence information after     5 iterations: 
  Largest element of residual vector : -0.77641098E-03.
  Largest element of DIIS residual   : -0.37553719E-03.
   The total correlation energy is -0.352809127111 a.u.
  Convergence information after     6 iterations: 
  Largest element of residual vector : -0.20183311E-03.
  Largest element of DIIS residual   :  0.17507435E-03.
   The total correlation energy is -0.352795888917 a.u.
  Convergence information after     7 iterations: 
  Largest element of residual vector : -0.86566718E-04.
  Largest element of DIIS residual   :  0.35280728E-04.
   The total correlation energy is -0.352790112114 a.u.
  Convergence information after     8 iterations: 
  Largest element of residual vector :  0.29670520E-04.
  Largest element of DIIS residual   : -0.22136089E-04.
   The total correlation energy is -0.352789945837 a.u.
  Convergence information after     9 iterations: 
  Largest element of residual vector : -0.83523412E-05.
  Largest element of DIIS residual   : -0.74680155E-05.
   The total correlation energy is -0.352790337892 a.u.
  Convergence information after    10 iterations: 
  Largest element of residual vector : -0.45526795E-05.
  Largest element of DIIS residual   : -0.36886966E-05.
   The total correlation energy is -0.352790805661 a.u.
  Convergence information after    11 iterations: 
  Largest element of residual vector : -0.24408914E-05.
  Largest element of DIIS residual   : -0.16886113E-05.
   The total correlation energy is -0.352791122767 a.u.
  Convergence information after    12 iterations: 
  Largest element of residual vector : -0.11357235E-05.
  Largest element of DIIS residual   : -0.67066500E-06.
   The total correlation energy is -0.352791225344 a.u.
  Convergence information after    13 iterations: 
  Largest element of residual vector : -0.33529831E-06.
  Largest element of DIIS residual   : -0.28082924E-06.
   The total correlation energy is -0.352791233864 a.u.
  Convergence information after    14 iterations: 
  Largest element of residual vector : -0.19370377E-06.
  Largest element of DIIS residual   :  0.11651942E-06.
   The total correlation energy is -0.352791231661 a.u.
  Convergence information after    15 iterations: 
  Largest element of residual vector : -0.72081677E-07.
  Largest element of DIIS residual   :  0.47028254E-07.
  Amplitude equations converged in    15iterations.
   The total correlation energy is -0.352791228700 a.u.
   The CC iterations have converged.

   Largest T1 amplitudes for spin case AA:
   i       a                 i       a                 i       a    
-----------------------------------------------------------------------------
[  5      10    ]-0.02966 [  4      14    ]-0.01895 [  4      18    ] 0.01538
[  4      10    ] 0.00953 [  4      15    ] 0.00938 [  5      14    ]-0.00917
[  5      16    ]-0.00828 [  5      18    ] 0.00747 [  6      27    ]-0.00655
[  5      17    ] 0.00647 [  5      15    ]-0.00580 [  5      12    ] 0.00498
[  4      17    ]-0.00469 [  9      50    ]-0.00453 [  9      56    ] 0.00449
-----------------------------------------------------------------------------
   Norm of T1AA vector (      123 symmetry allowed elements):  0.0484146989.
-----------------------------------------------------------------------------
   Largest T2 amplitudes for spin case AB:
       _       _                 _       _                 _       _
   i   j   a   b             i   j   a   b             i   j   a   b
-----------------------------------------------------------------------------
[  5   5  10  10]-0.16431 [  4   4  35  35]-0.12711 [  5   5  26  26]-0.05868
[  5   5  15  10] 0.04644 [  5   5  10  15] 0.04644 [  5   5  16  10] 0.04313
[  5   5  10  16] 0.04313 [  5   5  12  12]-0.04207 [  5   5  37  37]-0.03707
[  5   4  35  35]-0.03187 [  4   5  35  35]-0.03187 [  4   4  40  35] 0.03112
[  4   4  35  40] 0.03112 [  5   5  38  37] 0.02571 [  5   5  37  38] 0.02571
-----------------------------------------------------------------------------
   Norm of T2AB vector (    47574 symmetry allowed elements):  0.4156098077.
-----------------------------------------------------------------------------
       Summary of iterative solution of CC equations 
      -----------------------------------------------------------
                       Correlation           Total
       Iteration         Energy              Energy
      -----------------------------------------------------------
            0        -0.312039401459     -78.811406774759  DIIS 
            1        -0.337326988126     -78.836694361426  DIIS 
            2        -0.347395147953     -78.846762521253  DIIS 
            3        -0.351452591646     -78.850819964945  DIIS 
            4        -0.352618628549     -78.851986001849  DIIS 
            5        -0.352817377350     -78.852184750650  DIIS 
            6        -0.352809127111     -78.852176500411  DIIS 
            7        -0.352795888917     -78.852163262217  DIIS 
            8        -0.352790112114     -78.852157485414  DIIS 
            9        -0.352789945837     -78.852157319136  DIIS 
           10        -0.352790337892     -78.852157711192  DIIS 
           11        -0.352790805661     -78.852158178960  DIIS 
           12        -0.352791122767     -78.852158496067  DIIS 
           13        -0.352791225344     -78.852158598643  DIIS 
           14        -0.352791233864     -78.852158607163  DIIS 
           15        -0.352791228700     -78.852158602000  DIIS 
      -----------------------------------------------------------
      A miracle has come to pass. The CC iterations have converged.
      The reference energy is       -78.49936737329973 a.u.
      The correlation energy is      -0.35279122870013 a.u.
      The total energy is           -78.85215860199986 a.u.
 @CHECKOUT-I, Total execution time (CPU/WALL):        5.38/       0.68 seconds.
--executable xvcc finished with status     0 in        0.70 seconds (walltime).
 --invoking executable--
/home/tsommerfeld/zscale/bin/xlambda
 @GETMEM-I,  Allocated   85830 MB of main memory.
 Hbar is calculated for a CCSD wave function.
 Calculation of Hbar completed.
 @CHECKOUT-I, Total execution time (CPU/WALL):        0.88/       0.12 seconds.
--executable xlambda finished with status     0 in        0.14 seconds (walltime).
 --invoking executable--
/home/tsommerfeld/zscale/bin/xvee
 @GETMEM-I,  Allocated   85830 MB of main memory.
  cc2 and ccprog  F                     0
  EOMEE-CCSD excitation energies will be evaluated.
  @SETMET-I, VPROP property integrals are used.
  @SETMET-I, A total of   3 target states will be studied.
  Summary of active alpha molecular orbitals:
------------------------------------------------------------------------------
Orbital      Sym   Eigenvalue  <xx>     <yy>     <zz>     <xy>     <xz>     <yz>
        SCF
  #  position
------------------------------------------------------------------------------
   1      1    1     -11.0721   0.000    0.000    0.000    0.000    0.000    0.000
   2      3    1      -0.8758   0.000    0.000    0.000    0.000    0.000    0.000
   3      6    1      -0.4047   0.000    0.000    0.000    0.000    0.000    0.000
   4      8    1      -0.2165   0.000    0.000    0.000    0.000    0.000    0.000
   5      9    1      -0.0274   0.000    0.000    0.000    0.000    0.000    0.000
   6      5    2      -0.4979   0.000    0.000    0.000    0.000    0.000    0.000
   7      2    3     -11.0704   0.000    0.000    0.000    0.000    0.000    0.000
   8      4    3      -0.6208   0.000    0.000    0.000    0.000    0.000    0.000
   9      7    4      -0.3556   0.000    0.000    0.000    0.000    0.000    0.000
  10     10    1       0.2826   0.000    0.000    0.000    0.000    0.000    0.000
  11     12    1       0.3601   0.000    0.000    0.000    0.000    0.000    0.000
  12     19    1       0.6104   0.000    0.000    0.000    0.000    0.000    0.000
  13     20    1       0.7202   0.000    0.000    0.000    0.000    0.000    0.000
  14     22    1       0.8444   0.000    0.000    0.000    0.000    0.000    0.000
  15     24    1       1.0040   0.000    0.000    0.000    0.000    0.000    0.000
  16     28    1       1.0990   0.000    0.000    0.000    0.000    0.000    0.000
  17     31    1       1.3256   0.000    0.000    0.000    0.000    0.000    0.000
  18     34    1       1.4932   0.000    0.000    0.000    0.000    0.000    0.000
  19     36    1       1.7574   0.000    0.000    0.000    0.000    0.000    0.000
  20     41    1       2.0786   0.000    0.000    0.000    0.000    0.000    0.000
  21     42    1       2.1298   0.000    0.000    0.000    0.000    0.000    0.000
  22     47    1       2.2376   0.000    0.000    0.000    0.000    0.000    0.000
  23     51    1       2.5813   0.000    0.000    0.000    0.000    0.000    0.000
  24     55    1       2.9502   0.000    0.000    0.000    0.000    0.000    0.000
  25     13    2       0.3687   0.000    0.000    0.000    0.000    0.000    0.000
  26     16    2       0.5632   0.000    0.000    0.000    0.000    0.000    0.000
  27     21    2       0.8235   0.000    0.000    0.000    0.000    0.000    0.000
  28     26    2       1.0208   0.000    0.000    0.000    0.000    0.000    0.000
  29     30    2       1.2863   0.000    0.000    0.000    0.000    0.000    0.000
  30     38    2       1.8569   0.000    0.000    0.000    0.000    0.000    0.000
  31     43    2       2.1404   0.000    0.000    0.000    0.000    0.000    0.000
  32     44    2       2.1678   0.000    0.000    0.000    0.000    0.000    0.000
  33     46    2       2.1789   0.000    0.000    0.000    0.000    0.000    0.000
  34     54    2       2.9468   0.000    0.000    0.000    0.000    0.000    0.000
  35     11    3       0.3313   0.000    0.000    0.000    0.000    0.000    0.000
  36     14    3       0.3853   0.000    0.000    0.000    0.000    0.000    0.000
  37     17    3       0.5749   0.000    0.000    0.000    0.000    0.000    0.000
  38     18    3       0.6026   0.000    0.000    0.000    0.000    0.000    0.000
  39     23    3       0.9502   0.000    0.000    0.000    0.000    0.000    0.000
  40     25    3       1.0149   0.000    0.000    0.000    0.000    0.000    0.000
  41     29    3       1.1233   0.000    0.000    0.000    0.000    0.000    0.000
  42     32    3       1.4198   0.000    0.000    0.000    0.000    0.000    0.000
  43     39    3       2.0052   0.000    0.000    0.000    0.000    0.000    0.000
  44     40    3       2.0358   0.000    0.000    0.000    0.000    0.000    0.000
  45     45    3       2.1737   0.000    0.000    0.000    0.000    0.000    0.000
  46     48    3       2.3313   0.000    0.000    0.000    0.000    0.000    0.000
  47     49    3       2.4317   0.000    0.000    0.000    0.000    0.000    0.000
  48     53    3       2.6919   0.000    0.000    0.000    0.000    0.000    0.000
  49     56    3       3.3974   0.000    0.000    0.000    0.000    0.000    0.000
  50     15    4       0.4400   0.000    0.000    0.000    0.000    0.000    0.000
  51     27    4       1.0924   0.000    0.000    0.000    0.000    0.000    0.000
  52     33    4       1.4461   0.000    0.000    0.000    0.000    0.000    0.000
  53     35    4       1.5032   0.000    0.000    0.000    0.000    0.000    0.000
  54     37    4       1.7699   0.000    0.000    0.000    0.000    0.000    0.000
  55     50    4       2.5754   0.000    0.000    0.000    0.000    0.000    0.000
  56     52    4       2.6450   0.000    0.000    0.000    0.000    0.000    0.000
  57     57    4       3.4977   0.000    0.000    0.000    0.000    0.000    0.000
------------------------------------------------------------------------------
  @DRVTDA-I, Roots obtained by Davidson method.
  calling tda davidson                       6                     2
  after tda davidson                      6                     6
                     3                     3
  kroot is                      3
__________________________________________________________________________
    Tamm-Dancoff (CIS) Excitation Energies and Transition Moments

                Excitation         Transition Dipole         Oscillator
 Root  Symmetry  Energy         x           y           z     Strength
__________________________________________________________________________
   1       2    0.23954      0.0000      0.0000      0.0000  .00000000D+00
__________________________________________________________________________
 
__________________________________________________________________________
  TDA excitation ergy:             0.239536038061 a.u.    6.5181 eV
  Total TDA electronic energy:   -78.259831335238 a.u.
 
  Dominant contributions: 
  SCF eigenvalue ordering used in list below. 
--------------------------------------------------------------------------------
    I    j    A    b
--------------------------------------------------------------------------------
    9    0   13    0  -0.9769427455 AA  
    8    0   13    0  -0.1927222598 AA  
    9    0   16    0   0.0455299918 AA  
    8    0   26    0  -0.0377776646 AA  
    8    0   21    0   0.0285015911 AA  
    7    0   11    0   0.0273742913 AA  
    9    0   21    0   0.0272434052 AA  
    9    0   26    0  -0.0268711732 AA  
    7    0   14    0   0.0202834266 AA  
    6    0   13    0   0.0202014999 AA  
    8    0   16    0  -0.0169102103 AA  
    5    0   12    0   0.0161651049 AA  
    7    0   17    0  -0.0097793887 AA  
    8    0   30    0  -0.0074517797 AA  
    4    0   15    0   0.0073288679 AA  
--------------------------------------------------------------------------------
   2       2    0.34031      0.0000      0.0000      0.0000  .00000000D+00
__________________________________________________________________________
 
__________________________________________________________________________
  TDA excitation ergy:             0.340310785768 a.u.    9.2603 eV
  Total TDA electronic energy:   -78.159056587531 a.u.
 
  Dominant contributions: 
  SCF eigenvalue ordering used in list below. 
--------------------------------------------------------------------------------
    I    j    A    b
--------------------------------------------------------------------------------
    8    0   13    0  -0.9466006930 AA  
    9    0   13    0   0.1916584885 AA  
    9    0   16    0  -0.1530621594 AA  
    7    0   11    0   0.1410416161 AA  
    8    0   26    0  -0.1013592028 AA  
    8    0   21    0   0.0993024920 AA  
    8    0   16    0  -0.0406666739 AA  
    9    0   21    0   0.0214870767 AA  
    9    0   26    0  -0.0213748627 AA  
    6    0   13    0  -0.0128011820 AA  
    7    0   23    0  -0.0122534423 AA  
    7    0   25    0  -0.0119327247 AA  
    7    0   18    0   0.0112505101 AA  
    7    0   14    0  -0.0097144705 AA  
    5    0   12    0  -0.0094932848 AA  
--------------------------------------------------------------------------------
   3       2    0.36479      0.0000      0.0000      0.0000  .00000000D+00
__________________________________________________________________________
 
__________________________________________________________________________
  TDA excitation ergy:             0.364786831299 a.u.    9.9264 eV
  Total TDA electronic energy:   -78.134580542001 a.u.
 
  Dominant contributions: 
  SCF eigenvalue ordering used in list below. 
--------------------------------------------------------------------------------
    I    j    A    b
--------------------------------------------------------------------------------
    7    0   11    0  -0.8703263857 AA  
    9    0   16    0  -0.4685204426 AA  
    7    0   25    0   0.0638243323 AA  
    7    0   17    0   0.0635357816 AA  
    8    0   13    0  -0.0634477977 AA  
    7    0   23    0   0.0478016579 AA  
    7    0   14    0  -0.0425011553 AA  
    9    0   13    0  -0.0365442355 AA  
    7    0   18    0  -0.0349778820 AA  
    5    0   34    0  -0.0337730520 AA  
    8    0   16    0   0.0243376708 AA  
    5    0   10    0  -0.0229338537 AA  
    5    0   12    0  -0.0202698630 AA  
    5    0   22    0   0.0193215079 AA  
    5    0   31    0   0.0153727902 AA  
--------------------------------------------------------------------------------
__________________________________________________________________________
  @DOEOMEE-I, Excitation energies computed by the EOMEE-CCSD/CCSD-LR method.
  @DOEOMEE-I, right-hand eigenvectors will be computed.
  Beginning symmetry block   2.   3 roots requested.
  @DOEOMEE-I, Matrix dimension for diagonalization:    45852
  Creating initial guess for root
________________________________________________________________________
            Subspace          Eigenvalue           
 Iteration  Dimension   (a.u.)         (eV)       Overlap      Residual
________________________________________________________________________
  @NEWGES-I, Using TDA initial guess.
  1   1  0.2991264490D+00  0.8139644489D+01  0.0000000000D+00  0.1697238159D+01
  2   2  0.2340491832D+00  0.6368802058D+01  0.9411818082D+00  0.3234655364D+00
  3   3  0.2136166393D+00  0.5812804273D+01  0.9748718577D+00  0.5507244898D-01
  4   4  0.2097221249D+00  0.5706829147D+01  0.9968569233D+00  0.3724677341D-01
  5   5  0.2090533438D+00  0.5688630689D+01  0.9988195480D+00  0.9023392519D-02
  6   6  0.2089688570D+00  0.5686331687D+01  0.9999105282D+00  0.3007096046D-02
  L-O-C-K-I-N-G O-N R-O-O-T 
  7   7  0.2089760734D+00  0.5686528054D+01  0.9999932894D+00  0.8516993427D-03
  8   8  0.2089693085D+00  0.5686343971D+01  0.9999994113D+00  0.6516497032D-03
  9   9  0.2089687973D+00  0.5686330062D+01  0.9999996591D+00  0.1787443081D-03
 10  10  0.2089692684D+00  0.5686342881D+01  0.9999999687D+00  0.1121530712D-03
 11  11  0.2089690224D+00  0.5686336186D+01  0.9999999906D+00  0.2765793725D-04
 12  12  0.2089691496D+00  0.5686339650D+01  0.9999999995D+00  0.1052524565D-04
 13  13  0.2089691616D+00  0.5686339975D+01  0.9999999999D+00  0.2956671849D-05
  Converged eigenvalue:   0.208969161589800       a.u.
   Total EOMEE-CCSD electronic energy      -78.643189440410055 a.u.
  Converged eigenvector 
  SCF eigenvalue ordering used in list below. 
--------------------------------------------------------------------------------
    I    j    A    b
--------------------------------------------------------------------------------
    9    0   13    0   0.6537461235 AA  
    9    9   13   10   0.2123467275 ABAB
    9    9   10   13   0.2123467275 ABAB
    9    9   13   24  -0.0548880830 ABAB
    9    9   24   13  -0.0548880830 ABAB
    9    9   13   28  -0.0527153177 ABAB
    9    9   28   13  -0.0527153177 ABAB
    9    9   13   19  -0.0390481897 ABAB
    9    9   19   13  -0.0390481897 ABAB
    8    0   13    0   0.0359787201 AA  
    9    0   26    0   0.0327464782 AA  
    9    8   15   11  -0.0323068541 ABAB
    8    9   11   15  -0.0323068541 ABAB
    9    9   13   31   0.0289441324 ABAB
    9    9   31   13   0.0289441324 ABAB
--------------------------------------------------------------------------------
  Converged eigenvector, normalized to one 
  SCF eigenvalue ordering used in list below. 
--------------------------------------------------------------------------------
    I    j    A    b
--------------------------------------------------------------------------------
    9    0   13    0   0.6537461235 AA  
    9    9   13   10   0.2123467275 ABAB
    9    9   10   13   0.2123467275 ABAB
    9    9   13   24  -0.0548880830 ABAB
    9    9   24   13  -0.0548880830 ABAB
    9    9   13   28  -0.0527153177 ABAB
    9    9   28   13  -0.0527153177 ABAB
    9    9   13   19  -0.0390481897 ABAB
    9    9   19   13  -0.0390481897 ABAB
    8    0   13    0   0.0359787201 AA  
    9    0   26    0   0.0327464782 AA  
    9    8   15   11  -0.0323068541 ABAB
    8    9   11   15  -0.0323068541 ABAB
    9    9   13   31   0.0289441324 ABAB
    9    9   31   13   0.0289441324 ABAB
--------------------------------------------------------------------------------

  Eigenvector is saved on CCRE_2_1  

  Adding new vector to expansion space.
  Guess for next eigenvalue   0.340310785768395     
 14  14  0.3424383748D+00  0.9318221908D+01  0.7012114565D+00  0.2376118083D+00
 15  15  0.3382285392D+00  0.9203666456D+01  0.9898952109D+00  0.9530265973D-01
 16  16  0.3373918262D+00  0.9180898340D+01  0.9986904414D+00  0.1418578539D-01
 17  17  0.3372607763D+00  0.9177332289D+01  0.9998703776D+00  0.4993403164D-02
  L-O-C-K-I-N-G O-N R-O-O-T 
 18  18  0.3372524375D+00  0.9177105378D+01  0.9999714878D+00  0.1802317073D-02
 19  19  0.3372493793D+00  0.9177022162D+01  0.9999940109D+00  0.7028982375D-03
 20  20  0.3372495029D+00  0.9177025525D+01  0.9999989784D+00  0.2540006093D-03
 21  21  0.3372499812D+00  0.9177038540D+01  0.9999999177D+00  0.1006829443D-03
 22  22  0.3372500250D+00  0.9177039732D+01  0.9999999895D+00  0.3464476047D-04
 23  23  0.3372499543D+00  0.9177037809D+01  0.9999999982D+00  0.1281847403D-04
 24  24  0.3372499635D+00  0.9177038059D+01  0.9999999997D+00  0.4737354199D-05
  Converged eigenvalue:   0.337249963538542       a.u.
   Total EOMEE-CCSD electronic energy      -78.514908638461321 a.u.
  Converged eigenvector 
  SCF eigenvalue ordering used in list below. 
--------------------------------------------------------------------------------
    I    j    A    b
--------------------------------------------------------------------------------
    8    0   13    0  -0.5538421322 AA  
    7    0   11    0   0.3817662053 AA  
    9    9   13   10   0.0697118625 ABAB
    9    9   10   13   0.0697118625 ABAB
    8    0   26    0  -0.0603326182 AA  
    8    0   21    0   0.0556234616 AA  
    5    8   11   11   0.0531148261 ABAB
    8    5   11   11   0.0531148261 ABAB
    8    8   15   11   0.0424256804 ABAB
    8    8   11   15   0.0424256804 ABAB
    7    0   25    0  -0.0354887201 AA  
    8    0   16    0  -0.0299820375 AA  
    5    8   13   13  -0.0296126768 ABAB
    8    5   13   13  -0.0296126768 ABAB
    7    0   23    0  -0.0282061417 AA  
--------------------------------------------------------------------------------
  Converged eigenvector, normalized to one 
  SCF eigenvalue ordering used in list below. 
--------------------------------------------------------------------------------
    I    j    A    b
--------------------------------------------------------------------------------
    8    0   13    0  -0.5538421322 AA  
    7    0   11    0   0.3817662053 AA  
    9    9   13   10   0.0697118625 ABAB
    9    9   10   13   0.0697118625 ABAB
    8    0   26    0  -0.0603326182 AA  
    8    0   21    0   0.0556234616 AA  
    5    8   11   11   0.0531148261 ABAB
    8    5   11   11   0.0531148261 ABAB
    8    8   15   11   0.0424256804 ABAB
    8    8   11   15   0.0424256804 ABAB
    7    0   25    0  -0.0354887201 AA  
    8    0   16    0  -0.0299820375 AA  
    5    8   13   13  -0.0296126768 ABAB
    8    5   13   13  -0.0296126768 ABAB
    7    0   23    0  -0.0282061417 AA  
--------------------------------------------------------------------------------

  Eigenvector is saved on CCRE_2_2  

  Adding new vector to expansion space.
  Guess for next eigenvalue   0.364786831298932     
 25  25  0.3518425655D+00  0.9574122947D+01  0.5868604052D+00  0.5624738226D-01
 26  26  0.3498891468D+00  0.9520967720D+01  0.9984663826D+00  0.1734554085D-01
 27  27  0.3496439230D+00  0.9514294842D+01  0.9998334630D+00  0.7135657551D-02
  L-O-C-K-I-N-G O-N R-O-O-T 
 28  28  0.3496231148D+00  0.9513728624D+01  0.9999789089D+00  0.2104634389D-02
 29  29  0.3496216786D+00  0.9513689542D+01  0.9999967196D+00  0.1446741471D-02
 30  30  0.3496213253D+00  0.9513679926D+01  0.9999984099D+00  0.4178933289D-03
 31  31  0.3496209022D+00  0.9513668415D+01  0.9999997268D+00  0.1476614477D-03
 32  32  0.3496211083D+00  0.9513674024D+01  0.9999999752D+00  0.4435560601D-04
 33  33  0.3496210954D+00  0.9513673671D+01  0.9999999981D+00  0.1298289727D-04
 34  34  0.3496210779D+00  0.9513673195D+01  0.9999999998D+00  0.4469215129D-05
  Converged eigenvalue:   0.349621077898618       a.u.
   Total EOMEE-CCSD electronic energy      -78.502537524101243 a.u.
  Converged eigenvector 
  SCF eigenvalue ordering used in list below. 
--------------------------------------------------------------------------------
    I    j    A    b
--------------------------------------------------------------------------------
    7    0   11    0   0.5524809254 AA  
    8    0   13    0   0.3798872627 AA  
    9    0   16    0   0.0917196997 AA  
    5    8   11   11   0.0713884920 ABAB
    8    5   11   11   0.0713884920 ABAB
    7    0   25    0  -0.0471278725 AA  
    9    9   13   10  -0.0419478545 ABAB
    9    9   10   13  -0.0419478545 ABAB
    8    0   26    0   0.0404423843 AA  
    7    0   17    0  -0.0367993940 AA  
    7    0   23    0  -0.0365742110 AA  
    9    9   16   10   0.0287842015 ABAB
    9    9   10   16   0.0287842015 ABAB
    7    5   21   11   0.0246383455 ABAB
    5    7   11   21   0.0246383455 ABAB
--------------------------------------------------------------------------------
  Converged eigenvector, normalized to one 
  SCF eigenvalue ordering used in list below. 
--------------------------------------------------------------------------------
    I    j    A    b
--------------------------------------------------------------------------------
    7    0   11    0   0.5524809254 AA  
    8    0   13    0   0.3798872627 AA  
    9    0   16    0   0.0917196997 AA  
    5    8   11   11   0.0713884920 ABAB
    8    5   11   11   0.0713884920 ABAB
    7    0   25    0  -0.0471278725 AA  
    9    9   13   10  -0.0419478545 ABAB
    9    9   10   13  -0.0419478545 ABAB
    8    0   26    0   0.0404423843 AA  
    7    0   17    0  -0.0367993940 AA  
    7    0   23    0  -0.0365742110 AA  
    9    9   16   10   0.0287842015 ABAB
    9    9   10   16   0.0287842015 ABAB
    7    5   21   11   0.0246383455 ABAB
    5    7   11   21   0.0246383455 ABAB
--------------------------------------------------------------------------------

  Eigenvector is saved on CCRE_2_3  

  Solution of   3 roots required   34 iterations.
 @CHECKOUT-I, Total execution time (CPU/WALL):       19.67/       2.47 seconds.
--executable xvee finished with status     0 in        2.49 seconds (walltime).
  The final electronic energy is       -78.502537524101243 a.u. 
  This computation required                            4.14 seconds (walltime).
