CFour on node02
 --invoking executable--
/home/tsommerfeld/zscale/bin/xjoda


   *************************************************************************
         <<<     CCCCCC     CCCCCC   |||     CCCCCC     CCCCCC   >>>
       <<<      CCC        CCC       |||    CCC        CCC         >>>
      <<<      CCC        CCC        |||   CCC        CCC            >>>
    <<<        CCC        CCC        |||   CCC        CCC              >>>
      <<<      CCC        CCC        |||   CCC        CCC            >>>
       <<<      CCC        CCC       |||    CCC        CCC         >>>
         <<<     CCCCCC     CCCCCC   |||     CCCCCC     CCCCCC   >>>
   *************************************************************************

     ****************************************************************
     * CFOUR Coupled-Cluster techniques for Computational Chemistry *
     ****************************************************************
 

   Department of Chemistry                Institut fuer Physikalische Chemie
   University of Florida                  Universitaet Mainz
   Gainesville, FL 32611, USA             D-55099 Mainz, Germany

   Department of Chemistry                Department of Chemistry
   Johns Hopkins University               Southern Methodist University
   Baltimore, MD 21218, USA               Dallas, TX 75275, USA

   Institute of Nanotechnology            Department of Physical Chemistry
   Karlsruhe Inst. of Technology          Eotvos Lorand University
   D-76021 Karlsruhe, Germany             H-1053 Budapest, Hungary

 
                       Version 2.1
 
                     node02                                            
                     Tue Mar 29 16:01:54 CST 2022                      
                     integer*8 version is running
 
********************************************************************************
*                          Input from ZMAT file                                *
********************************************************************************
h_ethylene                                                                      
C       0.000000      0.0   -0.664500                                           
C       0.000000      0.0    0.664500                                           
H       0.962348      0.0   -1.159080                                           
H       0.962348      0.0    1.159080                                           
H      -0.962348      0.0   -1.159080                                           
H      -0.962348      0.0    1.159080                                           
H      0.000000      0.6363636363636364      0.000000                           
                                                                                
*CFOUR(CALC=CCSD                                                                
EXCITE=EOMEE                                                                    
ESTATE_SYM=0/3/0/0                                                              
CC_PROG=VCC                                                                     
CHARGE=-1                                                                       
COORDINATES=CARTESIAN                                                           
BASIS=SPECIAL                                                                   
REFERENCE=RHF                                                                   
MEM_SIZE=90,MEM_UNIT=GB)                                                        
                                                                                
C:CC-PVDZ                                                                       
C:CC-PVDZ                                                                       
H:CC-PVDZ                                                                       
H:CC-PVDZ                                                                       
H:CC-PVDZ                                                                       
H:CC-PVDZ                                                                       
H:AUG-CC-PVDZ                                                                   
                                                                                
********************************************************************************
    -------------------------------------------------------------------
                    CFOUR Control Parameters 
    -------------------------------------------------------------------
        External           Internal           Value            Units
          Name               Name
    -------------------------------------------------------------------
       ABCDTYPE             IABCDT         STANDARD    [  0]    ***   
       ANHARMONIC           IANHAR         OFF         [  0]    ***   
       ANH_ALGORIT          IANALG         STANDARD    [  0]    ***   
       ANH_DERIVAT          IANDER         SECOND      [  1]    ***   
       ANH_MODE             ANHMOD         VIBRATION   [  0]    ***   
       ANH_STEPSIZ          ICUBST             50000          x 10-6  
       ANH_SYMMETR          IANHSM         ABELIAN     [  0]    ***   
       AO_LADDERS           IAOLAD         SINGLEPASS  [  1]    ***   
       AV_SCF               IAVSCF         OFF         [  0]    ***   
       BASIS                IBASIS         SPECIAL     [  0]    ***   
       BOTHVECTORS          BOTHVC         OFF         [  0]    ***   
       BOX_POTENT           IPIAB          OFF         [  0]    ***   
       BREIT                IBREIT         OFF         [  0]    ***   
       BRUCK_CONV           IBRTOL          10D-  4             ***   
       BRUECKNER            IBRKNR         OFF         [  0]    ***   
       BUFFERSIZE           IBUFFS              4096            ***   
       CACHE_RECS           ICHREC             10               ***   
       CALCLEVEL            ICLLVL         CCSD        [ 10]    ***   
       CCORBOPT             ICCORB         OFF         [  0]  x 0.01  
       CC_CONV              ICCCNV          10D-  7             ***   
       CC_EXPORDER          ICCEOR              5               ***   
       CC_EXTRAPOL          ICCEXT         DIIS        [  1]    ***   
       CC_GUESS             ICCGES         MP2         [  0]    ***   
       CC_MAXCYC            ICCCYC            100              cycles 
       CC_PROGRAM           ICCPRO         VCC         [  0]    ***   
       CHARGE               ICHRGE             -1               ***   
       CHOLESKY             ICHOLE         OFF         [  0]    ***   
       CIS_CONV             ICISTL              5               ***   
       COMM_SIZE            IPSIZE            ***               ***   
       CONSTANT             ICONST         OLD         [  1]    ***   
       CONTINUUM            ICONTU         NONE        [  0]    ***   
       CONTRACTION          ICNTYP         GENERAL     [  1]    ***   
       COORDINATES          ICOORD         CARTESIAN   [  1]    ***   
       CPHF_CONVER          ICPHFT          10D- 16             ***   
       CPHF_MAXCYC          ICPHFC             64              cycles 
       CUBIC                ICUBIC         OFF         [  0]    ***   
       CURVILINEAR          ICURVY         OFF         [  0]    ***   
       DBOC                 IDBOC          OFF         [  0]    ***   
       DCT                  IDCT           OFF         [  0]    ***   
       DERIV_LEV            IDRLVL         ZERO        [  0]    ***   
       DEVMEM_SIZE          IDVMEM         *********           MByte  
       DIAG_MRCC            IEOMST          10D-  0             ***   
       DIFF_TYPE            IDIFTY         RELAXED     [  0]    ***   
       DIRECT               IDIRCT         OFF         [  0]    ***   
       DROPMO               IDRPMO      NONE         
       ECP                  IECP           OFF         [  0]    ***   
       EIGENVECTOR          IVEC                1               ***   
       EL_ANHARM            IELANH         OFF         [  0]    ***   
       EOMFOLLOW            IEOMSR         ENERGY      [  0]    ***   
       EOMIP                IEOMIP         OFF         [  0]    ***   
       EOMLEVEL             HBARFM         SAME        [  0]    ***   
       EOM_MRCC             IMRCCE         NEW         [  1]    ***   
       EOM_NONIT            EOMNON         OFF         [  0]    ***   
       EOM_NSING            IEOMSI          10D-  0             ***   
       EOM_NSTATES          IMRCCD         DAVIDSON    [  0]    ***   
       EOM_NTRIP            IEOMTR          10D-  0             ***   
       EOM_ORDER            IEXORD         ENERGY      [  0]    ***   
       EOM_PROPSTA          IEOMST              0               ***   
       ESTATE_CONV          IEXTOL          10D-  5             ***   
       ESTATE_DIAG          IEXDIG         ITERATIVE   [  0]    ***   
       ESTATE_LOCK          IESLOC         ON          [  1]    ***   
       ESTATE_MAXC          IEXMXC             40               ***   
       ESTATE_PROP          IEXPRP         OFF         [  0]    ***   
       ESTATE_SYM           IEXSYM   0,  3,  0,  0,
       EVAL_HESS            IRECAL              0            # of cyc.
       EXCITATION           IEXCIT              0               ***   
       EXCITE               IEXCIT         EOMEE       [  3]    ***   
       EXTERN_POT           IEXPOT         OFF         [  0]    ***   
       FCGRADNEW            IFCGNW         OFF         [  0]    ***   
       FC_FIELD             IFINFC              0             x 10-6  
       FD_CALTYPE           IFDCAL         GRADONLY    [  0]    ***   
       FD_PROJECT           IFDPRJ         OFF         [  1]    ***   
       FD_STEPSIZE          IDISFD              0            10-4 bohr
       FD_USEGROUP          IFDGRP         FULL        [  0]    ***   
       FILE_RECSIZ          IFLREC              4096           words  
       FINITE_PERT          IFIPER              0             x 10-6  
       FIXGEOM              IFIXGM         OFF         [  0]    ***   
       FOCK                 IFOCK          AO          [  1]    ***   
       FREQ_ALGORI          IVIALG         STANDARD    [  0]    ***   
       FROZEN_CORE          IFROCO         OFF         [  0]    ***   
       GAMMA_ABCD           IGABCD         STORE       [  0]    ***   
       GAMMA_ABCI           IGABCI         STORE       [  0]    ***   
       GENBAS_1             IGNBS1              0               ***   
       GENBAS_2             IGNBS2              0               ***   
       GENBAS_3             IGNBS3              0               ***   
       GENBAS_4             IGNBS4              0               ***   
       GEO_CONV             ICONTL              5              H/bohr 
       GEO_MAXCYC           IOPTCY             50               ***   
       GEO_MAXSTEP          IMXSTP            300            millibohr
       GEO_METHOD           INR            SINGLE_POINT[  5]    ***   
       GIAO                 IGIAO          OFF         [  1]    ***   
       GIMIC                IGIMIC         OFF         [  0]    ***   
       GRID                 IGRID          OFF         [  0]    ***   
       GRID_ALGO            IGALGO         SERIAL      [  0]    ***   
       GUESS                IGUESS         MOREAD      [  0]    ***   
       HBAR                 IHBAR          ON          [  1]    ***   
       HESS_TYPE            IHESTP         SCF         [  0]    ***   
       HF2_FILE             IHF2Fl         USE         [  1]    ***   
       HFSTABILITY          ISTABL         OFF         [  0]    ***   
       INCORE               INCORE         OFF         [  0]    ***   
       INPUT_MRCC           IMRCC          ON          [  1]    ***   
       INTEGRALS            INTTYP         VMOL        [  1]    ***   
       JODA_PRINT           IJPRNT              0               ***   
       KEYWORD_OUT          IDMPKW         NO          [  0]    ***   
       LINDEP_TOL           ILINDP              8               ***   
       LINEQ_CONV           IZTACN          10D-  7           cycles  
       LINEQ_EXPOR          ILMAXD              5               ***   
       LINEQ_MAXCY          ILMAXC            100               ***   
       LINEQ_TYPE           ILTYPE         DIIS        [  1]    ***   
       LOCK_ORBOCC          ILOCOC         OFF         [  0]    ***   
       MEMORY_SIZE          IMEMSZ         *********           words  
       MEM_UNIT             IMEMU          GB          [  3]    ***   
       MRCC                 IMRCCC         OFF         [  0]    ***   
       MULTIPLICTY          IMULTP              1               ***   
       NACOUPLING           IVCOUP         OFF         [  0]    ***   
       NEGEVAL              IDIE           ABORT       [  0]    ***   
       NEWNORM              INEWNO         OFF         [  0]    ***   
       NON-HF               INONHF         OFF         [  0]    ***   
       NTOP_TAMP            ITOPT2             15               ***   
       NUC_MODEL            INUCMO         POINT       [  0]    ***   
       OCCUPATION           IOCCU   ESTIMATED BY SCF 
       OPEN-SHELL           IOPEN          SPIN-ORBITAL[  0]    ***   
       OPTVIB               IOPTVB         OFF         [  0]    ***   
       ORBITALS             IORBTP         STANDARD    [  0]    ***   
       PARALLEL             IPARAL         ON          [  1]    ***   
       PARA_INT             IPINTS         ON          [  1]    ***   
       PARA_PRINT           IPPRIN              0               ***   
       PERT_ORB             IPTORB         STANDARD    [  0]    ***   
       POINTS               IGRDFD              0               ***   
       PRINT                IPRNT               0               ***   
       PROPS                IPROPS         OFF         [  0]    ***   
       PROP_INTEGR          IINTYP         INTERNAL    [  0]    ***   
       PSI                  IPSI           OFF         [  0]    ***   
       QC_ALG               IQCALG         FLM         [  0]    ***   
       QC_LINALG            IQCLIN         TRIDIAG     [  2]    ***   
       QC_MAXCYC            IQCMAX          10D-100           cycles  
       QC_MAXSCFCY          IQCMSC          10D- 15           cycles  
       QC_RTRUST            IQCRTR          10D-  0           x 10-3  
       QC_SKIPSCF           IQCSKI         OFF         [  0]    ***   
       QC_START             IQCSTA          10D-  1             ***   
       QRHFGUESS            IQGUES         OFF         [  0]    ***   
       QUARTIC              IQUART         OFF         [  0]    ***   
       RAMAN_INT            IRAMIN         OFF         [  0]    ***   
       RAMAN_ORB            IRAMRE         UNRELAXED   [  0]    ***   
       RDO                  IRDOFM         OFF         [  0]    ***   
       REDUCE_REPR          REDREP         Ir          [  0]    ***   
       REFERENCE            IREFNC         RHF         [  0]    ***   
       RELATIVIST           IRELAT         OFF         [  0]    ***   
       RELAX_DENS           IRDENS         OFF         [  0]    ***   
       RESET_FLAGS          IRESET         OFF         [  0]    ***   
       RESTART_CC           ICCRES         OFF         [  0]    ***   
       ROT_EVEC             ROTVEC              0               ***   
       SAVE_INTS            ISVINT         OFF         [  0]    ***   
       SCALE_ON             ISTCRT              0               ***   
       SCF_CONV             ISCFCV          10D-  7             ***   
       SCF_DAMPING          IDAMP               0             x 10-3  
       SCF_EXPORDE          IRPPOR              6               ***   
       SCF_EXPSTAR          IRPPLS              8               ***   
       SCF_EXTRAPO          IRPP           ON          [  1]    ***   
       SCF_MAXCYC           ISCFCY            150              cycles 
       SCF_NOSTOP           ISCFST         OFF         [  0]    ***   
       SCF_PRINT            ISCFPR              0               ***   
       SCF_PROG             ISCFPR         SCF         [  0]    ***   
       SD_FIELD             IFINSD              0             x 10-6  
       SOPERT               IPERSO         OFF         [  0]    ***   
       SPHERICAL            IDFGHI         ON          [  1]    ***   
       SPINORBIT            ISOCAL         OFF         [  0]    ***   
       SPINROTATIO          ISRCON         OFF         [  0]    ***   
       SPIN_FLIP            ISPFLP         OFF         [  0]    ***   
       SPIN_ORBIT           ISPORB         OFF         [  0]    ***   
       SPIN_SCAL            ISCSMP         OFF         [  0]    ***   
       STEEPSCALE           ISTPSC              1000          x 10-3  
       SUBGROUP             ISUBGP         DEFAULT     [  0]    ***   
       SUBGRPAXIS           ISBXYZ         X           [  0]    ***   
       SYMMETRY             ISYM           ON          [  0]    ***   
       SYM_CHECK            ISYMCK         OVERRIDE    [  1]    ***   
       T3_EXTRAPOL          IT3EXT         OFF         [  0]    ***   
       T4_EXTRAPOL          IT4EXP         OFF         [  0]    ***   
       TAMP_SUM             IEVERY              5               ***   
       TESTSUITE            ITESTS         OFF         [  0]    ***   
       THERMOCH             ITHERM         OFF         [  0]    ***   
       TOL_CHOLESK          ITOLCH          10D-  4             ***   
       TRANGRAD             IRESRM         OFF         [  0]    ***   
       TRANS_INV            ITRAIN         USE         [  0]    ***   
       TREAT_PERT           ITREAT         SIMULTANEOUS[  0]    ***   
       TRIP_ALGORI          ITRALG         NORMAL      [  0]    ***   
       UIJ_THRESHO          IUIJTH              1               ***   
       UNITS                IUNITS         ANGSTROM    [  0]    ***   
       UNOS                 IUNOS          OFF         [  0]    ***   
       UPDATE_HESS          IHUPDT         ON          [  1]    ***   
       VIBPHASE             ISETPH         STANDARD    [  0]    ***   
       VIBRATION            IVIB           NO          [  0]    ***   
       VIB_ALGORIT          IGEALG         STANDARD    [  0]    ***   
       VNATORB              IVNORB         OFF         [  0]    ***   
       VTRAN                IVTRAN         FULL/PARTIAL[  0]    ***   
       XFIELD               IXEFLD              0             x 10-6  
       XFORM_TOL            IXFTOL          10D- 11             ***   
       YFIELD               IYEFLD              0             x 10-6  
       ZFIELD               IZEFLD              0             x 10-6  
       ZSCALE_EXP           IZEXPS         OFF         [  0]    ***   
    -------------------------------------------------------------------
  @GETXYZ-I,     7 atoms read from ZMAT.
   Rotational constants (in cm-1): 
          0.8536890782             1.0274454158             4.0843169618
   Rotational constants (in MHz): 
      25592.9582983935         30802.0429801462        122444.7592772135
********************************************************************************
   The full molecular point group is C2v .
   The largest Abelian subgroup of the full molecular point group is C2v .
   The computational point group is C2v .
********************************************************************************


 ----------------------------------------------------------------
         Coordinates used in calculation (QCOMP) 
 ----------------------------------------------------------------
 Z-matrix   Atomic            Coordinates (in bohr)
  Symbol    Number           X              Y              Z
 ----------------------------------------------------------------
     C         6        -1.25572327     0.00000000    -0.04173553
     C         6         1.25572327     0.00000000    -0.04173553
     H         1        -2.19034422     1.81857454    -0.04173553
     H         1         2.19034422     1.81857454    -0.04173553
     H         1        -2.19034422    -1.81857454    -0.04173553
     H         1         2.19034422    -1.81857454    -0.04173553
     H         1         0.00000000     0.00000000     1.16081771
 ----------------------------------------------------------------
 
   Interatomic distance matrix (Angstroms) 
 
                 C             C             H             H             H    
                [ 1]        [ 2]        [ 3]        [ 4]        [ 5]
  C    [ 1]     0.00000
  C    [ 2]     1.32900     0.00000
  H    [ 3]     1.08200     2.06193     0.00000
  H    [ 4]     2.06193     1.08200     2.31816     0.00000
  H    [ 5]     1.08200     2.06193     1.92470     3.01303     0.00000
  H    [ 6]     2.06193     1.08200     3.01303     1.92470     2.31816
  H    [ 7]     0.92006     0.92006     1.63540     1.63540     1.63540
 
                 H             H    
                [ 6]        [ 7]
  H    [ 6]     0.00000
  H    [ 7]     1.63540     0.00000
 rotcon2
   Rotational constants (in cm-1): 
          4.0843169618             1.0274454158             0.8536890782
   Rotational constants (in MHz): 
     122444.7592772134         30802.0429801462         25592.9582983935
  ECPDATA file not present.   Using default ECPDATA. 
  There are   57 basis functions.
 @GEOPT-W, Archive file not created for single-point calculation.
 @CHECKOUT-I, Total execution time (CPU/WALL):        0.12/       0.13 seconds.
--executable xjoda finished with status     0 in        0.15 seconds (walltime).
 --invoking executable--
/home/tsommerfeld/zscale/bin/xvmol
 SERIAL VERSION OF MOLECULE STARTED
********************************************************************************
                    INPUT FROM MOL FILE
********************************************************************************
INTGRL        1    0    1    0    0    0    0    0    0                         
         *** CFOUR Program System (Release V0.1) ***                            
h_ethylene                                                                      
    3    2 X  Y       0.10E-08              0    0                              
   9999.00      3.00                                                            
          6.00000000    1    3    1    1    1                                   
C #1  -1.255723272983657   0.000000000000000  -0.041735529370008                
    9    3                                                                      
   6665.00000000000       6.920000000000000E-004 -1.460000000000000E-004        
  0.000000000000000E+000                                                        
   1000.00000000000       5.329000000000000E-003 -1.154000000000000E-003        
  0.000000000000000E+000                                                        
   228.000000000000       2.707700000000000E-002 -5.725000000000000E-003        
  0.000000000000000E+000                                                        
   64.7100000000000       0.101718000000000      -2.331200000000000E-002        
  0.000000000000000E+000                                                        
   21.0600000000000       0.274740000000000      -6.395500000000000E-002        
  0.000000000000000E+000                                                        
   7.49500000000000       0.448564000000000      -0.149981000000000             
  0.000000000000000E+000                                                        
   2.79700000000000       0.285074000000000      -0.127262000000000             
  0.000000000000000E+000                                                        
  0.521500000000000       1.520400000000000E-002  0.544529000000000             
  0.000000000000000E+000                                                        
  0.159600000000000      -3.191000000000000E-003  0.580496000000000             
   1.00000000000000                                                             
    4    2                                                                      
   9.43900000000000       3.810900000000000E-002  0.000000000000000E+000        
   2.00200000000000       0.209480000000000       0.000000000000000E+000        
  0.545600000000000       0.508557000000000       0.000000000000000E+000        
  0.151700000000000       0.468842000000000        1.00000000000000             
    1    1                                                                      
  0.550000000000000        1.00000000000000                                     
          1.00000000    1    2    1    1                                        
H #2  -2.190344215575466   1.818574537711477  -0.041735529370008                
    4    2                                                                      
   13.0100000000000       1.968500000000000E-002  0.000000000000000E+000        
   1.96200000000000       0.137977000000000       0.000000000000000E+000        
  0.444600000000000       0.478148000000000       0.000000000000000E+000        
  0.122000000000000       0.501240000000000        1.00000000000000             
    1    1                                                                      
  0.727000000000000        1.00000000000000                                     
          1.00000000    1    2    1    1                                        
H #3   0.000000000000000   0.000000000000000   1.160817711054863                
    5    3                                                                      
   13.0100000000000       1.968500000000000E-002  0.000000000000000E+000        
  0.000000000000000E+000                                                        
   1.96200000000000       0.137977000000000       0.000000000000000E+000        
  0.000000000000000E+000                                                        
  0.444600000000000       0.478148000000000       0.000000000000000E+000        
  0.000000000000000E+000                                                        
  0.122000000000000       0.501240000000000        1.00000000000000             
  0.000000000000000E+000                                                        
  2.974000000000000E-002  0.000000000000000E+000  0.000000000000000E+000        
   1.00000000000000                                                             
    2    2                                                                      
  0.727000000000000        1.00000000000000       0.000000000000000E+000        
  0.141000000000000       0.000000000000000E+000   1.00000000000000             
FINISH                                                                          
 
********************************************************************************
 ONE- AND TWO-ELECTRON INTEGRALS OVER SYMMETRY-ADAPTED AOS ARE CALCULATED.

  SPHERICAL HARMONICS ARE USED.
  
  INTEGRALS LESS THAN  0.10E-13 ARE NEGLECTED.

  NUCLEAR REPULSION ENERGY :   41.7853455044 A.U.
  @MOLECU-I, ONE ELECTRON INTEGRALS (CPU/WALL):        0.01/       0.01 SECONDS.
  @TWOEL-I,      29572 INTEGRALS OF SYMMETRY TYPE  I I I I
  @TWOEL-I,     102291 INTEGRALS OF SYMMETRY TYPE  I J I J
  @TWOEL-I,      58089 INTEGRALS OF SYMMETRY TYPE  I I J J
  @TWOEL-I,      75480 INTEGRALS OF SYMMETRY TYPE  I J K L
  @TWOEL-I, TOTAL NUMBER OF 2-E INTEGRALS     265432.
  @MOLECU-I, TWO ELECTRON INTEGRALS (CPU/WALL):        0.22/       0.23 SECONDS.
 @CHECKOUT-I, Total execution time (CPU/WALL):        0.24/       0.25 seconds.

Running with 8 threads/proc

--executable xvmol finished with status     0 in        0.27 seconds (walltime).
 --invoking executable--
/home/tsommerfeld/zscale/bin/xvmol2ja
 @GETMEM-I,  Allocated   85830 MB of main memory.
 @CHECKOUT-I, Total execution time (CPU/WALL):        0.02/       0.01 seconds.
--executable xvmol2ja finished with status     0 in        0.03 seconds (walltime).
 --invoking executable--
/home/tsommerfeld/zscale/bin/xvscf
  There are   57 functions in the AO basis.

  There are 4 irreducible representations.

       Irrep        # of functions
         1                 20
         2                 17
         3                 11
         4                  9


  Parameters for SCF calculation: 
        SCF reference function:  RHF  
  Maximum number of iterations:  150
     Full symmetry point group: C2v 
     Computational point group: C2v 
        Initial density matrix: MOREAD                 
     SCF convergence tolerance: 10**(- 7)
  DIIS convergence acceleration:  ON
          Latest start for DIIS:   8
                     DIIS order:   6

  Memory information:     156410 words required.
  Fock matrices are constructed from AO integral file.
 @GETMEM-I,  Allocated       1 MB of main memory.
  Initialization and symmetry analysis required      0.002 seconds.

  @INITGES-I, Occupancies from core Hamiltonian:

          Alpha population by irrep:   3    4    1    1
           Beta population by irrep:   3    4    1    1


 total no. of electrons in initial guess :  0.000000000000000E+000
  --------------------------------------------------------------------
  Iteration         Total Energy            Largest Density Difference
  --------------------------------------------------------------------
       0            41.785345504418395              0.0000000000D+00
   current occupation vector 
     3  4  1  1
     3  4  1  1
       1           -62.072257213560071              0.9687481985D+01
   current occupation vector 
     3  4  1  1
     3  4  1  1
       2           -64.811255270565141              0.2799873826D+03
   current occupation vector 
     4  3  1  1
     4  3  1  1
       3           -72.170432919110766              0.2805243109D+03
   current occupation vector 
     4  3  1  1
     4  3  1  1
       4           -70.640564202437474              0.1171053406D+03
   current occupation vector 
     4  3  1  1
     4  3  1  1
       5           -74.204758641898508              0.1170094771D+03
   current occupation vector 
     4  3  1  1
     4  3  1  1
       6           -73.134405057546559              0.3866856920D+02
   current occupation vector 
     4  3  1  1
     4  3  1  1
       7           -75.280633613118852              0.3869247741D+02
   current occupation vector 
     4  3  1  1
     4  3  1  1
       8           -74.185413005576692              0.1688368793D+02
   current occupation vector 
     4  3  1  1
     4  3  1  1
       9           -77.985657521380318              0.1691955882D+02
   current occupation vector 
     4  3  1  1
     4  3  1  1
      10           -78.193541068089274              0.3692007658D+00
   current occupation vector 
     4  3  1  1
     4  3  1  1
      11           -78.197051220371577              0.1495763530D+00
   current occupation vector 
     4  3  1  1
     4  3  1  1
      12           -78.197563424130095              0.5692049606D-01
   current occupation vector 
     4  3  1  1
     4  3  1  1
      13           -78.197781723602816              0.4394865273D-01
   current occupation vector 
     4  3  1  1
     4  3  1  1
      14           -78.197844124293454              0.2358876401D-01
   current occupation vector 
     4  3  1  1
     4  3  1  1
      15           -78.197846930303314              0.3567799626D-02
   current occupation vector 
     4  3  1  1
     4  3  1  1
      16           -78.197846947985710              0.1953219623D-03
   current occupation vector 
     4  3  1  1
     4  3  1  1
      17           -78.197846949080656              0.1181201439D-03
   current occupation vector 
     4  3  1  1
     4  3  1  1
      18           -78.197846949145315              0.2903866598D-04
   current occupation vector 
     4  3  1  1
     4  3  1  1
      19           -78.197846949148612              0.8460858903D-05
   current occupation vector 
     4  3  1  1
     4  3  1  1
      20           -78.197846949149749              0.1705624565D-05
   current occupation vector 
     4  3  1  1
     4  3  1  1
      21           -78.197846949149493              0.3878416558D-06
   current occupation vector 
     4  3  1  1
     4  3  1  1
      22           -78.197846949149607              0.1193554623D-06
   current occupation vector 
     4  3  1  1
     4  3  1  1

  SCF has converged.

 Density matrix saved to file den.dat
 total electron number:   18.0000000000000     
     E(SCF)=       -78.197846949149692              0.5670382663D-08


  Final occupancies:

     Alpha population by irrep:   4    3    1    1
      Beta population by irrep:   4    3    1    1


  Eigenvector printing suppressed.

 @PUTMOS-I, Writing converged MOs to NEWMOS. 
 @PUTMOS-I, Symmetry   1 Full Blocks  5 Partial Blocksize   0
 @PUTMOS-I, Symmetry   2 Full Blocks  4 Partial Blocksize   1
 @PUTMOS-I, Symmetry   3 Full Blocks  2 Partial Blocksize   3
 @PUTMOS-I, Symmetry   4 Full Blocks  2 Partial Blocksize   1
 @PUTFOCK-I, Writing converged Fock matrix to NEWFOCK. 
 @PUTFOCK-I, Symmetry   1 Full Blocks  5 Partial Blocksize   0
 @PUTFOCK-I, Symmetry   2 Full Blocks  4 Partial Blocksize   1
 @PUTFOCK-I, Symmetry   3 Full Blocks  2 Partial Blocksize   3
 @PUTFOCK-I, Symmetry   4 Full Blocks  2 Partial Blocksize   1


 
  ORBITAL EIGENVALUES (ALPHA)  (1H = 27.2113834 eV)

       MO #        E(hartree)               E(eV)           FULLSYM    COMPSYM
       ----   --------------------   --------------------   -------   ---------
    1     1         -10.9034328876        -296.6974926808      A1        A1 (1)
    2    21         -10.9020176105        -296.6589810324      B1        B1 (2)
    3     2          -0.9303496567         -25.3161012056      A1        A1 (1)
    4    22          -0.4959956556         -13.4967279488      B1        B1 (2)
    5    38          -0.3820198575         -10.3952888088      B2        B2 (3)
    6     3          -0.3796153246         -10.3298581430      A1        A1 (1)
    7    49          -0.2294271975          -6.2430314328      A2        A2 (4)
    8     4          -0.2158355075          -5.8731827450      A1        A1 (1)
    9    23           0.1080025529           2.9388988760      B1        B1 (2)
  +++++++++++++++++++++++++++++++++++++++++++++++++++++++++++++++++++++++++++++
   10     5           0.2253080120           6.1309426963      A1        A1 (1)
   11    39           0.4336679910          11.8007059720      B2        B2 (3)
   12    24           0.4595771076          12.5057288763      B1        B1 (2)
   13     6           0.4659955395          12.6803832885      A1        A1 (1)
   14    50           0.5073954559          13.8069322854      A2        A2 (4)
   15     7           0.5586287687          15.2010616029      A1        A1 (1)
   16    40           0.6088247273          16.5669630787      B2        B2 (3)
   17    25           0.6684927170          18.1906116230      B1        B1 (2)
   18     8           0.6760998968          18.3976135074      A1        A1 (1)
   19    26           0.7446134773          20.2619628163      B1        B1 (2)
   20     9           0.8623450238          23.4656010652      A1        A1 (1)
   21    41           0.9445910277          25.7036286113      B2        B2 (3)
   22    10           0.9522929612          25.9132088766      A1        A1 (1)
   23    27           0.9744873132          26.5171478984      B1        B1 (2)
   24    42           1.1066482127          30.1134288051      B2        B2 (3)
   25    28           1.1362858724          30.9199105258      B1        B1 (2)
   26    11           1.1369745262          30.9386497489      A1        A1 (1)
   27    51           1.2056910200          32.8085206084      A2        A2 (4)
   28    29           1.2658634117          34.4458946275      B1        B1 (2)
   29    12           1.3703720256          37.2897185901      A1        A1 (1)
   30    13           1.4910098509          40.5724407064      A1        A1 (1)
   31    52           1.5517509358          42.2252896554      A2        A2 (4)
   32    53           1.6043050950          43.6553610303      A2        A2 (4)
   33    43           1.6151690035          43.9509830094      B2        B2 (3)
   34    30           1.7963418595          48.8809470576      B1        B1 (2)
   35    14           1.8600157258          50.6136010453      A1        A1 (1)
   36    54           1.8835079083          51.2528558306      A2        A2 (4)
   37    44           1.9733049053          53.6963563419      B2        B2 (3)
   38    31           2.0816279037          56.6439749837      B1        B1 (2)
   39    45           2.1153172789          57.5607094880      B2        B2 (3)
   40    32           2.2032531259          59.9535655360      B1        B1 (2)
   41    15           2.2255124879          60.5592735700      A1        A1 (1)
   42    16           2.2609034928          61.5223117739      A1        A1 (1)
   43    46           2.2716675259          61.8152160058      B2        B2 (3)
   44    33           2.4369937045          66.3139700370      B1        B1 (2)
   45    34           2.5714516489          69.9727567138      B1        B1 (2)
   46    17           2.6694073564          72.6382670263      A1        A1 (1)
   47    55           2.6809265074          72.9517190608      A2        A2 (4)
   48    18           2.7356349553          74.4404116109      A1        A1 (1)
   49    56           2.7621792197          75.1627177660      A2        A2 (4)
   50    35           2.8410415782          77.3086716386      B1        B1 (2)
   51    47           3.0378983734          82.6654173699      B2        B2 (3)
   52    19           3.1071790140          84.5506394417      A1        A1 (1)
   53    48           3.1291551392          85.1486402096      B2        B2 (3)
   54    36           3.4779884156          94.6408762372      B1        B1 (2)
   55    57           3.6197754747          98.4990982653      A2        A2 (4)
   56    37           3.6712634573          99.9001574985      B1        B1 (2)
   57    20           3.8399954703         104.4915889969      A1        A1 (1)


  VSCF finished.

 @CHECKOUT-I, Total execution time (CPU/WALL):        0.27/       0.11 seconds.
--executable xvscf finished with status     0 in        0.13 seconds (walltime).
 --invoking executable--
/home/tsommerfeld/zscale/bin/xvtran
 @GETMEM-I,  Allocated   85830 MB of main memory.
  Full RHF integral transformation
  Transformation of IIII integrals :
  1 pass through the AO integral file was required.
       29572 AO integrals were read.
       37182 MO integrals were written to HF2.
  Transformation of IIJJ integrals :
  1 pass through the AO integral file was required.
       58089 AO integrals were read.
       75393 MO integrals were written to HF2.
  Transformation of IJIJ integrals :
  1 pass through the AO integral file was required.
      102291 AO integrals were read.
      132879 MO integrals were written to HF2.
  Transformation of IJKL integrals :
  1 pass through the AO integral file was required.
       75480 AO integrals were read.
      100980 MO integrals were written to HF2.
  Summary of active molecular orbitals: 
------------------------------------------------------------------------
 
  Index      Eigenvalue    Symmetry    Index      Eigenvalue    Symmetry
------------------------------------------------------------------------
     1       -10.9034329        1        30         1.1362859        2
     2        -0.9303497        1        31         1.2658634        2
     3        -0.3796153        1        32         1.7963419        2
     4        -0.2158355        1        33         2.0816279        2
     5       -10.9020176        2        34         2.2032531        2
     6        -0.4959957        2        35         2.4369937        2
     7         0.1080026        2        36         2.5714516        2
     8        -0.3820199        3        37         2.8410416        2
     9        -0.2294272        4        38         3.4779884        2
    10         0.2253080        1        39         3.6712635        2
    11         0.4659955        1        40         0.4336680        3
    12         0.5586288        1        41         0.6088247        3
    13         0.6760999        1        42         0.9445910        3
    14         0.8623450        1        43         1.1066482        3
    15         0.9522930        1        44         1.6151690        3
    16         1.1369745        1        45         1.9733049        3
    17         1.3703720        1        46         2.1153173        3
    18         1.4910099        1        47         2.2716675        3
    19         1.8600157        1        48         3.0378984        3
    20         2.2255125        1        49         3.1291551        3
    21         2.2609035        1        50         0.5073955        4
    22         2.6694074        1        51         1.2056910        4
    23         2.7356350        1        52         1.5517509        4
    24         3.1071790        1        53         1.6043051        4
    25         3.8399955        1        54         1.8835079        4
    26         0.4595771        2        55         2.6809265        4
    27         0.6684927        2        56         2.7621792        4
    28         0.7446135        2        57         3.6197755        4
    29         0.9744873        2
------------------------------------------------------------------------
  -10.9034328876054      -0.930349656740197      -0.379615324630570     
 -0.215835507465681       -10.9020176104842      -0.495995655581732     
  0.108002552932508      -0.382019857497446      -0.229427197473218     
  0.225308011950190       0.465995539517821       0.558628768681493     
  0.676099896758952       0.862345023783294       0.952292961209669     
   1.13697452621642        1.37037202563202        1.49100985091590     
   1.86001572581957        2.22551248790902        2.26090349283281     
   2.66940735641726        2.73563495529291        3.10717901397490     
   3.83999547031013       0.459577107583337       0.668492717023967     
  0.744613477325641       0.974487313216518        1.13628587239577     
   1.26586341168844        1.79634185954715        2.08162790370004     
   2.20325312589604        2.43699370451776        2.57145164893641     
   2.84104157815842        3.47798841558480        3.67126345728345     
  0.433667991022222       0.608824727325992       0.944591027713622     
   1.10664821271440        1.61516900347531        1.97330490525326     
   2.11531727886931        2.27166752594580        3.03789837343946     
   3.12915513915255       0.507395455879819        1.20569102004406     
   1.55175093579975        1.60430509498714        1.88350790833304     
   2.68092650742812        2.76217921967166        3.61977547474769     
 @CHECKOUT-I, Total execution time (CPU/WALL):        0.55/       0.09 seconds.
--executable xvtran finished with status     0 in        0.11 seconds (walltime).
 --invoking executable--
/home/tsommerfeld/zscale/bin/xintprc
 @GETMEM-I,  Allocated   85830 MB of main memory.
  Processing integrals for CCSD calculation.
  @GMOIAA-I, Processing MO integrals for spin case AA.
  @GMOIAA-I, Generation of integral list completed.
                      TYPE                NUMBER
                      ----               --------
                      PPPP                174812
                      PPPH                128480
                      PPHH                 23996
                      PHPH                 13708
                      PHHH                  5120
                      HHHH                   318

                     TOTAL                346434

  @FORMT2-I, Second-order MP correlation energies:
            ------------------------------------------------
            E(SCF)                  =    -78.197846949150 a.u.
            E2(AA)                  =     -0.039471749194 a.u.
            E2(AB)                  =     -0.248116245788 a.u.
            E2(TOT)                 =     -0.327059744175 a.u.
            Total MP2 energy        =    -78.524906693325 a.u.
            ------------------------------------------------
   Largest T2 amplitudes for spin case AB:
       _       _                 _       _                 _       _
   i   j   a   b             i   j   a   b             i   j   a   b
-----------------------------------------------------------------------------
[  7   7  29  29]-0.03772 [  4   4  14  14]-0.02677 [  7   7  17  17]-0.02435
[  7   4  29  14]-0.02357 [  4   7  14  29]-0.02357 [  7   7  28  28]-0.02244
[  9   9  42  42]-0.01955 [  7   8  29  40] 0.01717 [  8   7  40  29] 0.01717
[  8   8  40  40]-0.01702 [  4   4  31  31]-0.01683 [  9   9  51  51]-0.01647
[  8   8  42  42]-0.01644 [  9   9  50  50]-0.01570 [  9   7  50  29] 0.01567
-----------------------------------------------------------------------------
   Norm of T2AB vector (    47560 symmetry allowed elements):  0.2906014239.
-----------------------------------------------------------------------------
 @CHECKOUT-I, Total execution time (CPU/WALL):        0.42/       0.10 seconds.
--executable xintprc finished with status     0 in        0.11 seconds (walltime).
  calling xvcc 
 --invoking executable--
/home/tsommerfeld/zscale/bin/xvcc
 @GETMEM-I,  Allocated   85830 MB of main memory.
   CCSD energy will be calculated.
   The total correlation energy is -0.327059744175 a.u.
   The total correlation energy is -0.345060159531 a.u.
  Convergence information after     1 iterations: 
  Largest element of residual vector :  0.90107530E-02.
  Largest element of DIIS residual   :  0.90107530E-02.
   The total correlation energy is -0.351730993329 a.u.
  Convergence information after     2 iterations: 
  Largest element of residual vector : -0.25999146E-02.
  Largest element of DIIS residual   : -0.26117665E-02.
   The total correlation energy is -0.353592923980 a.u.
  Convergence information after     3 iterations: 
  Largest element of residual vector :  0.23227132E-02.
  Largest element of DIIS residual   :  0.19152490E-02.
   The total correlation energy is -0.354082359964 a.u.
  Convergence information after     4 iterations: 
  Largest element of residual vector : -0.74170799E-03.
  Largest element of DIIS residual   : -0.71633276E-03.
   The total correlation energy is -0.354144695721 a.u.
  Convergence information after     5 iterations: 
  Largest element of residual vector :  0.35942407E-03.
  Largest element of DIIS residual   :  0.15279545E-03.
   The total correlation energy is -0.354145293047 a.u.
  Convergence information after     6 iterations: 
  Largest element of residual vector : -0.14691230E-03.
  Largest element of DIIS residual   : -0.11407217E-03.
   The total correlation energy is -0.354143370828 a.u.
  Convergence information after     7 iterations: 
  Largest element of residual vector :  0.31586659E-04.
  Largest element of DIIS residual   :  0.19749217E-04.
   The total correlation energy is -0.354141131517 a.u.
  Convergence information after     8 iterations: 
  Largest element of residual vector : -0.22407568E-04.
  Largest element of DIIS residual   : -0.14872795E-04.
   The total correlation energy is -0.354141717488 a.u.
  Convergence information after     9 iterations: 
  Largest element of residual vector : -0.90569103E-05.
  Largest element of DIIS residual   : -0.69956052E-05.
   The total correlation energy is -0.354142123700 a.u.
  Convergence information after    10 iterations: 
  Largest element of residual vector : -0.67077757E-05.
  Largest element of DIIS residual   : -0.54817484E-05.
   The total correlation energy is -0.354142318165 a.u.
  Convergence information after    11 iterations: 
  Largest element of residual vector : -0.39211554E-05.
  Largest element of DIIS residual   : -0.26431594E-05.
   The total correlation energy is -0.354142388691 a.u.
  Convergence information after    12 iterations: 
  Largest element of residual vector : -0.22949677E-05.
  Largest element of DIIS residual   : -0.12759621E-05.
   The total correlation energy is -0.354142402725 a.u.
  Convergence information after    13 iterations: 
  Largest element of residual vector : -0.10350128E-05.
  Largest element of DIIS residual   : -0.50344082E-06.
   The total correlation energy is -0.354142399076 a.u.
  Convergence information after    14 iterations: 
  Largest element of residual vector : -0.37920172E-06.
  Largest element of DIIS residual   :  0.12200785E-06.
   The total correlation energy is -0.354142385276 a.u.
  Convergence information after    15 iterations: 
  Largest element of residual vector : -0.13073501E-06.
  Largest element of DIIS residual   :  0.64446782E-07.
   The total correlation energy is -0.354142381227 a.u.
  Convergence information after    16 iterations: 
  Largest element of residual vector : -0.24897743E-07.
  Largest element of DIIS residual   : -0.20196812E-07.
  Amplitude equations converged in    16iterations.
   The total correlation energy is -0.354142380648 a.u.
   The CC iterations have converged.

   Largest T1 amplitudes for spin case AA:
   i       a                 i       a                 i       a    
-----------------------------------------------------------------------------
[  4      10    ] 0.01422 [  7      29    ]-0.00752 [  4      12    ]-0.00743
[  8      42    ] 0.00720 [  4      13    ] 0.00646 [  3      12    ]-0.00615
[  8      41    ] 0.00596 [  6      28    ] 0.00525 [  9      51    ] 0.00515
[  8      43    ] 0.00497 [  9      56    ] 0.00494 [  7      30    ]-0.00489
[  6      26    ]-0.00453 [  7      27    ]-0.00444 [  4      11    ] 0.00408
-----------------------------------------------------------------------------
   Norm of T1AA vector (      124 symmetry allowed elements):  0.0306654077.
-----------------------------------------------------------------------------
   Largest T2 amplitudes for spin case AB:
       _       _                 _       _                 _       _
   i   j   a   b             i   j   a   b             i   j   a   b
-----------------------------------------------------------------------------
[  7   7  29  29]-0.04070 [  4   4  14  14]-0.02751 [  7   7  17  17]-0.02452
[  9   9  42  42]-0.02432 [  7   4  29  14]-0.02393 [  4   7  14  29]-0.02393
[  7   7  28  28]-0.02386 [  7   7  11  11]-0.02222 [  7   7  26  26]-0.02063
[  8   8  42  42]-0.01882 [  4   4  31  31]-0.01857 [  9   9  51  51]-0.01825
[  8   8  40  40]-0.01824 [  7   7  14  14]-0.01816 [  9   9  50  50]-0.01699
-----------------------------------------------------------------------------
   Norm of T2AB vector (    47560 symmetry allowed elements):  0.3352907267.
-----------------------------------------------------------------------------
       Summary of iterative solution of CC equations 
      -----------------------------------------------------------
                       Correlation           Total
       Iteration         Energy              Energy
      -----------------------------------------------------------
            0        -0.327059744175     -78.524906693325  DIIS 
            1        -0.345060159531     -78.542907108681  DIIS 
            2        -0.351730993329     -78.549577942479  DIIS 
            3        -0.353592923980     -78.551439873130  DIIS 
            4        -0.354082359964     -78.551929309114  DIIS 
            5        -0.354144695721     -78.551991644870  DIIS 
            6        -0.354145293047     -78.551992242197  DIIS 
            7        -0.354143370828     -78.551990319978  DIIS 
            8        -0.354141131517     -78.551988080667  DIIS 
            9        -0.354141717488     -78.551988666638  DIIS 
           10        -0.354142123700     -78.551989072850  DIIS 
           11        -0.354142318165     -78.551989267315  DIIS 
           12        -0.354142388691     -78.551989337841  DIIS 
           13        -0.354142402725     -78.551989351875  DIIS 
           14        -0.354142399076     -78.551989348226  DIIS 
           15        -0.354142385276     -78.551989334425  DIIS 
           16        -0.354142380648     -78.551989329797  DIIS 
      -----------------------------------------------------------
      A miracle has come to pass. The CC iterations have converged.
      The reference energy is       -78.19784694914969 a.u.
      The correlation energy is      -0.35414238064750 a.u.
      The total energy is           -78.55198932979719 a.u.
 @CHECKOUT-I, Total execution time (CPU/WALL):        5.59/       0.71 seconds.
--executable xvcc finished with status     0 in        0.72 seconds (walltime).
 --invoking executable--
/home/tsommerfeld/zscale/bin/xlambda
 @GETMEM-I,  Allocated   85830 MB of main memory.
 Hbar is calculated for a CCSD wave function.
 Calculation of Hbar completed.
 @CHECKOUT-I, Total execution time (CPU/WALL):        0.92/       0.13 seconds.
--executable xlambda finished with status     0 in        0.14 seconds (walltime).
 --invoking executable--
/home/tsommerfeld/zscale/bin/xvee
 @GETMEM-I,  Allocated   85830 MB of main memory.
  cc2 and ccprog  F                     0
  EOMEE-CCSD excitation energies will be evaluated.
  @SETMET-I, VPROP property integrals are used.
  @SETMET-I, A total of   3 target states will be studied.
  Summary of active alpha molecular orbitals:
------------------------------------------------------------------------------
Orbital      Sym   Eigenvalue  <xx>     <yy>     <zz>     <xy>     <xz>     <yz>
        SCF
  #  position
------------------------------------------------------------------------------
   1      1    1     -10.9034   0.000    0.000    0.000    0.000    0.000    0.000
   2      3    1      -0.9303   0.000    0.000    0.000    0.000    0.000    0.000
   3      6    1      -0.3796   0.000    0.000    0.000    0.000    0.000    0.000
   4      8    1      -0.2158   0.000    0.000    0.000    0.000    0.000    0.000
   5      2    2     -10.9020   0.000    0.000    0.000    0.000    0.000    0.000
   6      4    2      -0.4960   0.000    0.000    0.000    0.000    0.000    0.000
   7      9    2       0.1080   0.000    0.000    0.000    0.000    0.000    0.000
   8      5    3      -0.3820   0.000    0.000    0.000    0.000    0.000    0.000
   9      7    4      -0.2294   0.000    0.000    0.000    0.000    0.000    0.000
  10     10    1       0.2253   0.000    0.000    0.000    0.000    0.000    0.000
  11     13    1       0.4660   0.000    0.000    0.000    0.000    0.000    0.000
  12     15    1       0.5586   0.000    0.000    0.000    0.000    0.000    0.000
  13     18    1       0.6761   0.000    0.000    0.000    0.000    0.000    0.000
  14     20    1       0.8623   0.000    0.000    0.000    0.000    0.000    0.000
  15     22    1       0.9523   0.000    0.000    0.000    0.000    0.000    0.000
  16     26    1       1.1370   0.000    0.000    0.000    0.000    0.000    0.000
  17     29    1       1.3704   0.000    0.000    0.000    0.000    0.000    0.000
  18     30    1       1.4910   0.000    0.000    0.000    0.000    0.000    0.000
  19     35    1       1.8600   0.000    0.000    0.000    0.000    0.000    0.000
  20     41    1       2.2255   0.000    0.000    0.000    0.000    0.000    0.000
  21     42    1       2.2609   0.000    0.000    0.000    0.000    0.000    0.000
  22     46    1       2.6694   0.000    0.000    0.000    0.000    0.000    0.000
  23     48    1       2.7356   0.000    0.000    0.000    0.000    0.000    0.000
  24     52    1       3.1072   0.000    0.000    0.000    0.000    0.000    0.000
  25     57    1       3.8400   0.000    0.000    0.000    0.000    0.000    0.000
  26     12    2       0.4596   0.000    0.000    0.000    0.000    0.000    0.000
  27     17    2       0.6685   0.000    0.000    0.000    0.000    0.000    0.000
  28     19    2       0.7446   0.000    0.000    0.000    0.000    0.000    0.000
  29     23    2       0.9745   0.000    0.000    0.000    0.000    0.000    0.000
  30     25    2       1.1363   0.000    0.000    0.000    0.000    0.000    0.000
  31     28    2       1.2659   0.000    0.000    0.000    0.000    0.000    0.000
  32     34    2       1.7963   0.000    0.000    0.000    0.000    0.000    0.000
  33     38    2       2.0816   0.000    0.000    0.000    0.000    0.000    0.000
  34     40    2       2.2033   0.000    0.000    0.000    0.000    0.000    0.000
  35     44    2       2.4370   0.000    0.000    0.000    0.000    0.000    0.000
  36     45    2       2.5715   0.000    0.000    0.000    0.000    0.000    0.000
  37     50    2       2.8410   0.000    0.000    0.000    0.000    0.000    0.000
  38     54    2       3.4780   0.000    0.000    0.000    0.000    0.000    0.000
  39     56    2       3.6713   0.000    0.000    0.000    0.000    0.000    0.000
  40     11    3       0.4337   0.000    0.000    0.000    0.000    0.000    0.000
  41     16    3       0.6088   0.000    0.000    0.000    0.000    0.000    0.000
  42     21    3       0.9446   0.000    0.000    0.000    0.000    0.000    0.000
  43     24    3       1.1066   0.000    0.000    0.000    0.000    0.000    0.000
  44     33    3       1.6152   0.000    0.000    0.000    0.000    0.000    0.000
  45     37    3       1.9733   0.000    0.000    0.000    0.000    0.000    0.000
  46     39    3       2.1153   0.000    0.000    0.000    0.000    0.000    0.000
  47     43    3       2.2717   0.000    0.000    0.000    0.000    0.000    0.000
  48     51    3       3.0379   0.000    0.000    0.000    0.000    0.000    0.000
  49     53    3       3.1292   0.000    0.000    0.000    0.000    0.000    0.000
  50     14    4       0.5074   0.000    0.000    0.000    0.000    0.000    0.000
  51     27    4       1.2057   0.000    0.000    0.000    0.000    0.000    0.000
  52     31    4       1.5518   0.000    0.000    0.000    0.000    0.000    0.000
  53     32    4       1.6043   0.000    0.000    0.000    0.000    0.000    0.000
  54     36    4       1.8835   0.000    0.000    0.000    0.000    0.000    0.000
  55     47    4       2.6809   0.000    0.000    0.000    0.000    0.000    0.000
  56     49    4       2.7622   0.000    0.000    0.000    0.000    0.000    0.000
  57     55    4       3.6198   0.000    0.000    0.000    0.000    0.000    0.000
------------------------------------------------------------------------------
  @DRVTDA-I, Roots obtained by Davidson method.
  calling tda davidson                       6                     2
  after tda davidson                      6                     6
                     3                     3
  kroot is                      3
__________________________________________________________________________
    Tamm-Dancoff (CIS) Excitation Energies and Transition Moments

                Excitation         Transition Dipole         Oscillator
 Root  Symmetry  Energy         x           y           z     Strength
__________________________________________________________________________
   1       2   -0.04730      0.0000      0.0000      0.0000  .00000000D+00
__________________________________________________________________________
 
__________________________________________________________________________
  TDA excitation ergy:            -0.047300867873 a.u.   -1.2871 eV
  Total TDA electronic energy:   -78.245147817023 a.u.
 
  Dominant contributions: 
  SCF eigenvalue ordering used in list below. 
--------------------------------------------------------------------------------
    I    j    A    b
--------------------------------------------------------------------------------
    9    0   10    0  -0.9879513712 AA  
    9    0   15    0   0.1098706984 AA  
    9    0   13    0   0.0922177936 AA  
    9    0   18    0  -0.0300058912 AA  
    8    0   12    0  -0.0276871804 AA  
    9    0   22    0   0.0227900700 AA  
    6    0   12    0  -0.0156760547 AA  
    9    0   20    0  -0.0133979799 AA  
    8    0   19    0  -0.0109947256 AA  
    4    0   10    0   0.0092419633 AA  
    9    0   30    0  -0.0086085709 AA  
    9    0   29    0  -0.0077948704 AA  
    6    0   28    0  -0.0069580645 AA  
    9    0   26    0   0.0066768353 AA  
    6    0   19    0  -0.0065727740 AA  
--------------------------------------------------------------------------------
   2       2    0.12438      0.0000      0.0000      0.0000  .00000000D+00
__________________________________________________________________________
 
__________________________________________________________________________
  TDA excitation ergy:             0.124380985190 a.u.    3.3846 eV
  Total TDA electronic energy:   -78.073465963960 a.u.
 
  Dominant contributions: 
  SCF eigenvalue ordering used in list below. 
--------------------------------------------------------------------------------
    I    j    A    b
--------------------------------------------------------------------------------
    9    0   13    0  -0.9765263359 AA  
    9    0   18    0  -0.1167513488 AA  
    9    0   10    0  -0.1014607655 AA  
    9    0   15    0  -0.0888754073 AA  
    8    0   12    0   0.0608833160 AA  
    9    0   26    0  -0.0559986651 AA  
    9    0   22    0  -0.0458990183 AA  
    8    0   17    0  -0.0339412267 AA  
    8    0   28    0   0.0300132609 AA  
    9    0   30    0   0.0259531974 AA  
    6    0   12    0   0.0197596097 AA  
    8    0   19    0   0.0174348433 AA  
    6    0   17    0  -0.0147405932 AA  
    7    0   16    0  -0.0141663341 AA  
    8    0   25    0  -0.0132700997 AA  
--------------------------------------------------------------------------------
   3       2    0.19378      0.0000      0.0000      0.0000  .00000000D+00
__________________________________________________________________________
 
__________________________________________________________________________
  TDA excitation ergy:             0.193777181541 a.u.    5.2729 eV
  Total TDA electronic energy:   -78.004069767609 a.u.
 
  Dominant contributions: 
  SCF eigenvalue ordering used in list below. 
--------------------------------------------------------------------------------
    I    j    A    b
--------------------------------------------------------------------------------
    9    0   15    0  -0.9838906081 AA  
    9    0   13    0   0.1015678647 AA  
    9    0   10    0  -0.0992046965 AA  
    9    0   22    0   0.0618753178 AA  
    9    0   30    0   0.0475052764 AA  
    4    0   15    0   0.0325815399 AA  
    9    0   18    0  -0.0306467663 AA  
    8    0   19    0   0.0228666338 AA  
    7    0   11    0  -0.0214619534 AA  
    4    0   13    0  -0.0190014078 AA  
    6    0   19    0   0.0152004106 AA  
    5    0   14    0  -0.0145753494 AA  
    4    0   20    0  -0.0132842832 AA  
    6    0   12    0   0.0125857845 AA  
    8    0   28    0  -0.0120016096 AA  
--------------------------------------------------------------------------------
__________________________________________________________________________
  @DOEOMEE-I, Excitation energies computed by the EOMEE-CCSD/CCSD-LR method.
  @DOEOMEE-I, right-hand eigenvectors will be computed.
  Beginning symmetry block   2.   3 roots requested.
  @DOEOMEE-I, Matrix dimension for diagonalization:    47674
  Creating initial guess for root
________________________________________________________________________
            Subspace          Eigenvalue           
 Iteration  Dimension   (a.u.)         (eV)       Overlap      Residual
________________________________________________________________________
  @NEWGES-I, Using TDA initial guess.
  1   1  0.1442097000D-01  0.3924145436D+00  0.0000000000D+00  0.3353221325D+00
  2   2 -0.5681925896D-01 -0.1546130640D+01  0.9757635167D+00  0.5218606841D-01
  3   3 -0.5841592170D-01 -0.1589578042D+01  0.9990024278D+00  0.1224418534D-01
  4   4 -0.5847374196D-01 -0.1591151411D+01  0.9999453036D+00  0.6406102367D-02
  5   5 -0.5849447391D-01 -0.1591715556D+01  0.9999774167D+00  0.1160615711D-02
  L-O-C-K-I-N-G O-N R-O-O-T 
  6   6 -0.5849847008D-01 -0.1591824298D+01  0.9999988578D+00  0.6511216890D-03
  7   7 -0.5849838971D-01 -0.1591822111D+01  0.9999997038D+00  0.1670180371D-03
  8   8 -0.5849869298D-01 -0.1591830363D+01  0.9999999808D+00  0.6152077912D-04
  9   9 -0.5849867973D-01 -0.1591830003D+01  0.9999999977D+00  0.1211648289D-04
 10  10 -0.5849868667D-01 -0.1591830191D+01  0.9999999999D+00  0.4479520377D-05
  Converged eigenvalue:  -5.849868667152616E-002  a.u.
   Total EOMEE-CCSD electronic energy      -78.610488016468722 a.u.
  Converged eigenvector 
  SCF eigenvalue ordering used in list below. 
--------------------------------------------------------------------------------
    I    j    A    b
--------------------------------------------------------------------------------
    9    0   10    0  -0.6820138497 AA  
    9    0   15    0   0.0756767913 AA  
    9    0   13    0   0.0636532227 AA  
    9    9   23   10   0.0518761720 ABAB
    9    9   10   23   0.0518761720 ABAB
    7    9   14   10  -0.0346572725 ABAB
    9    7   10   14  -0.0346572725 ABAB
    5    9   11   10  -0.0320484987 ABAB
    9    5   10   11  -0.0320484987 ABAB
    9    4   10   12  -0.0315395478 ABAB
    4    9   12   10  -0.0315395478 ABAB
    9    8   10   20   0.0272526351 ABAB
    8    9   20   10   0.0272526351 ABAB
    9    6   10   13   0.0272166513 ABAB
    6    9   13   10   0.0272166513 ABAB
--------------------------------------------------------------------------------
  Converged eigenvector, normalized to one 
  SCF eigenvalue ordering used in list below. 
--------------------------------------------------------------------------------
    I    j    A    b
--------------------------------------------------------------------------------
    9    0   10    0  -0.6820138497 AA  
    9    0   15    0   0.0756767913 AA  
    9    0   13    0   0.0636532227 AA  
    9    9   23   10   0.0518761720 ABAB
    9    9   10   23   0.0518761720 ABAB
    7    9   14   10  -0.0346572725 ABAB
    9    7   10   14  -0.0346572725 ABAB
    5    9   11   10  -0.0320484987 ABAB
    9    5   10   11  -0.0320484987 ABAB
    9    4   10   12  -0.0315395478 ABAB
    4    9   12   10  -0.0315395478 ABAB
    9    8   10   20   0.0272526351 ABAB
    8    9   20   10   0.0272526351 ABAB
    9    6   10   13   0.0272166513 ABAB
    6    9   13   10   0.0272166513 ABAB
--------------------------------------------------------------------------------

  Eigenvector is saved on CCRE_2_1  

  Adding new vector to expansion space.
  Guess for next eigenvalue   0.124380985189849     
 11  11  0.1173158169D+00  0.3192325674D+01  0.7515114224D+00  0.1086558074D+00
 12  12  0.1115986422D+00  0.3036753439D+01  0.9950022922D+00  0.2290871814D-01
 13  13  0.1111118464D+00  0.3023507053D+01  0.9994509181D+00  0.1019580253D-01
 14  14  0.1110688420D+00  0.3022336844D+01  0.9998734821D+00  0.4301881967D-02
 15  15  0.1110562055D+00  0.3021992987D+01  0.9999764998D+00  0.1383180480D-02
  L-O-C-K-I-N-G O-N R-O-O-T 
 16  16  0.1110562416D+00  0.3021993969D+01  0.9999984400D+00  0.5756624119D-03
 17  17  0.1110552979D+00  0.3021968291D+01  0.9999997682D+00  0.1718108634D-03
 18  18  0.1110553857D+00  0.3021970678D+01  0.9999999778D+00  0.4951805935D-04
 19  19  0.1110553680D+00  0.3021970196D+01  0.9999999983D+00  0.1799098736D-04
 20  20  0.1110553790D+00  0.3021970496D+01  0.9999999998D+00  0.4281691130D-05
  Converged eigenvalue:   0.111055378994543       a.u.
   Total EOMEE-CCSD electronic energy      -78.440933950802645 a.u.
  Converged eigenvector 
  SCF eigenvalue ordering used in list below. 
--------------------------------------------------------------------------------
    I    j    A    b
--------------------------------------------------------------------------------
    9    0   13    0  -0.6760902798 AA  
    9    0   18    0  -0.0719479446 AA  
    9    0   10    0  -0.0663822205 AA  
    9    0   15    0  -0.0496645653 AA  
    9    0   26    0  -0.0406779969 AA  
    9    9   23   13   0.0361367191 ABAB
    9    9   13   23   0.0361367191 ABAB
    9    6   13   13   0.0352512951 ABAB
    6    9   13   13   0.0352512951 ABAB
    5    9   11   13  -0.0290427951 ABAB
    9    5   13   11  -0.0290427951 ABAB
    9    0   22    0  -0.0265944048 AA  
    9    4   13   12  -0.0265718445 ABAB
    4    9   12   13  -0.0265718445 ABAB
    7    9   14   13  -0.0265320008 ABAB
--------------------------------------------------------------------------------
  Converged eigenvector, normalized to one 
  SCF eigenvalue ordering used in list below. 
--------------------------------------------------------------------------------
    I    j    A    b
--------------------------------------------------------------------------------
    9    0   13    0  -0.6760902798 AA  
    9    0   18    0  -0.0719479446 AA  
    9    0   10    0  -0.0663822205 AA  
    9    0   15    0  -0.0496645653 AA  
    9    0   26    0  -0.0406779969 AA  
    9    9   23   13   0.0361367191 ABAB
    9    9   13   23   0.0361367191 ABAB
    9    6   13   13   0.0352512951 ABAB
    6    9   13   13   0.0352512951 ABAB
    5    9   11   13  -0.0290427951 ABAB
    9    5   13   11  -0.0290427951 ABAB
    9    0   22    0  -0.0265944048 AA  
    9    4   13   12  -0.0265718445 ABAB
    4    9   12   13  -0.0265718445 ABAB
    7    9   14   13  -0.0265320008 ABAB
--------------------------------------------------------------------------------

  Eigenvector is saved on CCRE_2_2  

  Adding new vector to expansion space.
  Guess for next eigenvalue   0.193777181540980     
 21  21  0.1837339121D+00  0.4999653925D+01  0.7330403180D+00  0.6283840226D-01
 22  22  0.1815332840D+00  0.4939771792D+01  0.9985769894D+00  0.1520281640D-01
 23  23  0.1812816686D+00  0.4932924988D+01  0.9998178179D+00  0.5280975172D-02
  L-O-C-K-I-N-G O-N R-O-O-T 
 24  24  0.1812669403D+00  0.4932524211D+01  0.9999709176D+00  0.2920490087D-02
 25  25  0.1812616115D+00  0.4932379208D+01  0.9999913382D+00  0.8259010839D-03
 26  26  0.1812598627D+00  0.4932331619D+01  0.9999992912D+00  0.3877693168D-03
 27  27  0.1812598046D+00  0.4932330037D+01  0.9999999064D+00  0.1162154305D-03
 28  28  0.1812597513D+00  0.4932328588D+01  0.9999999918D+00  0.3439822286D-04
 29  29  0.1812597427D+00  0.4932328355D+01  0.9999999992D+00  0.1106820639D-04
 30  30  0.1812597429D+00  0.4932328360D+01  0.9999999999D+00  0.3318667104D-05
  Converged eigenvalue:   0.181259742945433       a.u.
   Total EOMEE-CCSD electronic energy      -78.370729586851766 a.u.
  Converged eigenvector 
  SCF eigenvalue ordering used in list below. 
--------------------------------------------------------------------------------
    I    j    A    b
--------------------------------------------------------------------------------
    9    0   15    0  -0.6804211608 AA  
    9    0   10    0  -0.0678978736 AA  
    9    0   13    0   0.0573624212 AA  
    9    9   23   15   0.0392186423 ABAB
    9    9   15   23   0.0392186423 ABAB
    9    0   22    0   0.0372230995 AA  
    9    8   15   15  -0.0360282967 ABAB
    8    9   15   15  -0.0360282967 ABAB
    9    9   19   15   0.0357775240 ABAB
    9    9   15   19   0.0357775240 ABAB
    9    0   30    0   0.0310139267 AA  
    9    8   29   15  -0.0238418988 ABAB
    8    9   15   29  -0.0238418988 ABAB
    9    9   19   20  -0.0237925117 ABAB
    9    9   20   19  -0.0237925117 ABAB
--------------------------------------------------------------------------------
  Converged eigenvector, normalized to one 
  SCF eigenvalue ordering used in list below. 
--------------------------------------------------------------------------------
    I    j    A    b
--------------------------------------------------------------------------------
    9    0   15    0  -0.6804211608 AA  
    9    0   10    0  -0.0678978736 AA  
    9    0   13    0   0.0573624212 AA  
    9    9   23   15   0.0392186423 ABAB
    9    9   15   23   0.0392186423 ABAB
    9    0   22    0   0.0372230995 AA  
    9    8   15   15  -0.0360282967 ABAB
    8    9   15   15  -0.0360282967 ABAB
    9    9   19   15   0.0357775240 ABAB
    9    9   15   19   0.0357775240 ABAB
    9    0   30    0   0.0310139267 AA  
    9    8   29   15  -0.0238418988 ABAB
    8    9   15   29  -0.0238418988 ABAB
    9    9   19   20  -0.0237925117 ABAB
    9    9   20   19  -0.0237925117 ABAB
--------------------------------------------------------------------------------

  Eigenvector is saved on CCRE_2_3  

  Solution of   3 roots required   30 iterations.
 @CHECKOUT-I, Total execution time (CPU/WALL):       17.54/       2.20 seconds.
--executable xvee finished with status     0 in        2.22 seconds (walltime).
  The final electronic energy is       -78.370729586851766 a.u. 
  This computation required                            3.92 seconds (walltime).
