CFour on node02
 --invoking executable--
/home/tsommerfeld/zscale/bin/xjoda


   *************************************************************************
         <<<     CCCCCC     CCCCCC   |||     CCCCCC     CCCCCC   >>>
       <<<      CCC        CCC       |||    CCC        CCC         >>>
      <<<      CCC        CCC        |||   CCC        CCC            >>>
    <<<        CCC        CCC        |||   CCC        CCC              >>>
      <<<      CCC        CCC        |||   CCC        CCC            >>>
       <<<      CCC        CCC       |||    CCC        CCC         >>>
         <<<     CCCCCC     CCCCCC   |||     CCCCCC     CCCCCC   >>>
   *************************************************************************

     ****************************************************************
     * CFOUR Coupled-Cluster techniques for Computational Chemistry *
     ****************************************************************
 

   Department of Chemistry                Institut fuer Physikalische Chemie
   University of Florida                  Universitaet Mainz
   Gainesville, FL 32611, USA             D-55099 Mainz, Germany

   Department of Chemistry                Department of Chemistry
   Johns Hopkins University               Southern Methodist University
   Baltimore, MD 21218, USA               Dallas, TX 75275, USA

   Institute of Nanotechnology            Department of Physical Chemistry
   Karlsruhe Inst. of Technology          Eotvos Lorand University
   D-76021 Karlsruhe, Germany             H-1053 Budapest, Hungary

 
                       Version 2.1
 
                     node02                                            
                     Tue Mar 29 16:05:13 CST 2022                      
                     integer*8 version is running
 
********************************************************************************
*                          Input from ZMAT file                                *
********************************************************************************
h_ethylene                                                                      
C       0.000000      0.0   -0.664500                                           
C       0.000000      0.0    0.664500                                           
H       0.962348      0.0   -1.159080                                           
H       0.962348      0.0    1.159080                                           
H      -0.962348      0.0   -1.159080                                           
H      -0.962348      0.0    1.159080                                           
H      0.000000      2.7272727272727275      0.000000                           
                                                                                
*CFOUR(CALC=CCSD                                                                
EXCITE=EOMEE                                                                    
ESTATE_SYM=0/3/0/0                                                              
CC_PROG=VCC                                                                     
CHARGE=-1                                                                       
COORDINATES=CARTESIAN                                                           
BASIS=SPECIAL                                                                   
REFERENCE=RHF                                                                   
MEM_SIZE=90,MEM_UNIT=GB)                                                        
                                                                                
C:CC-PVDZ                                                                       
C:CC-PVDZ                                                                       
H:CC-PVDZ                                                                       
H:CC-PVDZ                                                                       
H:CC-PVDZ                                                                       
H:CC-PVDZ                                                                       
H:AUG-CC-PVDZ                                                                   
                                                                                
********************************************************************************
    -------------------------------------------------------------------
                    CFOUR Control Parameters 
    -------------------------------------------------------------------
        External           Internal           Value            Units
          Name               Name
    -------------------------------------------------------------------
       ABCDTYPE             IABCDT         STANDARD    [  0]    ***   
       ANHARMONIC           IANHAR         OFF         [  0]    ***   
       ANH_ALGORIT          IANALG         STANDARD    [  0]    ***   
       ANH_DERIVAT          IANDER         SECOND      [  1]    ***   
       ANH_MODE             ANHMOD         VIBRATION   [  0]    ***   
       ANH_STEPSIZ          ICUBST             50000          x 10-6  
       ANH_SYMMETR          IANHSM         ABELIAN     [  0]    ***   
       AO_LADDERS           IAOLAD         SINGLEPASS  [  1]    ***   
       AV_SCF               IAVSCF         OFF         [  0]    ***   
       BASIS                IBASIS         SPECIAL     [  0]    ***   
       BOTHVECTORS          BOTHVC         OFF         [  0]    ***   
       BOX_POTENT           IPIAB          OFF         [  0]    ***   
       BREIT                IBREIT         OFF         [  0]    ***   
       BRUCK_CONV           IBRTOL          10D-  4             ***   
       BRUECKNER            IBRKNR         OFF         [  0]    ***   
       BUFFERSIZE           IBUFFS              4096            ***   
       CACHE_RECS           ICHREC             10               ***   
       CALCLEVEL            ICLLVL         CCSD        [ 10]    ***   
       CCORBOPT             ICCORB         OFF         [  0]  x 0.01  
       CC_CONV              ICCCNV          10D-  7             ***   
       CC_EXPORDER          ICCEOR              5               ***   
       CC_EXTRAPOL          ICCEXT         DIIS        [  1]    ***   
       CC_GUESS             ICCGES         MP2         [  0]    ***   
       CC_MAXCYC            ICCCYC            100              cycles 
       CC_PROGRAM           ICCPRO         VCC         [  0]    ***   
       CHARGE               ICHRGE             -1               ***   
       CHOLESKY             ICHOLE         OFF         [  0]    ***   
       CIS_CONV             ICISTL              5               ***   
       COMM_SIZE            IPSIZE            ***               ***   
       CONSTANT             ICONST         OLD         [  1]    ***   
       CONTINUUM            ICONTU         NONE        [  0]    ***   
       CONTRACTION          ICNTYP         GENERAL     [  1]    ***   
       COORDINATES          ICOORD         CARTESIAN   [  1]    ***   
       CPHF_CONVER          ICPHFT          10D- 16             ***   
       CPHF_MAXCYC          ICPHFC             64              cycles 
       CUBIC                ICUBIC         OFF         [  0]    ***   
       CURVILINEAR          ICURVY         OFF         [  0]    ***   
       DBOC                 IDBOC          OFF         [  0]    ***   
       DCT                  IDCT           OFF         [  0]    ***   
       DERIV_LEV            IDRLVL         ZERO        [  0]    ***   
       DEVMEM_SIZE          IDVMEM         *********           MByte  
       DIAG_MRCC            IEOMST          10D-  0             ***   
       DIFF_TYPE            IDIFTY         RELAXED     [  0]    ***   
       DIRECT               IDIRCT         OFF         [  0]    ***   
       DROPMO               IDRPMO      NONE         
       ECP                  IECP           OFF         [  0]    ***   
       EIGENVECTOR          IVEC                1               ***   
       EL_ANHARM            IELANH         OFF         [  0]    ***   
       EOMFOLLOW            IEOMSR         ENERGY      [  0]    ***   
       EOMIP                IEOMIP         OFF         [  0]    ***   
       EOMLEVEL             HBARFM         SAME        [  0]    ***   
       EOM_MRCC             IMRCCE         NEW         [  1]    ***   
       EOM_NONIT            EOMNON         OFF         [  0]    ***   
       EOM_NSING            IEOMSI          10D-  0             ***   
       EOM_NSTATES          IMRCCD         DAVIDSON    [  0]    ***   
       EOM_NTRIP            IEOMTR          10D-  0             ***   
       EOM_ORDER            IEXORD         ENERGY      [  0]    ***   
       EOM_PROPSTA          IEOMST              0               ***   
       ESTATE_CONV          IEXTOL          10D-  5             ***   
       ESTATE_DIAG          IEXDIG         ITERATIVE   [  0]    ***   
       ESTATE_LOCK          IESLOC         ON          [  1]    ***   
       ESTATE_MAXC          IEXMXC             40               ***   
       ESTATE_PROP          IEXPRP         OFF         [  0]    ***   
       ESTATE_SYM           IEXSYM   0,  3,  0,  0,
       EVAL_HESS            IRECAL              0            # of cyc.
       EXCITATION           IEXCIT              0               ***   
       EXCITE               IEXCIT         EOMEE       [  3]    ***   
       EXTERN_POT           IEXPOT         OFF         [  0]    ***   
       FCGRADNEW            IFCGNW         OFF         [  0]    ***   
       FC_FIELD             IFINFC              0             x 10-6  
       FD_CALTYPE           IFDCAL         GRADONLY    [  0]    ***   
       FD_PROJECT           IFDPRJ         OFF         [  1]    ***   
       FD_STEPSIZE          IDISFD              0            10-4 bohr
       FD_USEGROUP          IFDGRP         FULL        [  0]    ***   
       FILE_RECSIZ          IFLREC              4096           words  
       FINITE_PERT          IFIPER              0             x 10-6  
       FIXGEOM              IFIXGM         OFF         [  0]    ***   
       FOCK                 IFOCK          AO          [  1]    ***   
       FREQ_ALGORI          IVIALG         STANDARD    [  0]    ***   
       FROZEN_CORE          IFROCO         OFF         [  0]    ***   
       GAMMA_ABCD           IGABCD         STORE       [  0]    ***   
       GAMMA_ABCI           IGABCI         STORE       [  0]    ***   
       GENBAS_1             IGNBS1              0               ***   
       GENBAS_2             IGNBS2              0               ***   
       GENBAS_3             IGNBS3              0               ***   
       GENBAS_4             IGNBS4              0               ***   
       GEO_CONV             ICONTL              5              H/bohr 
       GEO_MAXCYC           IOPTCY             50               ***   
       GEO_MAXSTEP          IMXSTP            300            millibohr
       GEO_METHOD           INR            SINGLE_POINT[  5]    ***   
       GIAO                 IGIAO          OFF         [  1]    ***   
       GIMIC                IGIMIC         OFF         [  0]    ***   
       GRID                 IGRID          OFF         [  0]    ***   
       GRID_ALGO            IGALGO         SERIAL      [  0]    ***   
       GUESS                IGUESS         MOREAD      [  0]    ***   
       HBAR                 IHBAR          ON          [  1]    ***   
       HESS_TYPE            IHESTP         SCF         [  0]    ***   
       HF2_FILE             IHF2Fl         USE         [  1]    ***   
       HFSTABILITY          ISTABL         OFF         [  0]    ***   
       INCORE               INCORE         OFF         [  0]    ***   
       INPUT_MRCC           IMRCC          ON          [  1]    ***   
       INTEGRALS            INTTYP         VMOL        [  1]    ***   
       JODA_PRINT           IJPRNT              0               ***   
       KEYWORD_OUT          IDMPKW         NO          [  0]    ***   
       LINDEP_TOL           ILINDP              8               ***   
       LINEQ_CONV           IZTACN          10D-  7           cycles  
       LINEQ_EXPOR          ILMAXD              5               ***   
       LINEQ_MAXCY          ILMAXC            100               ***   
       LINEQ_TYPE           ILTYPE         DIIS        [  1]    ***   
       LOCK_ORBOCC          ILOCOC         OFF         [  0]    ***   
       MEMORY_SIZE          IMEMSZ         *********           words  
       MEM_UNIT             IMEMU          GB          [  3]    ***   
       MRCC                 IMRCCC         OFF         [  0]    ***   
       MULTIPLICTY          IMULTP              1               ***   
       NACOUPLING           IVCOUP         OFF         [  0]    ***   
       NEGEVAL              IDIE           ABORT       [  0]    ***   
       NEWNORM              INEWNO         OFF         [  0]    ***   
       NON-HF               INONHF         OFF         [  0]    ***   
       NTOP_TAMP            ITOPT2             15               ***   
       NUC_MODEL            INUCMO         POINT       [  0]    ***   
       OCCUPATION           IOCCU   ESTIMATED BY SCF 
       OPEN-SHELL           IOPEN          SPIN-ORBITAL[  0]    ***   
       OPTVIB               IOPTVB         OFF         [  0]    ***   
       ORBITALS             IORBTP         STANDARD    [  0]    ***   
       PARALLEL             IPARAL         ON          [  1]    ***   
       PARA_INT             IPINTS         ON          [  1]    ***   
       PARA_PRINT           IPPRIN              0               ***   
       PERT_ORB             IPTORB         STANDARD    [  0]    ***   
       POINTS               IGRDFD              0               ***   
       PRINT                IPRNT               0               ***   
       PROPS                IPROPS         OFF         [  0]    ***   
       PROP_INTEGR          IINTYP         INTERNAL    [  0]    ***   
       PSI                  IPSI           OFF         [  0]    ***   
       QC_ALG               IQCALG         FLM         [  0]    ***   
       QC_LINALG            IQCLIN         TRIDIAG     [  2]    ***   
       QC_MAXCYC            IQCMAX          10D-100           cycles  
       QC_MAXSCFCY          IQCMSC          10D- 15           cycles  
       QC_RTRUST            IQCRTR          10D-  0           x 10-3  
       QC_SKIPSCF           IQCSKI         OFF         [  0]    ***   
       QC_START             IQCSTA          10D-  1             ***   
       QRHFGUESS            IQGUES         OFF         [  0]    ***   
       QUARTIC              IQUART         OFF         [  0]    ***   
       RAMAN_INT            IRAMIN         OFF         [  0]    ***   
       RAMAN_ORB            IRAMRE         UNRELAXED   [  0]    ***   
       RDO                  IRDOFM         OFF         [  0]    ***   
       REDUCE_REPR          REDREP         Ir          [  0]    ***   
       REFERENCE            IREFNC         RHF         [  0]    ***   
       RELATIVIST           IRELAT         OFF         [  0]    ***   
       RELAX_DENS           IRDENS         OFF         [  0]    ***   
       RESET_FLAGS          IRESET         OFF         [  0]    ***   
       RESTART_CC           ICCRES         OFF         [  0]    ***   
       ROT_EVEC             ROTVEC              0               ***   
       SAVE_INTS            ISVINT         OFF         [  0]    ***   
       SCALE_ON             ISTCRT              0               ***   
       SCF_CONV             ISCFCV          10D-  7             ***   
       SCF_DAMPING          IDAMP               0             x 10-3  
       SCF_EXPORDE          IRPPOR              6               ***   
       SCF_EXPSTAR          IRPPLS              8               ***   
       SCF_EXTRAPO          IRPP           ON          [  1]    ***   
       SCF_MAXCYC           ISCFCY            150              cycles 
       SCF_NOSTOP           ISCFST         OFF         [  0]    ***   
       SCF_PRINT            ISCFPR              0               ***   
       SCF_PROG             ISCFPR         SCF         [  0]    ***   
       SD_FIELD             IFINSD              0             x 10-6  
       SOPERT               IPERSO         OFF         [  0]    ***   
       SPHERICAL            IDFGHI         ON          [  1]    ***   
       SPINORBIT            ISOCAL         OFF         [  0]    ***   
       SPINROTATIO          ISRCON         OFF         [  0]    ***   
       SPIN_FLIP            ISPFLP         OFF         [  0]    ***   
       SPIN_ORBIT           ISPORB         OFF         [  0]    ***   
       SPIN_SCAL            ISCSMP         OFF         [  0]    ***   
       STEEPSCALE           ISTPSC              1000          x 10-3  
       SUBGROUP             ISUBGP         DEFAULT     [  0]    ***   
       SUBGRPAXIS           ISBXYZ         X           [  0]    ***   
       SYMMETRY             ISYM           ON          [  0]    ***   
       SYM_CHECK            ISYMCK         OVERRIDE    [  1]    ***   
       T3_EXTRAPOL          IT3EXT         OFF         [  0]    ***   
       T4_EXTRAPOL          IT4EXP         OFF         [  0]    ***   
       TAMP_SUM             IEVERY              5               ***   
       TESTSUITE            ITESTS         OFF         [  0]    ***   
       THERMOCH             ITHERM         OFF         [  0]    ***   
       TOL_CHOLESK          ITOLCH          10D-  4             ***   
       TRANGRAD             IRESRM         OFF         [  0]    ***   
       TRANS_INV            ITRAIN         USE         [  0]    ***   
       TREAT_PERT           ITREAT         SIMULTANEOUS[  0]    ***   
       TRIP_ALGORI          ITRALG         NORMAL      [  0]    ***   
       UIJ_THRESHO          IUIJTH              1               ***   
       UNITS                IUNITS         ANGSTROM    [  0]    ***   
       UNOS                 IUNOS          OFF         [  0]    ***   
       UPDATE_HESS          IHUPDT         ON          [  1]    ***   
       VIBPHASE             ISETPH         STANDARD    [  0]    ***   
       VIBRATION            IVIB           NO          [  0]    ***   
       VIB_ALGORIT          IGEALG         STANDARD    [  0]    ***   
       VNATORB              IVNORB         OFF         [  0]    ***   
       VTRAN                IVTRAN         FULL/PARTIAL[  0]    ***   
       XFIELD               IXEFLD              0             x 10-6  
       XFORM_TOL            IXFTOL          10D- 11             ***   
       YFIELD               IYEFLD              0             x 10-6  
       ZFIELD               IZEFLD              0             x 10-6  
       ZSCALE_EXP           IZEXPS         OFF         [  0]    ***   
    -------------------------------------------------------------------
  @GETXYZ-I,     7 atoms read from ZMAT.
   Rotational constants (in cm-1): 
          0.7250775143             0.8536890782             1.5367730835
   Rotational constants (in MHz): 
      21737.2800720177         25592.9582983936         46071.3044640815
********************************************************************************
   The full molecular point group is C2v .
   The largest Abelian subgroup of the full molecular point group is C2v .
   The computational point group is C2v .
********************************************************************************


 ----------------------------------------------------------------
         Coordinates used in calculation (QCOMP) 
 ----------------------------------------------------------------
 Z-matrix   Atomic            Coordinates (in bohr)
  Symbol    Number           X              Y              Z
 ----------------------------------------------------------------
     C         6         0.00000000    -1.25572327     0.17886655
     C         6         0.00000000     1.25572327     0.17886655
     H         1         1.81857454    -2.19034422     0.17886655
     H         1         1.81857454     2.19034422     0.17886655
     H         1        -1.81857454    -2.19034422     0.17886655
     H         1        -1.81857454     2.19034422     0.17886655
     H         1         0.00000000     0.00000000    -4.97493305
 ----------------------------------------------------------------
 
   Interatomic distance matrix (Angstroms) 
 
                 C             C             H             H             H    
                [ 1]        [ 2]        [ 3]        [ 4]        [ 5]
  C    [ 1]     0.00000
  C    [ 2]     1.32900     0.00000
  H    [ 3]     1.08200     2.06193     0.00000
  H    [ 4]     2.06193     1.08200     2.31816     0.00000
  H    [ 5]     1.08200     2.06193     1.92470     3.01303     0.00000
  H    [ 6]     2.06193     1.08200     3.01303     1.92470     2.31816
  H    [ 7]     2.80706     2.80706     3.11570     3.11570     3.11570
 
                 H             H    
                [ 6]        [ 7]
  H    [ 6]     0.00000
  H    [ 7]     3.11570     0.00000
 rotcon2
   Rotational constants (in cm-1): 
          0.7250775143             1.5367730835             0.8536890782
   Rotational constants (in MHz): 
      21737.2800720177         46071.3044640815         25592.9582983935
  ECPDATA file not present.   Using default ECPDATA. 
  There are   57 basis functions.
 @GEOPT-W, Archive file not created for single-point calculation.
 @CHECKOUT-I, Total execution time (CPU/WALL):        0.14/       0.15 seconds.
--executable xjoda finished with status     0 in        0.17 seconds (walltime).
 --invoking executable--
/home/tsommerfeld/zscale/bin/xvmol
 SERIAL VERSION OF MOLECULE STARTED
********************************************************************************
                    INPUT FROM MOL FILE
********************************************************************************
INTGRL        1    0    1    0    0    0    0    0    0                         
         *** CFOUR Program System (Release V0.1) ***                            
h_ethylene                                                                      
    3    2 X  Y       0.10E-08              0    0                              
   9999.00      3.00                                                            
          6.00000000    1    3    1    1    1                                   
C #1   0.000000000000000  -1.255723272983657   0.178866554442893                
    9    3                                                                      
   6665.00000000000       6.920000000000000E-004 -1.460000000000000E-004        
  0.000000000000000E+000                                                        
   1000.00000000000       5.329000000000000E-003 -1.154000000000000E-003        
  0.000000000000000E+000                                                        
   228.000000000000       2.707700000000000E-002 -5.725000000000000E-003        
  0.000000000000000E+000                                                        
   64.7100000000000       0.101718000000000      -2.331200000000000E-002        
  0.000000000000000E+000                                                        
   21.0600000000000       0.274740000000000      -6.395500000000000E-002        
  0.000000000000000E+000                                                        
   7.49500000000000       0.448564000000000      -0.149981000000000             
  0.000000000000000E+000                                                        
   2.79700000000000       0.285074000000000      -0.127262000000000             
  0.000000000000000E+000                                                        
  0.521500000000000       1.520400000000000E-002  0.544529000000000             
  0.000000000000000E+000                                                        
  0.159600000000000      -3.191000000000000E-003  0.580496000000000             
   1.00000000000000                                                             
    4    2                                                                      
   9.43900000000000       3.810900000000000E-002  0.000000000000000E+000        
   2.00200000000000       0.209480000000000       0.000000000000000E+000        
  0.545600000000000       0.508557000000000       0.000000000000000E+000        
  0.151700000000000       0.468842000000000        1.00000000000000             
    1    1                                                                      
  0.550000000000000        1.00000000000000                                     
          1.00000000    1    2    1    1                                        
H #2   1.818574537711477  -2.190344215575466   0.178866554442893                
    4    2                                                                      
   13.0100000000000       1.968500000000000E-002  0.000000000000000E+000        
   1.96200000000000       0.137977000000000       0.000000000000000E+000        
  0.444600000000000       0.478148000000000       0.000000000000000E+000        
  0.122000000000000       0.501240000000000        1.00000000000000             
    1    1                                                                      
  0.727000000000000        1.00000000000000                                     
          1.00000000    1    2    1    1                                        
H #3   0.000000000000000   0.000000000000000  -4.974933047377987                
    5    3                                                                      
   13.0100000000000       1.968500000000000E-002  0.000000000000000E+000        
  0.000000000000000E+000                                                        
   1.96200000000000       0.137977000000000       0.000000000000000E+000        
  0.000000000000000E+000                                                        
  0.444600000000000       0.478148000000000       0.000000000000000E+000        
  0.000000000000000E+000                                                        
  0.122000000000000       0.501240000000000        1.00000000000000             
  0.000000000000000E+000                                                        
  2.974000000000000E-002  0.000000000000000E+000  0.000000000000000E+000        
   1.00000000000000                                                             
    2    2                                                                      
  0.727000000000000        1.00000000000000       0.000000000000000E+000        
  0.141000000000000       0.000000000000000E+000   1.00000000000000             
FINISH                                                                          
 
********************************************************************************
 ONE- AND TWO-ELECTRON INTEGRALS OVER SYMMETRY-ADAPTED AOS ARE CALCULATED.

  SPHERICAL HARMONICS ARE USED.
  
  INTEGRALS LESS THAN  0.10E-13 ARE NEGLECTED.

  NUCLEAR REPULSION ENERGY :   36.5307828356 A.U.
  @MOLECU-I, ONE ELECTRON INTEGRALS (CPU/WALL):        0.01/       0.01 SECONDS.
  @TWOEL-I,      29572 INTEGRALS OF SYMMETRY TYPE  I I I I
  @TWOEL-I,     102291 INTEGRALS OF SYMMETRY TYPE  I J I J
  @TWOEL-I,      58089 INTEGRALS OF SYMMETRY TYPE  I I J J
  @TWOEL-I,      75480 INTEGRALS OF SYMMETRY TYPE  I J K L
  @TWOEL-I, TOTAL NUMBER OF 2-E INTEGRALS     265432.
  @MOLECU-I, TWO ELECTRON INTEGRALS (CPU/WALL):        0.25/       0.26 SECONDS.
 @CHECKOUT-I, Total execution time (CPU/WALL):        0.27/       0.28 seconds.

Running with 8 threads/proc

--executable xvmol finished with status     0 in        0.30 seconds (walltime).
 --invoking executable--
/home/tsommerfeld/zscale/bin/xvmol2ja
 @GETMEM-I,  Allocated   85830 MB of main memory.
 @CHECKOUT-I, Total execution time (CPU/WALL):        0.02/       0.01 seconds.
--executable xvmol2ja finished with status     0 in        0.03 seconds (walltime).
 --invoking executable--
/home/tsommerfeld/zscale/bin/xvscf
  There are   57 functions in the AO basis.

  There are 4 irreducible representations.

       Irrep        # of functions
         1                 20
         2                 11
         3                 17
         4                  9


  Parameters for SCF calculation: 
        SCF reference function:  RHF  
  Maximum number of iterations:  150
     Full symmetry point group: C2v 
     Computational point group: C2v 
        Initial density matrix: MOREAD                 
     SCF convergence tolerance: 10**(- 7)
  DIIS convergence acceleration:  ON
          Latest start for DIIS:   8
                     DIIS order:   6

  Memory information:     156410 words required.
  Fock matrices are constructed from AO integral file.
 @GETMEM-I,  Allocated       1 MB of main memory.
  Initialization and symmetry analysis required      0.002 seconds.

  @INITGES-I, Occupancies from core Hamiltonian:

          Alpha population by irrep:   3    1    4    1
           Beta population by irrep:   3    1    4    1


 total no. of electrons in initial guess :  0.000000000000000E+000
  --------------------------------------------------------------------
  Iteration         Total Energy            Largest Density Difference
  --------------------------------------------------------------------
       0            36.530782835581356              0.0000000000D+00
   current occupation vector 
     3  1  4  1
     3  1  4  1
       1           -61.133429715503446              0.8838444096D+01
   current occupation vector 
     3  1  4  1
     3  1  4  1
       2           -60.515575988949415              0.8697550180D+01
   current occupation vector 
     4  1  3  1
     4  1  3  1
       3           -70.638135164600953              0.4520678479D+01
   current occupation vector 
     4  1  3  1
     4  1  3  1
       4           -63.899867375512777              0.4383451443D+01
   current occupation vector 
     4  2  3  0
     4  2  3  0
       5           -71.797849135429118              0.4383501772D+01
   current occupation vector 
     4  1  3  1
     4  1  3  1
       6           -64.741476659999421              0.4340691158D+01
   current occupation vector 
     4  2  3  0
     4  2  3  0
       7           -72.076351639078155              0.4340691770D+01
   current occupation vector 
     4  1  3  1
     4  1  3  1
       8           -64.933224898290945              0.4329703366D+01
   current occupation vector 
     4  2  3  0
     4  2  3  0
       9           -77.028743534746894              0.4329659842D+01
   current occupation vector 
     4  1  3  1
     4  1  3  1
      10           -78.446173212867564              0.1306074627D+01
   current occupation vector 
     5  1  2  1
     5  1  2  1
      11           -78.490045764601433              0.4337948989D+00
   current occupation vector 
     5  1  2  1
     5  1  2  1
      12           -78.499368465753832              0.9966052179D-01
   current occupation vector 
     5  1  2  1
     5  1  2  1
      13           -78.500782369938690              0.5472279524D-01
   current occupation vector 
     5  1  2  1
     5  1  2  1
      14           -78.500807260246319              0.6946534108D-02
   current occupation vector 
     5  1  2  1
     5  1  2  1
      15           -78.500808036209236              0.1097889485D-02
   current occupation vector 
     5  1  2  1
     5  1  2  1
      16           -78.500808103762495              0.3728050793D-03
   current occupation vector 
     5  1  2  1
     5  1  2  1
      17           -78.500808106896045              0.5755713162D-04
   current occupation vector 
     5  1  2  1
     5  1  2  1
      18           -78.500808106965934              0.7543284131D-05
   current occupation vector 
     5  1  2  1
     5  1  2  1
      19           -78.500808106967355              0.1282453301D-05
   current occupation vector 
     5  1  2  1
     5  1  2  1
      20           -78.500808106967384              0.3172991173D-06
   current occupation vector 
     5  1  2  1
     5  1  2  1

  SCF has converged.

 Density matrix saved to file den.dat
 total electron number:   18.0000000000000     
     E(SCF)=       -78.500808106967156              0.4050928099D-07


  Final occupancies:

     Alpha population by irrep:   5    1    2    1
      Beta population by irrep:   5    1    2    1


  Eigenvector printing suppressed.

 @PUTMOS-I, Writing converged MOs to NEWMOS. 
 @PUTMOS-I, Symmetry   1 Full Blocks  5 Partial Blocksize   0
 @PUTMOS-I, Symmetry   2 Full Blocks  2 Partial Blocksize   3
 @PUTMOS-I, Symmetry   3 Full Blocks  4 Partial Blocksize   1
 @PUTMOS-I, Symmetry   4 Full Blocks  2 Partial Blocksize   1
 @PUTFOCK-I, Writing converged Fock matrix to NEWFOCK. 
 @PUTFOCK-I, Symmetry   1 Full Blocks  5 Partial Blocksize   0
 @PUTFOCK-I, Symmetry   2 Full Blocks  2 Partial Blocksize   3
 @PUTFOCK-I, Symmetry   3 Full Blocks  4 Partial Blocksize   1
 @PUTFOCK-I, Symmetry   4 Full Blocks  2 Partial Blocksize   1


 
  ORBITAL EIGENVALUES (ALPHA)  (1H = 27.2113834 eV)

       MO #        E(hartree)               E(eV)           FULLSYM    COMPSYM
       ----   --------------------   --------------------   -------   ---------
    1     1         -11.0734102858        -301.3228128321      A1        A1 (1)
    2    32         -11.0716978233        -301.2762143581      B2        B2 (3)
    3     2          -0.8771141886         -23.8674904713      A1        A1 (1)
    4    33          -0.6220341273         -16.9264091249      B2        B2 (3)
    5    21          -0.4991322760         -13.5820797307      B1        B1 (2)
    6     3          -0.4059597062         -11.0467252112      A1        A1 (1)
    7    49          -0.3568200058          -9.7095659837      A2        A2 (4)
    8     4          -0.2171419788          -5.9087336366      A1        A1 (1)
    9     5          -0.0284528109          -0.7742403465      A1        A1 (1)
  +++++++++++++++++++++++++++++++++++++++++++++++++++++++++++++++++++++++++++++
   10     6           0.2829462367           7.6993585277      A1        A1 (1)
   11    34           0.3301393541           8.9835485390      B2        B2 (3)
   12     7           0.3587718851           9.7626793189      A1        A1 (1)
   13    22           0.3678458061          10.0095932607      B1        B1 (2)
   14    35           0.3844301060          10.4608750035      B2        B2 (3)
   15    50           0.4391989844          11.9512119535      A2        A2 (4)
   16    23           0.5631836804          15.3250070524      B1        B1 (2)
   17    36           0.5740044094          15.6194540571      B2        B2 (3)
   18    37           0.6008944703          16.3511698130      B2        B2 (3)
   19     8           0.6069703682          16.5165034014      A1        A1 (1)
   20     9           0.7186039459          19.5542074840      A1        A1 (1)
   21    24           0.8216545062          22.3583557893      B1        B1 (2)
   22    10           0.8430418104          22.9403339250      A1        A1 (1)
   23    38           0.9489305263          25.8217123704      B2        B2 (3)
   24    11           0.9998877191          27.2083280823      A1        A1 (1)
   25    39           1.0117371458          27.5307673737      B2        B2 (3)
   26    25           1.0195611371          27.7436690006      B1        B1 (2)
   27    51           1.0912850233          29.6953751687      A2        A2 (4)
   28    12           1.0971304308          29.8544367916      A1        A1 (1)
   29    40           1.1218267448          30.5264576609      B2        B2 (3)
   30    26           1.2840381444          34.9404542488      B1        B1 (2)
   31    13           1.3171007722          35.8401340888      A1        A1 (1)
   32    41           1.4164979475          38.5448687345      B2        B2 (3)
   33    52           1.4448386155          39.3160575185      A2        A2 (4)
   34    14           1.4886816683          40.5090876378      A1        A1 (1)
   35    53           1.5020376749          40.8725230517      A2        A2 (4)
   36    15           1.7556022720          47.7723665226      A1        A1 (1)
   37    54           1.7687529134          48.1302136673      A2        A2 (4)
   38    27           1.8546879588          50.4686251336      B1        B1 (2)
   39    42           2.0027037111          54.4963385196      B2        B2 (3)
   40    43           2.0341456979          55.3519184777      B2        B2 (3)
   41    16           2.0781452536          56.5492072553      A1        A1 (1)
   42    17           2.1304511788          57.9725238425      A1        A1 (1)
   43    28           2.1396943154          58.2240423762      B1        B1 (2)
   44    29           2.1666292355          58.9569788122      B1        B1 (2)
   45    44           2.1741773237          59.1623727345      B2        B2 (3)
   46    30           2.1778441109          59.2621510866      B1        B1 (2)
   47    18           2.2341437869          60.7941431570      A1        A1 (1)
   48    45           2.3299547226          63.4012912601      B2        B2 (3)
   49    46           2.4299352713          66.1219003044      B2        B2 (3)
   50    55           2.5741677902          70.0466666739      A2        A2 (4)
   51    19           2.5796092149          70.1947353680      A1        A1 (1)
   52    56           2.6437815218          71.9409526168      A2        A2 (4)
   53    47           2.6904555948          73.2110187096      B2        B2 (3)
   54    31           2.9454494039          80.1497530143      B1        B1 (2)
   55    20           2.9487526639          80.2396392880      A1        A1 (1)
   56    48           3.3954595735          92.3951522739      B2        B2 (3)
   57    57           3.4964697287          95.1437783334      A2        A2 (4)


  VSCF finished.

 @CHECKOUT-I, Total execution time (CPU/WALL):        0.24/       0.11 seconds.
--executable xvscf finished with status     0 in        0.13 seconds (walltime).
 --invoking executable--
/home/tsommerfeld/zscale/bin/xvtran
 @GETMEM-I,  Allocated   85830 MB of main memory.
  Full RHF integral transformation
  Transformation of IIII integrals :
  1 pass through the AO integral file was required.
       29572 AO integrals were read.
       37182 MO integrals were written to HF2.
  Transformation of IIJJ integrals :
  1 pass through the AO integral file was required.
       58089 AO integrals were read.
       75393 MO integrals were written to HF2.
  Transformation of IJIJ integrals :
  1 pass through the AO integral file was required.
      102291 AO integrals were read.
      132879 MO integrals were written to HF2.
  Transformation of IJKL integrals :
  1 pass through the AO integral file was required.
       75480 AO integrals were read.
      100980 MO integrals were written to HF2.
  Summary of active molecular orbitals: 
------------------------------------------------------------------------
 
  Index      Eigenvalue    Symmetry    Index      Eigenvalue    Symmetry
------------------------------------------------------------------------
     1       -11.0734103        1        30         1.8546880        2
     2        -0.8771142        1        31         2.1396943        2
     3        -0.4059597        1        32         2.1666292        2
     4        -0.2171420        1        33         2.1778441        2
     5        -0.0284528        1        34         2.9454494        2
     6        -0.4991323        2        35         0.3301394        3
     7       -11.0716978        3        36         0.3844301        3
     8        -0.6220341        3        37         0.5740044        3
     9        -0.3568200        4        38         0.6008945        3
    10         0.2829462        1        39         0.9489305        3
    11         0.3587719        1        40         1.0117371        3
    12         0.6069704        1        41         1.1218267        3
    13         0.7186039        1        42         1.4164979        3
    14         0.8430418        1        43         2.0027037        3
    15         0.9998877        1        44         2.0341457        3
    16         1.0971304        1        45         2.1741773        3
    17         1.3171008        1        46         2.3299547        3
    18         1.4886817        1        47         2.4299353        3
    19         1.7556023        1        48         2.6904556        3
    20         2.0781453        1        49         3.3954596        3
    21         2.1304512        1        50         0.4391990        4
    22         2.2341438        1        51         1.0912850        4
    23         2.5796092        1        52         1.4448386        4
    24         2.9487527        1        53         1.5020377        4
    25         0.3678458        2        54         1.7687529        4
    26         0.5631837        2        55         2.5741678        4
    27         0.8216545        2        56         2.6437815        4
    28         1.0195611        2        57         3.4964697        4
    29         1.2840381        2
------------------------------------------------------------------------
  -11.0734102857887      -0.877114188590711      -0.405959706229998     
 -0.217141978773689      -2.845281090893061E-002 -0.499132276043004     
  -11.0716978232741      -0.622034127265569      -0.356820005839257     
  0.282946236674922       0.358771885110517       0.606970368196256     
  0.718603945875037       0.843041810397678       0.999887719132932     
   1.09713043077488        1.31710077219958        1.48868166834074     
   1.75560227204779        2.07814525355181        2.13045117884511     
   2.23414378693473        2.57960921486869        2.94875266385837     
  0.367845806055763       0.563183680413471       0.821654506154884     
   1.01956113707273        1.28403814444934        1.85468795877599     
   2.13969431543821        2.16662923547750        2.17784411087869     
   2.94544940387953       0.330139354069558       0.384430105950588     
  0.574004409386938       0.600894470251420       0.948930526272452     
   1.01173714577590        1.12182674479137        1.41649794749046     
   2.00270371110805        2.03414569792476        2.17417732368889     
   2.32995472255422        2.42993527129598        2.69045559475555     
   3.39545957350676       0.439198984404583        1.09128502333558     
   1.44483861553625        1.50203767485248        1.76875291343424     
   2.57416779015554        2.64378152184733        3.49646972867399     
 @CHECKOUT-I, Total execution time (CPU/WALL):        0.55/       0.09 seconds.
--executable xvtran finished with status     0 in        0.11 seconds (walltime).
 --invoking executable--
/home/tsommerfeld/zscale/bin/xintprc
 @GETMEM-I,  Allocated   85830 MB of main memory.
  Processing integrals for CCSD calculation.
  @GMOIAA-I, Processing MO integrals for spin case AA.
  @GMOIAA-I, Generation of integral list completed.
                      TYPE                NUMBER
                      ----               --------
                      PPPP                174781
                      PPPH                128448
                      PPHH                 24003
                      PHPH                 13755
                      PHHH                  5115
                      HHHH                   332

                     TOTAL                346434

  @FORMT2-I, Second-order MP correlation energies:
            ------------------------------------------------
            E(SCF)                  =    -78.500808106967 a.u.
            E2(AA)                  =     -0.032158399377 a.u.
            E2(AB)                  =     -0.247367977917 a.u.
            E2(TOT)                 =     -0.311684776670 a.u.
            Total MP2 energy        =    -78.812492883637 a.u.
            ------------------------------------------------
   Largest T2 amplitudes for spin case AB:
       _       _                 _       _                 _       _
   i   j   a   b             i   j   a   b             i   j   a   b
-----------------------------------------------------------------------------
[  5   5  10  10]-0.08814 [  4   4  35  35]-0.08766 [  5   5  26  26]-0.04221
[  5   5  12  12]-0.03213 [  5   5  37  37]-0.02808 [  4   3  35  41] 0.02648
[  3   4  41  35] 0.02648 [  4   4  14  14]-0.02621 [  5   5  15  10] 0.02449
[  5   5  10  15] 0.02449 [  3   3  41  41]-0.02288 [  5   5  16  10] 0.02274
[  5   5  10  16] 0.02274 [  4   4  35  40] 0.02270 [  4   4  40  35] 0.02270
-----------------------------------------------------------------------------
   Norm of T2AB vector (    47574 symmetry allowed elements):  0.3192811993.
-----------------------------------------------------------------------------
 @CHECKOUT-I, Total execution time (CPU/WALL):        0.39/       0.09 seconds.
--executable xintprc finished with status     0 in        0.11 seconds (walltime).
  calling xvcc 
 --invoking executable--
/home/tsommerfeld/zscale/bin/xvcc
 @GETMEM-I,  Allocated   85830 MB of main memory.
   CCSD energy will be calculated.
   The total correlation energy is -0.311684776670 a.u.
   The total correlation energy is -0.337014885424 a.u.
  Convergence information after     1 iterations: 
  Largest element of residual vector : -0.33784605E-01.
  Largest element of DIIS residual   : -0.33784605E-01.
   The total correlation energy is -0.347075217358 a.u.
  Convergence information after     2 iterations: 
  Largest element of residual vector : -0.16401067E-01.
  Largest element of DIIS residual   : -0.98428712E-02.
   The total correlation energy is -0.351130763072 a.u.
  Convergence information after     3 iterations: 
  Largest element of residual vector : -0.63223869E-02.
  Largest element of DIIS residual   : -0.45816675E-02.
   The total correlation energy is -0.352286709298 a.u.
  Convergence information after     4 iterations: 
  Largest element of residual vector : -0.28126701E-02.
  Largest element of DIIS residual   : -0.13732973E-02.
   The total correlation energy is -0.352484373455 a.u.
  Convergence information after     5 iterations: 
  Largest element of residual vector : -0.76696802E-03.
  Largest element of DIIS residual   : -0.37089349E-03.
   The total correlation energy is -0.352476527064 a.u.
  Convergence information after     6 iterations: 
  Largest element of residual vector : -0.19761356E-03.
  Largest element of DIIS residual   :  0.17678627E-03.
   The total correlation energy is -0.352463504833 a.u.
  Convergence information after     7 iterations: 
  Largest element of residual vector : -0.85717670E-04.
  Largest element of DIIS residual   :  0.36391004E-04.
   The total correlation energy is -0.352457630663 a.u.
  Convergence information after     8 iterations: 
  Largest element of residual vector :  0.30168244E-04.
  Largest element of DIIS residual   : -0.21793041E-04.
   The total correlation energy is -0.352457431653 a.u.
  Convergence information after     9 iterations: 
  Largest element of residual vector : -0.85176981E-05.
  Largest element of DIIS residual   : -0.76489710E-05.
   The total correlation energy is -0.352457833382 a.u.
  Convergence information after    10 iterations: 
  Largest element of residual vector : -0.43839885E-05.
  Largest element of DIIS residual   : -0.37741735E-05.
   The total correlation energy is -0.352458304680 a.u.
  Convergence information after    11 iterations: 
  Largest element of residual vector : -0.24975275E-05.
  Largest element of DIIS residual   : -0.17320708E-05.
   The total correlation energy is -0.352458630589 a.u.
  Convergence information after    12 iterations: 
  Largest element of residual vector : -0.11471244E-05.
  Largest element of DIIS residual   : -0.67009112E-06.
   The total correlation energy is -0.352458736173 a.u.
  Convergence information after    13 iterations: 
  Largest element of residual vector : -0.34174340E-06.
  Largest element of DIIS residual   : -0.28299734E-06.
   The total correlation energy is -0.352458745406 a.u.
  Convergence information after    14 iterations: 
  Largest element of residual vector : -0.19229687E-06.
  Largest element of DIIS residual   :  0.11959600E-06.
   The total correlation energy is -0.352458742935 a.u.
  Convergence information after    15 iterations: 
  Largest element of residual vector : -0.72323806E-07.
  Largest element of DIIS residual   :  0.49015814E-07.
  Amplitude equations converged in    15iterations.
   The total correlation energy is -0.352458739750 a.u.
   The CC iterations have converged.

   Largest T1 amplitudes for spin case AA:
   i       a                 i       a                 i       a    
-----------------------------------------------------------------------------
[  5      10    ]-0.02940 [  4      14    ]-0.01891 [  4      18    ] 0.01558
[  4      15    ] 0.00953 [  4      10    ] 0.00893 [  5      14    ]-0.00862
[  5      16    ]-0.00833 [  5      18    ] 0.00719 [  5      17    ] 0.00682
[  6      27    ]-0.00653 [  5      15    ]-0.00576 [  5      12    ] 0.00488
[  9      50    ]-0.00452 [  9      56    ] 0.00449 [  3      13    ]-0.00449
-----------------------------------------------------------------------------
   Norm of T1AA vector (      123 symmetry allowed elements):  0.0480807416.
-----------------------------------------------------------------------------
   Largest T2 amplitudes for spin case AB:
       _       _                 _       _                 _       _
   i   j   a   b             i   j   a   b             i   j   a   b
-----------------------------------------------------------------------------
[  5   5  10  10]-0.16355 [  4   4  35  35]-0.12781 [  5   5  26  26]-0.05907
[  5   5  15  10] 0.04631 [  5   5  10  15] 0.04631 [  5   5  16  10] 0.04304
[  5   5  10  16] 0.04304 [  5   5  12  12]-0.04299 [  5   5  37  37]-0.03837
[  4   4  40  35] 0.03169 [  4   4  35  40] 0.03169 [  5   4  35  35]-0.03053
[  4   5  35  35]-0.03053 [  5   5  38  37] 0.02559 [  5   5  37  38] 0.02559
-----------------------------------------------------------------------------
   Norm of T2AB vector (    47574 symmetry allowed elements):  0.4150947067.
-----------------------------------------------------------------------------
       Summary of iterative solution of CC equations 
      -----------------------------------------------------------
                       Correlation           Total
       Iteration         Energy              Energy
      -----------------------------------------------------------
            0        -0.311684776670     -78.812492883637  DIIS 
            1        -0.337014885424     -78.837822992391  DIIS 
            2        -0.347075217358     -78.847883324325  DIIS 
            3        -0.351130763072     -78.851938870039  DIIS 
            4        -0.352286709298     -78.853094816265  DIIS 
            5        -0.352484373455     -78.853292480422  DIIS 
            6        -0.352476527064     -78.853284634031  DIIS 
            7        -0.352463504833     -78.853271611800  DIIS 
            8        -0.352457630663     -78.853265737630  DIIS 
            9        -0.352457431653     -78.853265538620  DIIS 
           10        -0.352457833382     -78.853265940350  DIIS 
           11        -0.352458304680     -78.853266411647  DIIS 
           12        -0.352458630589     -78.853266737556  DIIS 
           13        -0.352458736173     -78.853266843140  DIIS 
           14        -0.352458745406     -78.853266852373  DIIS 
           15        -0.352458739750     -78.853266846717  DIIS 
      -----------------------------------------------------------
      A miracle has come to pass. The CC iterations have converged.
      The reference energy is       -78.50080810696716 a.u.
      The correlation energy is      -0.35245873974986 a.u.
      The total energy is           -78.85326684671702 a.u.
 @CHECKOUT-I, Total execution time (CPU/WALL):        5.30/       0.67 seconds.
--executable xvcc finished with status     0 in        0.69 seconds (walltime).
 --invoking executable--
/home/tsommerfeld/zscale/bin/xlambda
 @GETMEM-I,  Allocated   85830 MB of main memory.
 Hbar is calculated for a CCSD wave function.
 Calculation of Hbar completed.
 @CHECKOUT-I, Total execution time (CPU/WALL):        0.89/       0.12 seconds.
--executable xlambda finished with status     0 in        0.14 seconds (walltime).
 --invoking executable--
/home/tsommerfeld/zscale/bin/xvee
 @GETMEM-I,  Allocated   85830 MB of main memory.
  cc2 and ccprog  F                     0
  EOMEE-CCSD excitation energies will be evaluated.
  @SETMET-I, VPROP property integrals are used.
  @SETMET-I, A total of   3 target states will be studied.
  Summary of active alpha molecular orbitals:
------------------------------------------------------------------------------
Orbital      Sym   Eigenvalue  <xx>     <yy>     <zz>     <xy>     <xz>     <yz>
        SCF
  #  position
------------------------------------------------------------------------------
   1      1    1     -11.0734   0.000    0.000    0.000    0.000    0.000    0.000
   2      3    1      -0.8771   0.000    0.000    0.000    0.000    0.000    0.000
   3      6    1      -0.4060   0.000    0.000    0.000    0.000    0.000    0.000
   4      8    1      -0.2171   0.000    0.000    0.000    0.000    0.000    0.000
   5      9    1      -0.0285   0.000    0.000    0.000    0.000    0.000    0.000
   6      5    2      -0.4991   0.000    0.000    0.000    0.000    0.000    0.000
   7      2    3     -11.0717   0.000    0.000    0.000    0.000    0.000    0.000
   8      4    3      -0.6220   0.000    0.000    0.000    0.000    0.000    0.000
   9      7    4      -0.3568   0.000    0.000    0.000    0.000    0.000    0.000
  10     10    1       0.2829   0.000    0.000    0.000    0.000    0.000    0.000
  11     12    1       0.3588   0.000    0.000    0.000    0.000    0.000    0.000
  12     19    1       0.6070   0.000    0.000    0.000    0.000    0.000    0.000
  13     20    1       0.7186   0.000    0.000    0.000    0.000    0.000    0.000
  14     22    1       0.8430   0.000    0.000    0.000    0.000    0.000    0.000
  15     24    1       0.9999   0.000    0.000    0.000    0.000    0.000    0.000
  16     28    1       1.0971   0.000    0.000    0.000    0.000    0.000    0.000
  17     31    1       1.3171   0.000    0.000    0.000    0.000    0.000    0.000
  18     34    1       1.4887   0.000    0.000    0.000    0.000    0.000    0.000
  19     36    1       1.7556   0.000    0.000    0.000    0.000    0.000    0.000
  20     41    1       2.0781   0.000    0.000    0.000    0.000    0.000    0.000
  21     42    1       2.1305   0.000    0.000    0.000    0.000    0.000    0.000
  22     47    1       2.2341   0.000    0.000    0.000    0.000    0.000    0.000
  23     51    1       2.5796   0.000    0.000    0.000    0.000    0.000    0.000
  24     55    1       2.9488   0.000    0.000    0.000    0.000    0.000    0.000
  25     13    2       0.3678   0.000    0.000    0.000    0.000    0.000    0.000
  26     16    2       0.5632   0.000    0.000    0.000    0.000    0.000    0.000
  27     21    2       0.8217   0.000    0.000    0.000    0.000    0.000    0.000
  28     26    2       1.0196   0.000    0.000    0.000    0.000    0.000    0.000
  29     30    2       1.2840   0.000    0.000    0.000    0.000    0.000    0.000
  30     38    2       1.8547   0.000    0.000    0.000    0.000    0.000    0.000
  31     43    2       2.1397   0.000    0.000    0.000    0.000    0.000    0.000
  32     44    2       2.1666   0.000    0.000    0.000    0.000    0.000    0.000
  33     46    2       2.1778   0.000    0.000    0.000    0.000    0.000    0.000
  34     54    2       2.9454   0.000    0.000    0.000    0.000    0.000    0.000
  35     11    3       0.3301   0.000    0.000    0.000    0.000    0.000    0.000
  36     14    3       0.3844   0.000    0.000    0.000    0.000    0.000    0.000
  37     17    3       0.5740   0.000    0.000    0.000    0.000    0.000    0.000
  38     18    3       0.6009   0.000    0.000    0.000    0.000    0.000    0.000
  39     23    3       0.9489   0.000    0.000    0.000    0.000    0.000    0.000
  40     25    3       1.0117   0.000    0.000    0.000    0.000    0.000    0.000
  41     29    3       1.1218   0.000    0.000    0.000    0.000    0.000    0.000
  42     32    3       1.4165   0.000    0.000    0.000    0.000    0.000    0.000
  43     39    3       2.0027   0.000    0.000    0.000    0.000    0.000    0.000
  44     40    3       2.0341   0.000    0.000    0.000    0.000    0.000    0.000
  45     45    3       2.1742   0.000    0.000    0.000    0.000    0.000    0.000
  46     48    3       2.3300   0.000    0.000    0.000    0.000    0.000    0.000
  47     49    3       2.4299   0.000    0.000    0.000    0.000    0.000    0.000
  48     53    3       2.6905   0.000    0.000    0.000    0.000    0.000    0.000
  49     56    3       3.3955   0.000    0.000    0.000    0.000    0.000    0.000
  50     15    4       0.4392   0.000    0.000    0.000    0.000    0.000    0.000
  51     27    4       1.0913   0.000    0.000    0.000    0.000    0.000    0.000
  52     33    4       1.4448   0.000    0.000    0.000    0.000    0.000    0.000
  53     35    4       1.5020   0.000    0.000    0.000    0.000    0.000    0.000
  54     37    4       1.7688   0.000    0.000    0.000    0.000    0.000    0.000
  55     50    4       2.5742   0.000    0.000    0.000    0.000    0.000    0.000
  56     52    4       2.6438   0.000    0.000    0.000    0.000    0.000    0.000
  57     57    4       3.4965   0.000    0.000    0.000    0.000    0.000    0.000
------------------------------------------------------------------------------
  @DRVTDA-I, Roots obtained by Davidson method.
  calling tda davidson                       6                     2
  after tda davidson                      6                     6
                     3                     3
  kroot is                      3
__________________________________________________________________________
    Tamm-Dancoff (CIS) Excitation Energies and Transition Moments

                Excitation         Transition Dipole         Oscillator
 Root  Symmetry  Energy         x           y           z     Strength
__________________________________________________________________________
   1       2    0.24138      0.0000      0.0000      0.0000  .00000000D+00
__________________________________________________________________________
 
__________________________________________________________________________
  TDA excitation ergy:             0.241375280779 a.u.    6.5682 eV
  Total TDA electronic energy:   -78.259432826188 a.u.
 
  Dominant contributions: 
  SCF eigenvalue ordering used in list below. 
--------------------------------------------------------------------------------
    I    j    A    b
--------------------------------------------------------------------------------
    9    0   13    0  -0.9772315765 AA  
    8    0   13    0  -0.1916293171 AA  
    9    0   16    0   0.0468041275 AA  
    8    0   26    0  -0.0372378284 AA  
    8    0   21    0   0.0280391987 AA  
    7    0   11    0   0.0271252126 AA  
    9    0   21    0   0.0262049451 AA  
    9    0   26    0  -0.0258501218 AA  
    7    0   14    0   0.0199359388 AA  
    6    0   13    0   0.0199247254 AA  
    8    0   16    0  -0.0166046286 AA  
    5    0   12    0   0.0158139380 AA  
    7    0   17    0  -0.0094145652 AA  
    4    0   15    0   0.0071916841 AA  
    8    0   30    0  -0.0071892347 AA  
--------------------------------------------------------------------------------
   2       2    0.33974      0.0000      0.0000      0.0000  .00000000D+00
__________________________________________________________________________
 
__________________________________________________________________________
  TDA excitation ergy:             0.339741692911 a.u.    9.2448 eV
  Total TDA electronic energy:   -78.161066414056 a.u.
 
  Dominant contributions: 
  SCF eigenvalue ordering used in list below. 
--------------------------------------------------------------------------------
    I    j    A    b
--------------------------------------------------------------------------------
    8    0   13    0  -0.9486003427 AA  
    9    0   13    0   0.1913753420 AA  
    7    0   11    0   0.1425621272 AA  
    9    0   16    0  -0.1385228698 AA  
    8    0   26    0  -0.1022556217 AA  
    8    0   21    0   0.0994610117 AA  
    8    0   16    0  -0.0411640798 AA  
    9    0   26    0  -0.0207503588 AA  
    9    0   21    0   0.0206889028 AA  
    7    0   25    0  -0.0123167705 AA  
    7    0   23    0  -0.0120047046 AA  
    6    0   13    0  -0.0119329444 AA  
    7    0   18    0   0.0107833047 AA  
    5    0   12    0  -0.0085386761 AA  
    7    0   14    0  -0.0084390014 AA  
--------------------------------------------------------------------------------
   3       2    0.36512      0.0000      0.0000      0.0000  .00000000D+00
__________________________________________________________________________
 
__________________________________________________________________________
  TDA excitation ergy:             0.365117225121 a.u.    9.9353 eV
  Total TDA electronic energy:   -78.135690881846 a.u.
 
  Dominant contributions: 
  SCF eigenvalue ordering used in list below. 
--------------------------------------------------------------------------------
    I    j    A    b
--------------------------------------------------------------------------------
    7    0   11    0  -0.8900939025 AA  
    9    0   16    0  -0.4273182658 AA  
    8    0   13    0  -0.0798726400 AA  
    7    0   25    0   0.0661208808 AA  
    7    0   17    0   0.0641377274 AA  
    7    0   23    0   0.0484374803 AA  
    7    0   14    0  -0.0402185769 AA  
    5    0   34    0  -0.0350490133 AA  
    7    0   18    0  -0.0349670661 AA  
    9    0   13    0  -0.0320046711 AA  
    8    0   16    0   0.0219482390 AA  
    5    0   10    0  -0.0213846514 AA  
    5    0   22    0   0.0199221363 AA  
    5    0   12    0  -0.0181566589 AA  
    5    0   31    0   0.0144618079 AA  
--------------------------------------------------------------------------------
__________________________________________________________________________
  @DOEOMEE-I, Excitation energies computed by the EOMEE-CCSD/CCSD-LR method.
  @DOEOMEE-I, right-hand eigenvectors will be computed.
  Beginning symmetry block   2.   3 roots requested.
  @DOEOMEE-I, Matrix dimension for diagonalization:    45852
  Creating initial guess for root
________________________________________________________________________
            Subspace          Eigenvalue           
 Iteration  Dimension   (a.u.)         (eV)       Overlap      Residual
________________________________________________________________________
  @NEWGES-I, Using TDA initial guess.
  1   1  0.3004141485D+00  0.8174684573D+01  0.0000000000D+00  0.1688767847D+01
  2   2  0.2347812489D+00  0.6388722580D+01  0.9407641169D+00  0.3201911932D+00
  3   3  0.2147365045D+00  0.5843277354D+01  0.9749788413D+00  0.5501708364D-01
  4   4  0.2108712541D+00  0.5738098544D+01  0.9968928976D+00  0.3728806217D-01
  5   5  0.2102045080D+00  0.5719955461D+01  0.9988164900D+00  0.9119683420D-02
  6   6  0.2101201424D+00  0.5717659754D+01  0.9999074731D+00  0.3110543382D-02
  L-O-C-K-I-N-G O-N R-O-O-T 
  7   7  0.2101274330D+00  0.5717858143D+01  0.9999928737D+00  0.8720390895D-03
  8   8  0.2101209448D+00  0.5717681590D+01  0.9999994007D+00  0.6664666850D-03
  9   9  0.2101201838D+00  0.5717660882D+01  0.9999996391D+00  0.1848383883D-03
 10  10  0.2101206941D+00  0.5717674766D+01  0.9999999667D+00  0.1161652595D-03
 11  11  0.2101204723D+00  0.5717668731D+01  0.9999999900D+00  0.2881745186D-04
 12  12  0.2101205822D+00  0.5717671722D+01  0.9999999995D+00  0.1135963709D-04
 13  13  0.2101206032D+00  0.5717672295D+01  0.9999999999D+00  0.3232752840D-05
  Converged eigenvalue:   0.210120603235192       a.u.
   Total EOMEE-CCSD electronic energy      -78.643146243481823 a.u.
  Converged eigenvector 
  SCF eigenvalue ordering used in list below. 
--------------------------------------------------------------------------------
    I    j    A    b
--------------------------------------------------------------------------------
    9    0   13    0   0.6535294382 AA  
    9    9   13   10   0.2132840884 ABAB
    9    9   10   13   0.2132840884 ABAB
    9    9   13   24  -0.0548883805 ABAB
    9    9   24   13  -0.0548883805 ABAB
    9    9   13   28  -0.0529482072 ABAB
    9    9   28   13  -0.0529482072 ABAB
    9    9   13   19  -0.0397288652 ABAB
    9    9   19   13  -0.0397288652 ABAB
    8    0   13    0   0.0358890173 AA  
    9    0   26    0   0.0324103980 AA  
    9    8   15   11  -0.0323174952 ABAB
    8    9   11   15  -0.0323174952 ABAB
    9    9   13   31   0.0301879614 ABAB
    9    9   31   13   0.0301879614 ABAB
--------------------------------------------------------------------------------
  Converged eigenvector, normalized to one 
  SCF eigenvalue ordering used in list below. 
--------------------------------------------------------------------------------
    I    j    A    b
--------------------------------------------------------------------------------
    9    0   13    0   0.6535294382 AA  
    9    9   13   10   0.2132840884 ABAB
    9    9   10   13   0.2132840884 ABAB
    9    9   13   24  -0.0548883805 ABAB
    9    9   24   13  -0.0548883805 ABAB
    9    9   13   28  -0.0529482072 ABAB
    9    9   28   13  -0.0529482072 ABAB
    9    9   13   19  -0.0397288652 ABAB
    9    9   19   13  -0.0397288652 ABAB
    8    0   13    0   0.0358890173 AA  
    9    0   26    0   0.0324103980 AA  
    9    8   15   11  -0.0323174952 ABAB
    8    9   11   15  -0.0323174952 ABAB
    9    9   13   31   0.0301879614 ABAB
    9    9   31   13   0.0301879614 ABAB
--------------------------------------------------------------------------------

  Eigenvector is saved on CCRE_2_1  

  Adding new vector to expansion space.
  Guess for next eigenvalue   0.339741692911457     
 14  14  0.3422005819D+00  0.9311751233D+01  0.6966495557D+00  0.2212465248D+00
 15  15  0.3381356768D+00  0.9201139541D+01  0.9905028277D+00  0.9350450385D-01
 16  16  0.3373422732D+00  0.9179549933D+01  0.9987704494D+00  0.1424029494D-01
 17  17  0.3372183199D+00  0.9176176991D+01  0.9998796918D+00  0.4703260251D-02
  L-O-C-K-I-N-G O-N R-O-O-T 
 18  18  0.3372113983D+00  0.9175988646D+01  0.9999742391D+00  0.1773585654D-02
 19  19  0.3372083060D+00  0.9175904501D+01  0.9999948551D+00  0.6709834219D-03
 20  20  0.3372084184D+00  0.9175907560D+01  0.9999990444D+00  0.2674264598D-03
 21  21  0.3372089044D+00  0.9175920784D+01  0.9999999158D+00  0.9353103683D-04
 22  22  0.3372089264D+00  0.9175921383D+01  0.9999999912D+00  0.3909950058D-04
 23  23  0.3372088761D+00  0.9175920014D+01  0.9999999980D+00  0.1328716010D-04
 24  24  0.3372088707D+00  0.9175919866D+01  0.9999999997D+00  0.5695605064D-05
  Converged eigenvalue:   0.337208870681170       a.u.
   Total EOMEE-CCSD electronic energy      -78.516057976035853 a.u.
  Converged eigenvector 
  SCF eigenvalue ordering used in list below. 
--------------------------------------------------------------------------------
    I    j    A    b
--------------------------------------------------------------------------------
    8    0   13    0  -0.5543069627 AA  
    7    0   11    0   0.3818993191 AA  
    9    9   13   10   0.0661628180 ABAB
    9    9   10   13   0.0661628180 ABAB
    8    0   26    0  -0.0606429817 AA  
    8    0   21    0   0.0558499166 AA  
    5    8   11   11   0.0533139025 ABAB
    8    5   11   11   0.0533139025 ABAB
    8    8   15   11   0.0426902583 ABAB
    8    8   11   15   0.0426902583 ABAB
    7    0   25    0  -0.0360118138 AA  
    8    0   16    0  -0.0298276150 AA  
    5    8   13   13  -0.0298048514 ABAB
    8    5   13   13  -0.0298048514 ABAB
    7    0   23    0  -0.0277426185 AA  
--------------------------------------------------------------------------------
  Converged eigenvector, normalized to one 
  SCF eigenvalue ordering used in list below. 
--------------------------------------------------------------------------------
    I    j    A    b
--------------------------------------------------------------------------------
    8    0   13    0  -0.5543069627 AA  
    7    0   11    0   0.3818993191 AA  
    9    9   13   10   0.0661628180 ABAB
    9    9   10   13   0.0661628180 ABAB
    8    0   26    0  -0.0606429817 AA  
    8    0   21    0   0.0558499166 AA  
    5    8   11   11   0.0533139025 ABAB
    8    5   11   11   0.0533139025 ABAB
    8    8   15   11   0.0426902583 ABAB
    8    8   11   15   0.0426902583 ABAB
    7    0   25    0  -0.0360118138 AA  
    8    0   16    0  -0.0298276150 AA  
    5    8   13   13  -0.0298048514 ABAB
    8    5   13   13  -0.0298048514 ABAB
    7    0   23    0  -0.0277426185 AA  
--------------------------------------------------------------------------------

  Eigenvector is saved on CCRE_2_2  

  Adding new vector to expansion space.
  Guess for next eigenvalue   0.365117225121063     
 25  25  0.3519824116D+00  0.9577928353D+01  0.5987688782D+00  0.6102707835D-01
 26  26  0.3499870569D+00  0.9523631991D+01  0.9984232248D+00  0.1801073179D-01
 27  27  0.3497346019D+00  0.9516762341D+01  0.9998350814D+00  0.5616416272D-02
  L-O-C-K-I-N-G O-N R-O-O-T 
 28  28  0.3497104522D+00  0.9516105193D+01  0.9999834847D+00  0.1936348540D-02
 29  29  0.3497100652D+00  0.9516094662D+01  0.9999974193D+00  0.1082749038D-02
 30  30  0.3497096617D+00  0.9516083684D+01  0.9999990656D+00  0.3642001672D-03
 31  31  0.3497093686D+00  0.9516075708D+01  0.9999998254D+00  0.1285170847D-03
 32  32  0.3497095557D+00  0.9516080799D+01  0.9999999820D+00  0.4197985041D-04
 33  33  0.3497095466D+00  0.9516080551D+01  0.9999999984D+00  0.1217055731D-04
 34  34  0.3497095307D+00  0.9516080119D+01  0.9999999998D+00  0.4448492257D-05
  Converged eigenvalue:   0.349709530733290       a.u.
   Total EOMEE-CCSD electronic energy      -78.503557315983727 a.u.
  Converged eigenvector 
  SCF eigenvalue ordering used in list below. 
--------------------------------------------------------------------------------
    I    j    A    b
--------------------------------------------------------------------------------
    7    0   11    0  -0.5529568491 AA  
    8    0   13    0  -0.3812186505 AA  
    9    0   16    0  -0.0851261018 AA  
    5    8   11   11  -0.0716729446 ABAB
    8    5   11   11  -0.0716729446 ABAB
    7    0   25    0   0.0478203921 AA  
    8    0   26    0  -0.0407815512 AA  
    9    9   13   10   0.0396682877 ABAB
    9    9   10   13   0.0396682877 ABAB
    7    0   17    0   0.0367892367 AA  
    7    0   23    0   0.0360695735 AA  
    9    9   16   10  -0.0267107853 ABAB
    9    9   10   16  -0.0267107853 ABAB
    7    4   23   11   0.0248166658 ABAB
    4    7   11   23   0.0248166658 ABAB
--------------------------------------------------------------------------------
  Converged eigenvector, normalized to one 
  SCF eigenvalue ordering used in list below. 
--------------------------------------------------------------------------------
    I    j    A    b
--------------------------------------------------------------------------------
    7    0   11    0  -0.5529568491 AA  
    8    0   13    0  -0.3812186505 AA  
    9    0   16    0  -0.0851261018 AA  
    5    8   11   11  -0.0716729446 ABAB
    8    5   11   11  -0.0716729446 ABAB
    7    0   25    0   0.0478203921 AA  
    8    0   26    0  -0.0407815512 AA  
    9    9   13   10   0.0396682877 ABAB
    9    9   10   13   0.0396682877 ABAB
    7    0   17    0   0.0367892367 AA  
    7    0   23    0   0.0360695735 AA  
    9    9   16   10  -0.0267107853 ABAB
    9    9   10   16  -0.0267107853 ABAB
    7    4   23   11   0.0248166658 ABAB
    4    7   11   23   0.0248166658 ABAB
--------------------------------------------------------------------------------

  Eigenvector is saved on CCRE_2_3  

  Solution of   3 roots required   34 iterations.
 @CHECKOUT-I, Total execution time (CPU/WALL):       19.57/       2.46 seconds.
--executable xvee finished with status     0 in        2.47 seconds (walltime).
  The final electronic energy is       -78.503557315983727 a.u. 
  This computation required                            4.18 seconds (walltime).
