                  Welcome to Q-Chem
     A Quantum Leap Into The Future Of Chemistry


 Q-Chem 5.4 (devel), Q-Chem, Inc., Pleasanton, CA (2021)

 E. Epifanovsky,  A. T. B. Gilbert,  Xintian Feng,  Joonho Lee,  Yuezhi Mao,  
 N. Mardirossian,  P. Pokhilko,  A. White,  M. Wormit,  M. P. Coons,  
 A. L. Dempwolff,  Zhengting Gan,  D. Hait,  P. R. Horn,  L. D. Jacobson,  
 I. Kaliman,  J. Kussmann,  A. W. Lange,  Ka Un Lao,  D. S. Levine,  Jie Liu,  
 S. C. McKenzie,  A. F. Morrison,  K. Nanda,  F. Plasser,  D. R. Rehn,  
 M. L. Vidal,  Zhi-Qiang You,  Ying Zhu,  B. Alam,  B. Albrecht,  
 A. Aldossary,  E. Alguire,  J. H. Andersen,  D. Barton,  K. Begam,  A. Behn,  
 Y. A. Bernard,  E. J. Berquist,  H. Burton,  A. Carreras,  K. Carter-Fenk,  
 R. Chakraborty,  A. D. Chien,  K. D. Closser,  V. Cofer-Shabica,  
 S. Dasgupta,  Jia Deng,  M. de Wergifosse,  M. Diedenhofen,  Hainam Do,  
 S. Ehlert,  Po-Tung Fang,  S. Fatehi,  Qingguo Feng,  T. Friedhoff,  
 J. Gayvert,  Qinghui Ge,  G. Gidofalvi,  M. Goldey,  J. Gomes,  
 C. Gonzalez-Espinoza,  S. Gulania,  A. Gunina,  M. W. D. Hanson-Heine,  
 P. H. P. Harbach,  A. W. Hauser,  M. F. Herbst,  M. Hernandez Vera,  
 M. Hodecker,  Z. C. Holden,  S. Houck,  Xunkun Huang,  Kerwin Hui,  
 B. C. Huynh,  M. Ivanov,  Hyunjun Ji,  Hanjie Jiang,  B. Kaduk,  S. Kaehler,  
 K. Khistyaev,  Jaehoon Kim,  P. Klunzinger,  Z. Koczor-Benda,  
 Joong Hoon Koh,  D. Kosenkov,  L. Koulias,  T. Kowalczyk,  C. M. Krauter,  
 K. Kue,  A. Kunitsa,  T. Kus,  A. Landau,  K. V. Lawler,  D. Lefrancois,  
 S. Lehtola,  Rain Li,  Yi-Pei Li,  Jiashu Liang,  M. Liebenthal,  
 Hung-Hsuan Lin,  You-Sheng Lin,  Fenglai Liu,  Kuan-Yu Liu,  
 M. Loipersberger,  A. Luenser,  A. Manjanath,  P. Manohar,  E. Mansoor,  
 S. F. Manzer,  Shan-Ping Mao,  A. V. Marenich,  T. Markovich,  S. Mason,  
 S. A. Maurer,  P. F. McLaughlin,  M. F. S. J. Menger,  J.-M. Mewes,  
 S. A. Mewes,  P. Morgante,  J. W. Mullinax,  K. J. Oosterbaan,  G. Paran,  
 Alexander C. Paul,  Suranjan K. Paul,  F. Pavosevic,  Zheng Pei,  S. Prager,  
 E. I. Proynov,  E. Ramos,  B. Rana,  A. E. Rask,  A. Rettig,  R. M. Richard,  
 F. Rob,  E. Rossomme,  T. Scheele,  M. Scheurer,  M. Schneider,  
 N. Sergueev,  S. M. Sharada,  W. Skomorowski,  D. W. Small,  C. J. Stein,  
 Yu-Chuan Su,  E. J. Sundstrom,  Zhen Tao,  J. Thirman,  T. Tsuchimochi,  
 N. M. Tubman,  S. P. Veccham,  O. Vydrov,  J. Wenzel,  J. Witte,  A. Yamada,  
 Kun Yao,  S. Yeganeh,  S. R. Yost,  A. Zech,  Igor Ying Zhang,  Xing Zhang,  
 Yu Zhang,  D. Zuev,  A. Aspuru-Guzik,  A. T. Bell,  N. A. Besley,  
 K. B. Bravaya,  B. R. Brooks,  D. Casanova,  Jeng-Da Chai,  S. Coriani,  
 C. J. Cramer,  A. E. DePrince, III,  R. A. DiStasio Jr.,  A. Dreuw,  
 B. D. Dunietz,  T. R. Furlani,  W. A. Goddard III,  S. Grimme,  
 S. Hammes-Schiffer,  T. Head-Gordon,  W. J. Hehre,  Chao-Ping Hsu,  
 T.-C. Jagau,  Yousung Jung,  A. Klamt,  Jing Kong,  D. S. Lambrecht,  
 WanZhen Liang,  N. J. Mayhall,  C. W. McCurdy,  J. B. Neaton,  
 C. Ochsenfeld,  J. A. Parkhill,  R. Peverati,  V. A. Rassolov,  Yihan Shao,  
 L. V. Slipchenko,  T. Stauch,  R. P. Steele,  J. E. Subotnik,  
 A. J. W. Thom,  A. Tkatchenko,  D. G. Truhlar,  T. Van Voorhis,  
 T. A. Wesolowski,  K. B. Whaley,  H. L. Woodcock III,  P. M. Zimmerman,  
 S. Faraji,  P. M. W. Gill,  M. Head-Gordon,  J. M. Herbert,  A. I. Krylov

 Additional authors for Version 5.4.1: 
 S. Kotaru,  Shaozhi Li,  Xiangyuan Li,  F. Matz,  A. Molle,  Haisheng Ren,  
 Yingli Su,  Hung-Yi Tsai,  C. Utku,  Fang Wang

 Contributors to earlier versions of Q-Chem not listed above: 
 R. D. Adamson,  B. Austin,  R. Baer,  J. Baker,  G. J. O. Beran,  
 K. Brandhorst,  S. T. Brown,  E. F. C. Byrd,  A. K. Chakraborty,  
 G. K. L. Chan,  Chun-Min Chang,  Yunqing Chen,  C.-L. Cheng,  
 Siu Hung Chien,  D. M. Chipman,  D. L. Crittenden,  H. Dachsel,  
 R. J. Doerksen,  A. D. Dutoi,  R. G. Edgar,  J. Fosso-Tande,  
 L. Fusti-Molnar,  D. Ghosh,  A. Ghysels,  A. Golubeva-Zadorozhnaya,  
 J. Gonthier,  M. S. Gordon,  S. R. Gwaltney,  G. Hawkins,  J. E. Herr,  
 A. Heyden,  S. Hirata,  E. G. Hohenstein,  G. Kedziora,  F. J. Keil,  
 C. Kelley,  Jihan Kim,  R. A. King,  R. Z. Khaliullin,  P. P. Korambath,  
 W. Kurlancheek,  A. Laurent,  A. M. Lee,  M. S. Lee,  S. V. Levchenko,  
 Ching Yeh Lin,  D. Liotard,  E. Livshits,  R. C. Lochan,  I. Lotan,  
 L. A. Martinez-Martinez,  P. E. Maslen,  N. Nair,  D. P. O'Neill,  
 D. Neuhauser,  E. Neuscamman,  C. M. Oana,  R. Olivares-Amaya,  R. Olson,  
 T. M. Perrine,  B. Peters,  P. A. Pieniazek,  A. Prociuk,  Y. M. Rhee,  
 J. Ritchie,  M. A. Rohrdanz,  E. Rosta,  N. J. Russ,  H. F. Schaefer III,  
 M. W. Schmidt,  N. E. Schultz,  S. Sharma,  N. Shenvi,  C. D. Sherrill,  
 A. C. Simmonett,  A. Sodt,  T. Stein,  D. Stuck,  K. S. Thanthiriwatte,  
 V. Vanovschi,  L. Vogt,  Tao Wang,  A. Warshel,  M. A. Watson,  
 C. F. Williams,  Q. Wu,  X. Xu,  Jun Yang,  W. Zhang,  Yan Zhao

 Please cite Q-Chem as follows:
 Y. Shao et al., Mol. Phys. 113, 184-215 (2015)
 DOI: 10.1080/00268976.2014.952696

 Q-Chem 5.4.1 for Intel X86 EM64T Linux

 Parts of Q-Chem use Armadillo 9.900.5 (Nocturnal Misbehaviour).
 http://arma.sourceforge.net/

 Q-Chem begins on Mon Apr  4 16:35:36 2022  

 Host: node01
0

     Scratch files written to /src/jdavis/qchem.scratch/qchem28727//
 Processing $rem in /src/tsommerfeld/qchem/config/preferences:
 Processing $rem in /home/jdavis/.qchemrc:
 Core orbitals will be frozen

 Checking the input file for inconsistencies... 	...done.

--------------------------------------------------------------
User input:
--------------------------------------------------------------
$comment
	Ethylene CAP-EOM-CCSD
	Basis: C: jun-TZ+4p1d, H: TZ
$end

$molecule
0 1
C       0.6645000000    -0.0000000000    -0.0000000000
C      -0.6645000000     0.0000000000     0.0000000000
H       1.1590799571     0.9623485159     0.0000000000
H       1.1590799571    -0.9623485159    -0.0000000000
H      -1.1590799571    -0.9623485159    -0.0000000000
H      -1.1590799571     0.9623485159     0.0000000000
$end

$rem
	method eom-ccsd
	basis gen
        EA_STATES [0,0,10,0,0,0,0,0]
	complex_ccman 1
	xc_grid 000250000974
	scf_convergence 8
	thresh 14
	mem_total 95000
	threads 12
$end

$complex_ccman
	cap_type 2 
	proj_cap 3
	cap_eta 300 
	cap_x 3500
$end

$basis
H     0
S    1   1.00
      3.258000D-01           1.000000D+00
S    5   1.00
      3.387000D+01           6.068000D-03
      5.095000D+00           4.530800D-02
      1.159000D+00           2.028220D-01
      3.258000D-01           5.039030D-01
      1.027000D-01           3.834210D-01
S    1   1.00
      1.027000D-01           1.000000D+00
P    1   1.00
      1.407000D+00           1.000000D+00
P    1   1.00
      3.880000D-01           1.000000D+00
D    1   1.00
      1.057000D+00           1.0000000
****
C     0
S    8   1.00
   8236.0000000              0.0005310
   1235.0000000              0.0041080
    280.8000000              0.0210870
     79.2700000              0.0818530
     25.5900000              0.2348170
      8.9970000              0.4344010
      3.3190000              0.3461290
      0.3643000             -0.0089830
S    1   1.00
      0.9059000              1.0000000
S    8   1.00
   8236.0000000             -0.0001130
   1235.0000000             -0.0008780
    280.8000000             -0.0045400
     79.2700000             -0.0181330
     25.5900000             -0.0557600
      8.9970000             -0.1268950
      3.3190000             -0.1703520
      0.3643000              0.5986840
S    1   1.00
      0.1285000              1.0000000
S    1   1.00
      0.0440200              1.0000000
P    3   1.00
     18.7100000              0.0140310
      4.1330000              0.0868660
      1.2000000              0.2902160
P    1   1.00
      0.3827000              1.0000000
P    1   1.00
      0.1209000              1.0000000
P    1   1.00
      0.0356900              1.0000000
P    1   1.0
      0.0237933 1.0
P    1   1.0
      0.0158622 1.0
P    1   1.0
      0.0105748 1.0
P    1   1.0
      0.0070498 1.0
D    1   1.00
      1.0970000              1.0000000
D    1   1.00
      0.3180000              1.0000000
D    1   1.00
      0.1000000              1.0000000
D    1   1.00
      0.0500000 1.0
F    1   1.00
      0.7610000              1.0000000
****
$end
--------------------------------------------------------------
 ----------------------------------------------------------------
             Standard Nuclear Orientation (Angstroms)
    I     Atom           X                Y                Z
 ----------------------------------------------------------------
    1      C       0.6645000000     0.0000000000    -0.0000000000
    2      C      -0.6645000000    -0.0000000000     0.0000000000
    3      H       1.1590799571     0.9623485159    -0.0000000000
    4      H       1.1590799571    -0.9623485159    -0.0000000000
    5      H      -1.1590799571    -0.9623485159     0.0000000000
    6      H      -1.1590799571     0.9623485159     0.0000000000
 ----------------------------------------------------------------
 Molecular Point Group                 D2h   NOp =  8
 Largest Abelian Subgroup              D2h   NOp =  8
 Nuclear Repulsion Energy =          33.58921683 hartrees
 There are        8 alpha and        8 beta electrons
 Requested basis set is non-standard
 There are 60 shells and 168 basis functions
 Total memory of 95000 MB is distributed as follows: 
   MEM_STATIC is set to 192 MB
   QALLOC/CCMAN JOB total memory use is  94808 MB
 Warning: actual memory use might exceed 95000 MB

 Total QAlloc Memory Limit  95000 MB
 Mega-Array Size       188 MB
 MEM_STATIC part       192 MB

                       Distance Matrix (Angstroms)
             C (  1)   C (  2)   H (  3)   H (  4)   H (  5)
   C (  2)  1.329000
   H (  3)  1.082000  2.061931
   H (  4)  1.082000  2.061931  1.924697
   H (  5)  2.061931  1.082000  3.013026  2.318160
   H (  6)  2.061931  1.082000  2.318160  3.013026  1.924697
 
 A cutoff of  1.0D-14 yielded   1830 shell pairs
 There are     14430 function pairs (     17733 Cartesian)
 Smallest overlap matrix eigenvalue = 2.35E-06

 Scale SEOQF with 1.000000e-02/1.000000e-02/1.000000e-02

 Standard Electronic Orientation quadrupole field applied
 ================ Generating on-the-fly SAD Guess ================
Attempting to make child job directory: /src/jdavis/qchem.scratch/qchem28727//Frg1/
Attempting to make child job directory: /src/jdavis/qchem.scratch/qchem28727//Frg2/
Creating input file /src/jdavis/qchem.scratch/qchem28727/Frg1.input
using default PutDataFrgm: nothing
calling putenv with: QCSCRATCH=/src/jdavis/qchem.scratch/qchem28727/ 
Spawning Job For Fragment 0
Done Job For Fragment 0
calling putenv with: QCSCRATCH=/src/jdavis/qchem.scratch 
calling putenv with: QCTHREADS=1 
Creating input file /src/jdavis/qchem.scratch/qchem28727/Frg2.input
using default PutDataFrgm: nothing
calling putenv with: QCSCRATCH=/src/jdavis/qchem.scratch/qchem28727/ 
Spawning Job For Fragment 1
Done Job For Fragment 1
calling putenv with: QCSCRATCH=/src/jdavis/qchem.scratch 
calling putenv with: QCTHREADS=1 
 Time for running child jobs:  CPU 2.12 s  wall 1.50 s
 ============= Method Specific SAD Guess Constructed =============
 Guess from on-the-fly superposition of atomic densities
 Warning: Energy on first SCF cycle will be non-variational

 -----------------------------------------------------------------------
  General SCF calculation program by
  Eric Jon Sundstrom, Paul Horn, Yuezhi Mao, Dmitri Zuev, Alec White,
  David Stuck, Shaama M.S., Shane Yost, Joonho Lee, David Small,
  Daniel Levine, Susi Lehtola, Hugh Burton, Evgeny Epifanovsky,
  Bang C. Huynh
 -----------------------------------------------------------------------
 Hartree-Fock
 using 12 threads for integral computing
 -------------------------------------------------------
 OpenMP Integral computing Module                
 Release: version 1.0, May 2013, Q-Chem Inc. Pittsburgh 
 -------------------------------------------------------
 A restricted SCF calculation will be
 performed using DIIS
 SCF converges when DIIS error is below 1.0e-08
 ---------------------------------------
  Cycle       Energy         DIIS error
 ---------------------------------------
    1     -78.4638144751      2.97e-02  
    2     -78.0364511858      2.22e-03  
    3     -78.0582288571      6.08e-04  
    4     -78.0600409431      2.14e-04  
    5     -78.0602554876      2.39e-05  
    6     -78.0602607083      5.01e-06  
    7     -78.0602610276      1.33e-06  
    8     -78.0602610454      1.53e-07  
    9     -78.0602610539      1.98e-08  
   10     -78.0602610489      2.87e-09  Convergence criterion met
 ---------------------------------------
 SCF time:   CPU 25.50s  wall 3.00s 
 SCF   energy in the final basis set =      -78.0602610489
 Total energy in the final basis set =      -78.0602610489
 CAP matrix will be calculated and saved for subsequent use


 ------------------------------------------------------------------------------

   CCMAN2: suite of methods based on coupled cluster
           and equation of motion theories.

   Components:
   * libvmm-1.3-trunk
     by Evgeny Epifanovsky, Ilya Kaliman.
   * libtensor-2.5-trunk
     by Evgeny Epifanovsky, Michael Wormit, Dmitry Zuev, Sam Manzer, 
        Ilya Kaliman.
   * libcc-2.5-trunk
     by Evgeny Epifanovsky, Arik Landau, Tomasz Kus, Kirill Khistyaev, 
        Dmitry Zuev, Prashant Manohar, Xintian Feng, Anna Krylov, 
        Matthew Goldey, Alec White, Thomas Jagau, Kaushik Nanda, 
        Anastasia Gunina, Alexander Kunitsa, Joonho Lee.

   CCMAN original authors:
   Anna I. Krylov, C. David Sherrill, Steven R. Gwaltney,
   Edward F. C. Byrd (2000)
   Sergey V. Levchenko, Lyudmila V. Slipchenko, Tao Wang,
   Ana-Maria C. Cristian (2003)
   Piotr A. Pieniazek, C. Melania Oana, Evgeny Epifanovsky (2007)
   Prashant Manohar (2009)

 ------------------------------------------------------------------------------


 Allocating and initializing 94808MB of RAM...
 Calculation will run on 12 cores.

 
 Alpha MOs, Restricted
 -- Occupied --                  
-11.228 -11.226  -1.040  -0.781  -0.661  -0.568  -0.516  -0.377
  1 Ag    1 B3u   2 Ag    2 B3u   1 B2u   3 Ag    1 B1g   1 B1u                
 -- Virtual --                   
  0.010   0.010   0.011   0.016   0.016   0.018   0.031   0.033
  3 B3u   2 B2u   2 B1u   2 B1g   1 B2g   4 Ag    4 B3u   3 B2u                
  0.035   0.039   0.042   0.042   0.058   0.069   0.073   0.078
  3 B1u   5 Ag    3 B1g   2 B2g   6 Ag    5 B3u   4 B2u   4 B1u                
  0.082   0.085   0.094   0.129   0.131   0.134   0.142   0.142
  3 B2g   4 B1g   7 Ag    4 B2g   6 B3u   8 Ag    1 B3g   5 B2u                
  0.153   0.155   0.156   0.169   0.185   0.186   0.188   0.191
  5 B1u   5 B1g   9 Ag    7 B3u   6 B2u   8 B3u   5 B2g   1 Au                 
  0.197   0.239   0.241   0.243   0.258   0.273   0.293   0.299
  6 B1u   9 B3u  10 Ag    6 B1g   6 B2g   7 B2u  11 Ag    7 B1g                
  0.302   0.327   0.352   0.355   0.375   0.391   0.403   0.434
  7 B1u  12 Ag    7 B2g  10 B3u   8 B2u   2 B3g  11 B3u  13 Ag                 
  0.442   0.474   0.487   0.490   0.496   0.509   0.572   0.590
  9 B2u   8 B1g  12 B3u  14 Ag    2 Au    8 B1u  13 B3u   9 B1g                
  0.635   0.696   0.707   0.760   0.764   0.768   0.791   0.811
  8 B2g  10 B2u  14 B3u   9 B1u  15 Ag   11 B2u  10 B1g  16 Ag                 
  0.836   0.865   0.872   0.978   1.005   1.023   1.082   1.140
 15 B3u   9 B2g  17 Ag   16 B3u  11 B1g   3 B3g  10 B1u  18 Ag                 
  1.144   1.151   1.203   1.205   1.230   1.263   1.280   1.376
  3 Au   17 B3u  10 B2g  12 B2u  11 B1u   4 B3g  12 B1g  19 Ag                 
  1.423   1.506   1.521   1.553   1.624   1.664   1.684   1.735
 18 B3u  11 B2g  13 B2u  14 B2u  20 Ag   19 B3u   4 Au   13 B1g                
  1.864   2.004   2.030   2.102   2.579   2.736   2.746   2.761
 20 B3u  21 Ag   21 B3u  14 B1g  12 B1u  22 Ag   15 B2u  23 Ag                 
  2.781   2.803   2.901   2.919   2.996   2.997   3.071   3.105
 12 B2g  16 B2u  15 B1g  13 B1u   5 B3g  22 B3u  16 B1g  14 B1u                
  3.136   3.164   3.229   3.267   3.267   3.291   3.463   3.468
 17 B2u  24 Ag    5 Au   13 B2g   6 B3g  25 Ag   23 B3u  18 B2u                
  3.484   3.506   3.516   3.531   3.555   3.617   3.645   3.662
  6 Au   14 B2g  17 B1g  24 B3u  25 B3u  15 B1u   7 B3g  26 Ag                 
  3.798   3.824   3.980   4.008   4.025   4.030   4.061   4.066
 19 B2u  18 B1g  15 B2g  26 B3u  19 B1g  20 B2u  16 B1u  27 Ag                 
  4.118   4.222   4.288   4.299   4.350   4.355   4.368   4.596
  7 Au   27 B3u  28 Ag    8 B3g  20 B1g  16 B2g  17 B1u  28 B3u                
  4.616   4.666   4.705   4.797   4.856   4.947   5.050   5.089
 21 B2u   8 Au   29 Ag   29 B3u  17 B2g  18 B1u  30 Ag   21 B1g                
  5.166   5.224   5.314   5.366   5.427   5.483   5.543   5.677
 22 B2u   9 B3g  30 B3u  31 Ag    9 Au   22 B1g  18 B2g  23 B2u                
  5.724   6.111   6.187   6.319   6.666   6.898  12.927  15.370
 32 Ag   23 B1g  31 B3u  24 B2u  32 B3u  24 B1g  33 Ag   33 B3u                
 
 Beta MOs, Restricted
 -- Occupied --                  
-11.228 -11.226  -1.040  -0.781  -0.661  -0.568  -0.516  -0.377
  1 Ag    1 B3u   2 Ag    2 B3u   1 B2u   3 Ag    1 B1g   1 B1u                
 -- Virtual --                   
  0.010   0.010   0.011   0.016   0.016   0.018   0.031   0.033
  3 B3u   2 B2u   2 B1u   2 B1g   1 B2g   4 Ag    4 B3u   3 B2u                
  0.035   0.039   0.042   0.042   0.058   0.069   0.073   0.078
  3 B1u   5 Ag    3 B1g   2 B2g   6 Ag    5 B3u   4 B2u   4 B1u                
  0.082   0.085   0.094   0.129   0.131   0.134   0.142   0.142
  3 B2g   4 B1g   7 Ag    4 B2g   6 B3u   8 Ag    1 B3g   5 B2u                
  0.153   0.155   0.156   0.169   0.185   0.186   0.188   0.191
  5 B1u   5 B1g   9 Ag    7 B3u   6 B2u   8 B3u   5 B2g   1 Au                 
  0.197   0.239   0.241   0.243   0.258   0.273   0.293   0.299
  6 B1u   9 B3u  10 Ag    6 B1g   6 B2g   7 B2u  11 Ag    7 B1g                
  0.302   0.327   0.352   0.355   0.375   0.391   0.403   0.434
  7 B1u  12 Ag    7 B2g  10 B3u   8 B2u   2 B3g  11 B3u  13 Ag                 
  0.442   0.474   0.487   0.490   0.496   0.509   0.572   0.590
  9 B2u   8 B1g  12 B3u  14 Ag    2 Au    8 B1u  13 B3u   9 B1g                
  0.635   0.696   0.707   0.760   0.764   0.768   0.791   0.811
  8 B2g  10 B2u  14 B3u   9 B1u  15 Ag   11 B2u  10 B1g  16 Ag                 
  0.836   0.865   0.872   0.978   1.005   1.023   1.082   1.140
 15 B3u   9 B2g  17 Ag   16 B3u  11 B1g   3 B3g  10 B1u  18 Ag                 
  1.144   1.151   1.203   1.205   1.230   1.263   1.280   1.376
  3 Au   17 B3u  10 B2g  12 B2u  11 B1u   4 B3g  12 B1g  19 Ag                 
  1.423   1.506   1.521   1.553   1.624   1.664   1.684   1.735
 18 B3u  11 B2g  13 B2u  14 B2u  20 Ag   19 B3u   4 Au   13 B1g                
  1.864   2.004   2.030   2.102   2.579   2.736   2.746   2.761
 20 B3u  21 Ag   21 B3u  14 B1g  12 B1u  22 Ag   15 B2u  23 Ag                 
  2.781   2.803   2.901   2.919   2.996   2.997   3.071   3.105
 12 B2g  16 B2u  15 B1g  13 B1u   5 B3g  22 B3u  16 B1g  14 B1u                
  3.136   3.164   3.229   3.267   3.267   3.291   3.463   3.468
 17 B2u  24 Ag    5 Au   13 B2g   6 B3g  25 Ag   23 B3u  18 B2u                
  3.484   3.506   3.516   3.531   3.555   3.617   3.645   3.662
  6 Au   14 B2g  17 B1g  24 B3u  25 B3u  15 B1u   7 B3g  26 Ag                 
  3.798   3.824   3.980   4.008   4.025   4.030   4.061   4.066
 19 B2u  18 B1g  15 B2g  26 B3u  19 B1g  20 B2u  16 B1u  27 Ag                 
  4.118   4.222   4.288   4.299   4.350   4.355   4.368   4.596
  7 Au   27 B3u  28 Ag    8 B3g  20 B1g  16 B2g  17 B1u  28 B3u                
  4.616   4.666   4.705   4.797   4.856   4.947   5.050   5.089
 21 B2u   8 Au   29 Ag   29 B3u  17 B2g  18 B1u  30 Ag   21 B1g                
  5.166   5.224   5.314   5.366   5.427   5.483   5.543   5.677
 22 B2u   9 B3g  30 B3u  31 Ag    9 Au   22 B1g  18 B2g  23 B2u                
  5.724   6.111   6.187   6.319   6.666   6.898  12.927  15.370
 32 Ag   23 B1g  31 B3u  24 B2u  32 B3u  24 B1g  33 Ag   33 B3u                

 Occupation and symmetry of molecular orbitals

 Point group: D2h (8 irreducible representations).

                           Ag   B1g  B2g  B3g  Au   B1u  B2u  B3u   All 
 ------------------------------------------------------------------------
 All molecular orbitals:
  - Alpha                  33   24   18   9    9    18   24   33    168 
  - Beta                   33   24   18   9    9    18   24   33    168 
 ------------------------------------------------------------------------
 Alpha orbitals:
  - Frozen occupied        1    0    0    0    0    0    0    1     2   
  - Active occupied        2    1    0    0    0    1    1    1     6   
  - Active virtual         30   23   18   9    9    17   23   31    160 
  - Frozen virtual         0    0    0    0    0    0    0    0     0   
 ------------------------------------------------------------------------
 Beta orbitals:
  - Frozen occupied        1    0    0    0    0    0    0    1     2   
  - Active occupied        2    1    0    0    0    1    1    1     6   
  - Active virtual         30   23   18   9    9    17   23   31    160 
  - Frozen virtual         0    0    0    0    0    0    0    0     0   
 ------------------------------------------------------------------------

 Import integrals:   CPU 0.00 s  wall 0.00 s

 Import integrals:   CPU 68.18 s  wall 6.26 s

 MP2 amplitudes:   CPU 6.59 s  wall 5.64 s

Running a double precision version
           CCSD T amplitudes will be solved using DIIS.

           Start     Size      MaxIter   EConv     TConv     
           3         7         100       1.00e-06  1.00e-04  
 ------------------------------------------------------------------------------
           Energy (a.u.)   Ediff      Tdiff       Comment
 ------------------------------------------------------------------------------
           -78.39753760                           
     1     -78.41036188   1.28e-02   5.70e-01     
     2     -78.41881824   8.46e-03   6.33e-02     
     3     -78.42011569   1.30e-03   2.31e-02     
     4     -78.42132312   1.21e-03   1.17e-02     Switched to DIIS steps.
     5     -78.42149079   1.68e-04   4.47e-03     
     6     -78.42148883   1.96e-06   1.26e-03     
     7     -78.42148799   8.35e-07   1.86e-04     
     8     -78.42148808   9.14e-08   6.64e-05     
 ------------------------------------------------------------------------------
           -78.42148808                           CCSD T converged.

End of double precision
 SCF energy                 = -78.06026105
 MP2 energy                 = -78.39753760
 CCSD correlation energy    =  -0.36122703
 CCSD total energy          = -78.42148808

 CCSD  T1^2 = 0.0028  T2^2 = 0.1400  Leading amplitudes:

 Amplitude    Orbitals with energies
 -0.0173       1 (B1u) A                 ->    9 (B1u) A                  
              -0.3775                          0.7600                     
 -0.0173       1 (B1u) B                 ->    9 (B1u) B                  
              -0.3775                          0.7600                     
 -0.0141       1 (B1u) A                 ->    7 (B1u) A                  
              -0.3775                          0.3018                     
 -0.0141       1 (B1u) B                 ->    7 (B1u) B                  
              -0.3775                          0.3018                     

 Amplitude    Orbitals with energies
 -0.0496       1 (B1u) A     1 (B1u) B   ->    4 (B2g) A     4 (B2g) B    
              -0.3775       -0.3775            0.1287        0.1287       
  0.0496       1 (B1u) A     1 (B1u) B   ->    4 (B2g) B     4 (B2g) A    
              -0.3775       -0.3775            0.1287        0.1287       
  0.0496       1 (B1u) B     1 (B1u) A   ->    4 (B2g) A     4 (B2g) B    
              -0.3775       -0.3775            0.1287        0.1287       
 -0.0496       1 (B1u) B     1 (B1u) A   ->    4 (B2g) B     4 (B2g) A    
              -0.3775       -0.3775            0.1287        0.1287       

 Computing CCSD intermediates for later calculations in double precision
 Finished.

Running a double precision version
           CCSD Lambda amplitudes will be solved using DIIS.
           Start     Size      MaxIter   EConv     LConv     
           3         7         100       1.00e-06  1.00e-04  
 ------------------------------------------------------------------------------
            Enorm      Ldiff       Comment
 ------------------------------------------------------------------------------
     1     3.09e-02   2.59e-02     
     2     5.29e-03   2.08e-03     
     3     2.09e-03   1.05e-03     
     4     6.81e-04   4.97e-04     Switched to DIIS steps.
     5     2.27e-04   1.79e-04     
     6     5.33e-05   5.00e-05     
     7     1.52e-05   8.38e-06     
     8     3.82e-06   1.13e-06     
     9     1.22e-06   1.48e-07     
    10     3.99e-07   1.02e-07     
 ------------------------------------------------------------------------------
                                   CCSD Lambda converged.

 CCSD calculation:   CPU 204.15 s  wall 40.55 s

        Solving for EOMEA-CCSD/MP2 B2g transitions.

Running a double precision version
      EOMEA-CCSD/MP2 right amplitudes will be solved using Davidson.
        Amplitudes will be solved using standard  algorithm.
     Hard-coded thresholds: 
     LinDepThresh=1.00e-15  NormThresh=1.00e-06  ReorthogonThresh=1.00e-02

      Roots     MaxVec    MaxIter   Precond   Conv      Shift    
      10        120       60        1         1.00e-05  0.00e+00  
 ------------------------------------------------------------------------------
      Iter ConvRoots NVecs ResNorm Current eigenvalues (eV)
 ------------------------------------------------------------------------------
      0    0      10    5.10e-02   0.4354   1.1517   2.2839   3.7963   5.5390   7.1052   9.8824   17.4197   23.7236   32.8107   
      1    0      20    5.04e-02   0.4334   1.1341   2.1657   3.2828   4.9311   6.9393   9.2661   16.8408   22.6194   23.8751   
      2    1      30    3.17e-02   0.4327*  1.1224   1.9926   2.8229   4.6187   6.8444   8.8627   13.3582   14.3533   15.5912   
      3    2      39    2.13e-03   0.4327*  1.1219*  1.9825   2.8052   4.6047   6.8367   8.8069   10.7270   11.0565   11.7595   
      4    4      47    4.34e-03   0.4327*  1.1219*  1.9810*  2.8025*  4.6017   6.8332   8.6007   9.1473   9.7735   10.3632   
      5    5      53    3.02e-03   0.4327*  1.1219*  1.9810*  2.8024*  4.6014*  6.8311   7.7362   8.8201   9.2673   9.5579   
      6    5      58    2.05e-03   0.4327*  1.1218*  1.9809*  2.8024*  4.6014*  6.8267   7.0217   8.0114   8.8343   9.4283   
      7    5      63    1.21e-03   0.4327*  1.1218*  1.9809*  2.8024*  4.6014*  6.6985   6.8349   7.5284   8.7723   9.2943   
      8    5      68    3.00e-03   0.4327*  1.1218*  1.9809*  2.8024*  4.6014*  6.6437   6.8328   7.3650   8.1430   8.6465   
      9    6      73    8.90e-04   0.4327*  1.1218*  1.9809*  2.8024*  4.6014*  6.6363   6.8325*  6.9376   7.3087   8.4929   
      10   7      77    2.01e-04   0.4327*  1.1218*  1.9809*  2.8024*  4.6014*  6.6351*  6.7121   6.8324*  7.2967   8.4469   
      11   7      80    4.35e-05   0.4327*  1.1218*  1.9809*  2.8024*  4.6014*  6.6349*  6.6714   6.8324*  7.2948   8.4375   
      12   8      83    6.19e-05   0.4327*  1.1218*  1.9809*  2.8024*  4.6014*  6.6349*  6.6567   6.8324*  7.2946*  8.4319   
      13   8      85    1.45e-03   0.4327*  1.1218*  1.9809*  2.8024*  4.6014*  6.6349*  6.6415   6.8324*  7.2946*  7.6672   
      14   8      87    2.83e-04   0.4327*  1.1218*  1.9809*  2.8024*  4.6014*  6.6328   6.6349*  6.8324*  7.2946*  7.3456   
      15   8      89    6.93e-05   0.4327*  1.1219*  1.9809*  2.8024*  4.6014*  6.6310   6.6349*  6.8324*  7.2810   7.2946*  
      16   9      91    2.47e-05   0.4327*  1.1219*  1.9809*  2.8024*  4.6014*  6.6307*  6.6349*  6.8324*  7.2604   7.2946*  
      17   9      92    4.82e-06   0.4327*  1.1219*  1.9809*  2.8024*  4.6014*  6.6306*  6.6349*  6.8324*  7.2547   7.2946*  
      18   10     93    8.09e-07   0.4327*  1.1219*  1.9809*  2.8024*  4.6014*  6.6306*  6.6349*  6.8324*  7.2538*  7.2946*  

     Davidson procedure converged

 EOMEA transition 1/B2g
 Total energy = -78.40558847 a.u.  Excitation energy = 0.4327 eV.
 R1^2 = 0.9998  R2^2 = 0.0002  Res^2 = 2.06e-07
 Conv-d = yes

 Amplitude    Transitions between orbitals
  0.9998       infty       ->    1 (B2g) B                  
  0.0090       infty       ->    2 (B2g) B                  
  0.0076       infty       ->    3 (B2g) B                  
  0.0071       infty       ->    4 (B2g) B                  

              Summary of significant orbitals:

               Number  Type             Irrep      Energy
               13      Vir  Beta        1 (B2g)      0.0160
               20      Vir  Beta        2 (B2g)      0.0422
               25      Vir  Beta        3 (B2g)      0.0825
               28      Vir  Beta        4 (B2g)      0.1287


 EOMEA transition 2/B2g
 Total energy = -78.38026085 a.u.  Excitation energy = 1.1219 eV.
 R1^2 = 0.9981  R2^2 = 0.0019  Res^2 = 3.44e-08
 Conv-d = yes

 Amplitude    Transitions between orbitals
  0.9953       infty       ->    2 (B2g) B                  
  0.0617       infty       ->    3 (B2g) B                  
  0.0532       infty       ->    4 (B2g) B                  
  0.0231       infty       ->    5 (B2g) B                  

              Summary of significant orbitals:

               Number  Type             Irrep      Energy
               20      Vir  Beta        2 (B2g)      0.0422
               25      Vir  Beta        3 (B2g)      0.0825
               28      Vir  Beta        4 (B2g)      0.1287
               39      Vir  Beta        5 (B2g)      0.1882


 EOMEA transition 3/B2g
 Total energy = -78.34868960 a.u.  Excitation energy = 1.9809 eV.
 R1^2 = 0.9767  R2^2 = 0.0233  Res^2 = 7.98e-08
 Conv-d = yes

 Amplitude    Transitions between orbitals
  0.9066       infty       ->    3 (B2g) B                  
  0.3489       infty       ->    4 (B2g) B                  
  0.1490       infty       ->    5 (B2g) B                  
 -0.0834       infty       ->    2 (B2g) B                  

              Summary of significant orbitals:

               Number  Type             Irrep      Energy
               20      Vir  Beta        2 (B2g)      0.0422
               25      Vir  Beta        3 (B2g)      0.0825
               28      Vir  Beta        4 (B2g)      0.1287
               39      Vir  Beta        5 (B2g)      0.1882


 EOMEA transition 4/B2g
 Total energy = -78.31850250 a.u.  Excitation energy = 2.8024 eV.
 R1^2 = 0.9691  R2^2 = 0.0309  Res^2 = 7.07e-08
 Conv-d = yes

 Amplitude    Transitions between orbitals
  0.8547       infty       ->    4 (B2g) B                  
 -0.3997       infty       ->    3 (B2g) B                  
  0.2603       infty       ->    5 (B2g) B                  
  0.0728       infty       ->    7 (B2g) B                  

              Summary of significant orbitals:

               Number  Type             Irrep      Energy
               25      Vir  Beta        3 (B2g)      0.0825
               28      Vir  Beta        4 (B2g)      0.1287
               39      Vir  Beta        5 (B2g)      0.1882
               51      Vir  Beta        7 (B2g)      0.3521


 EOMEA transition 5/B2g
 Total energy = -78.25239111 a.u.  Excitation energy = 4.6014 eV.
 R1^2 = 0.9789  R2^2 = 0.0211  Res^2 = 2.30e-08
 Conv-d = yes

 Amplitude    Transitions between orbitals
 -0.9195       infty       ->    5 (B2g) B                  
  0.3360       infty       ->    4 (B2g) B                  
 -0.0964       infty       ->    7 (B2g) B                  
  0.0903       infty       ->    6 (B2g) B                  

              Summary of significant orbitals:

               Number  Type             Irrep      Energy
               28      Vir  Beta        4 (B2g)      0.1287
               39      Vir  Beta        5 (B2g)      0.1882
               45      Vir  Beta        6 (B2g)      0.2580
               51      Vir  Beta        7 (B2g)      0.3521


 EOMEA transition 6/B2g
 Total energy = -78.17781860 a.u.  Excitation energy = 6.6306 eV.
 R1^2 = 0.0000  R2^2 = 1.0000  Res^2 = 2.39e-07
 Conv-d = yes

 Amplitude    Transitions between orbitals
 -0.3947       1 (B1u) A   ->    4 (B2g) A     2 (B1u) B    
  0.3947       1 (B1u) A   ->    2 (B1u) B     4 (B2g) A    
  0.3947       1 (B1u) B   ->    4 (B2g) B     2 (B1u) B    
 -0.3947       1 (B1u) B   ->    2 (B1u) B     4 (B2g) B    
  0.3942       1 (B1u) A   ->    2 (B1u) A     4 (B2g) B    
 -0.3942       1 (B1u) A   ->    4 (B2g) B     2 (B1u) A    
 -0.3058       1 (B1u) A   ->    5 (B2g) A     2 (B1u) B    
  0.3058       1 (B1u) A   ->    2 (B1u) B     5 (B2g) A    
  0.3058       1 (B1u) B   ->    5 (B2g) B     2 (B1u) B    
 -0.3058       1 (B1u) B   ->    2 (B1u) B     5 (B2g) B    
  0.3054       1 (B1u) A   ->    2 (B1u) A     5 (B2g) B    
 -0.3054       1 (B1u) A   ->    5 (B2g) B     2 (B1u) A    
 -0.1968       1 (B1u) A   ->    3 (B2g) A     2 (B1u) B    
  0.1968       1 (B1u) A   ->    2 (B1u) B     3 (B2g) A    
  0.1967       1 (B1u) B   ->    3 (B2g) B     2 (B1u) B    
 -0.1967       1 (B1u) B   ->    2 (B1u) B     3 (B2g) B    
  0.1965       1 (B1u) A   ->    2 (B1u) A     3 (B2g) B    
 -0.1965       1 (B1u) A   ->    3 (B2g) B     2 (B1u) A    
 -0.1498       1 (B1u) A   ->    7 (B2g) A     2 (B1u) B    
  0.1498       1 (B1u) A   ->    2 (B1u) B     7 (B2g) A    
  0.1498       1 (B1u) B   ->    7 (B2g) B     2 (B1u) B    
 -0.1498       1 (B1u) B   ->    2 (B1u) B     7 (B2g) B    
  0.1496       1 (B1u) A   ->    2 (B1u) A     7 (B2g) B    
 -0.1496       1 (B1u) A   ->    7 (B2g) B     2 (B1u) A    
  0.1002       1 (B1u) A   ->    6 (B2g) A     2 (B1u) B    
 -0.1002       1 (B1u) A   ->    2 (B1u) B     6 (B2g) A    
 -0.1002       1 (B1u) B   ->    6 (B2g) B     2 (B1u) B    
  0.1002       1 (B1u) B   ->    2 (B1u) B     6 (B2g) B    
 -0.1001       1 (B1u) A   ->    2 (B1u) A     6 (B2g) B    
  0.1001       1 (B1u) A   ->    6 (B2g) B     2 (B1u) A    

              Summary of significant orbitals:

               Number  Type             Irrep      Energy
               8       Occ  Alpha       1 (B1u)     -0.3775
               8       Occ  Beta        1 (B1u)     -0.3775
               25      Vir  Alpha       3 (B2g)      0.0825
               28      Vir  Alpha       4 (B2g)      0.1287
               39      Vir  Alpha       5 (B2g)      0.1882
               45      Vir  Alpha       6 (B2g)      0.2580
               51      Vir  Alpha       7 (B2g)      0.3521
               11      Vir  Alpha       2 (B1u)      0.0109
               25      Vir  Beta        3 (B2g)      0.0825
               28      Vir  Beta        4 (B2g)      0.1287
               39      Vir  Beta        5 (B2g)      0.1882
               45      Vir  Beta        6 (B2g)      0.2580
               51      Vir  Beta        7 (B2g)      0.3521
               11      Vir  Beta        2 (B1u)      0.0109


 EOMEA transition 7/B2g
 Total energy = -78.17765958 a.u.  Excitation energy = 6.6349 eV.
 R1^2 = 0.0093  R2^2 = 0.9907  Res^2 = 1.13e-06
 Conv-d = yes

 Amplitude    Transitions between orbitals
  0.5561       1 (B1u) A   ->    2 (B1u) A     4 (B2g) B    
 -0.5561       1 (B1u) A   ->    4 (B2g) B     2 (B1u) A    
  0.4309       1 (B1u) A   ->    2 (B1u) A     5 (B2g) B    
 -0.4309       1 (B1u) A   ->    5 (B2g) B     2 (B1u) A    
  0.2778       1 (B1u) A   ->    4 (B2g) A     2 (B1u) B    
 -0.2778       1 (B1u) A   ->    2 (B1u) B     4 (B2g) A    
 -0.2771       1 (B1u) B   ->    4 (B2g) B     2 (B1u) B    
  0.2771       1 (B1u) B   ->    2 (B1u) B     4 (B2g) B    
  0.2767       1 (B1u) A   ->    2 (B1u) A     3 (B2g) B    
 -0.2767       1 (B1u) A   ->    3 (B2g) B     2 (B1u) A    
  0.2154       1 (B1u) A   ->    5 (B2g) A     2 (B1u) B    
 -0.2154       1 (B1u) A   ->    2 (B1u) B     5 (B2g) A    
 -0.2150       1 (B1u) B   ->    5 (B2g) B     2 (B1u) B    
  0.2150       1 (B1u) B   ->    2 (B1u) B     5 (B2g) B    
  0.2110       1 (B1u) A   ->    2 (B1u) A     7 (B2g) B    
 -0.2110       1 (B1u) A   ->    7 (B2g) B     2 (B1u) A    
 -0.1412       1 (B1u) A   ->    2 (B1u) A     6 (B2g) B    
  0.1412       1 (B1u) A   ->    6 (B2g) B     2 (B1u) A    
 -0.1380       1 (B1u) B   ->    3 (B2g) B     2 (B1u) B    
  0.1380       1 (B1u) B   ->    2 (B1u) B     3 (B2g) B    
  0.1379       1 (B1u) A   ->    3 (B2g) A     2 (B1u) B    
 -0.1379       1 (B1u) A   ->    2 (B1u) B     3 (B2g) A    
  0.1054       1 (B1u) A   ->    7 (B2g) A     2 (B1u) B    
 -0.1054       1 (B1u) A   ->    2 (B1u) B     7 (B2g) A    
 -0.1054       1 (B1u) B   ->    7 (B2g) B     2 (B1u) B    
  0.1054       1 (B1u) B   ->    2 (B1u) B     7 (B2g) B    

              Summary of significant orbitals:

               Number  Type             Irrep      Energy
               8       Occ  Alpha       1 (B1u)     -0.3775
               8       Occ  Beta        1 (B1u)     -0.3775
               25      Vir  Alpha       3 (B2g)      0.0825
               28      Vir  Alpha       4 (B2g)      0.1287
               39      Vir  Alpha       5 (B2g)      0.1882
               51      Vir  Alpha       7 (B2g)      0.3521
               11      Vir  Alpha       2 (B1u)      0.0109
               25      Vir  Beta        3 (B2g)      0.0825
               28      Vir  Beta        4 (B2g)      0.1287
               39      Vir  Beta        5 (B2g)      0.1882
               45      Vir  Beta        6 (B2g)      0.2580
               51      Vir  Beta        7 (B2g)      0.3521
               11      Vir  Beta        2 (B1u)      0.0109


 EOMEA transition 8/B2g
 Total energy = -78.17040174 a.u.  Excitation energy = 6.8324 eV.
 R1^2 = 0.9721  R2^2 = 0.0279  Res^2 = 1.66e-08
 Conv-d = yes

 Amplitude    Transitions between orbitals
  0.9673       infty       ->    6 (B2g) B                  
  0.1419       infty       ->    5 (B2g) B                  
 -0.1108       infty       ->    7 (B2g) B                  
  0.0555       infty       ->    4 (B2g) B                  

              Summary of significant orbitals:

               Number  Type             Irrep      Energy
               28      Vir  Beta        4 (B2g)      0.1287
               39      Vir  Beta        5 (B2g)      0.1882
               45      Vir  Beta        6 (B2g)      0.2580
               51      Vir  Beta        7 (B2g)      0.3521


 EOMEA transition 9/B2g
 Total energy = -78.15491668 a.u.  Excitation energy = 7.2538 eV.
 R1^2 = 0.0000  R2^2 = 1.0000  Res^2 = 5.20e-06
 Conv-d = yes

 Amplitude    Transitions between orbitals
  0.3940       1 (B1u) B   ->    4 (B2g) B     3 (B1u) B    
 -0.3940       1 (B1u) B   ->    3 (B1u) B     4 (B2g) B    
 -0.3938       1 (B1u) A   ->    4 (B2g) A     3 (B1u) B    
  0.3938       1 (B1u) A   ->    3 (B1u) B     4 (B2g) A    
  0.3937       1 (B1u) A   ->    3 (B1u) A     4 (B2g) B    
 -0.3937       1 (B1u) A   ->    4 (B2g) B     3 (B1u) A    
  0.3035       1 (B1u) B   ->    5 (B2g) B     3 (B1u) B    
 -0.3035       1 (B1u) B   ->    3 (B1u) B     5 (B2g) B    
  0.3034       1 (B1u) A   ->    3 (B1u) A     5 (B2g) B    
 -0.3034       1 (B1u) A   ->    5 (B2g) B     3 (B1u) A    
 -0.3034       1 (B1u) A   ->    5 (B2g) A     3 (B1u) B    
  0.3034       1 (B1u) A   ->    3 (B1u) B     5 (B2g) A    
 -0.1994       1 (B1u) A   ->    3 (B2g) A     3 (B1u) B    
  0.1994       1 (B1u) A   ->    3 (B1u) B     3 (B2g) A    
  0.1992       1 (B1u) B   ->    3 (B2g) B     3 (B1u) B    
 -0.1992       1 (B1u) B   ->    3 (B1u) B     3 (B2g) B    
  0.1991       1 (B1u) A   ->    3 (B1u) A     3 (B2g) B    
 -0.1991       1 (B1u) A   ->    3 (B2g) B     3 (B1u) A    
  0.1484       1 (B1u) B   ->    7 (B2g) B     3 (B1u) B    
 -0.1484       1 (B1u) B   ->    3 (B1u) B     7 (B2g) B    
 -0.1484       1 (B1u) A   ->    7 (B2g) A     3 (B1u) B    
  0.1484       1 (B1u) A   ->    3 (B1u) B     7 (B2g) A    
  0.1482       1 (B1u) A   ->    3 (B1u) A     7 (B2g) B    
 -0.1482       1 (B1u) A   ->    7 (B2g) B     3 (B1u) A    

              Summary of significant orbitals:

               Number  Type             Irrep      Energy
               8       Occ  Alpha       1 (B1u)     -0.3775
               8       Occ  Beta        1 (B1u)     -0.3775
               25      Vir  Alpha       3 (B2g)      0.0825
               28      Vir  Alpha       4 (B2g)      0.1287
               39      Vir  Alpha       5 (B2g)      0.1882
               51      Vir  Alpha       7 (B2g)      0.3521
               17      Vir  Alpha       3 (B1u)      0.0348
               25      Vir  Beta        3 (B2g)      0.0825
               28      Vir  Beta        4 (B2g)      0.1287
               39      Vir  Beta        5 (B2g)      0.1882
               51      Vir  Beta        7 (B2g)      0.3521
               17      Vir  Beta        3 (B1u)      0.0348


 EOMEA transition 10/B2g
 Total energy = -78.15341744 a.u.  Excitation energy = 7.2946 eV.
 R1^2 = 0.0168  R2^2 = 0.9832  Res^2 = 1.09e-06
 Conv-d = yes

 Amplitude    Transitions between orbitals
  0.5536       1 (B1u) A   ->    3 (B1u) A     4 (B2g) B    
 -0.5536       1 (B1u) A   ->    4 (B2g) B     3 (B1u) A    
  0.4273       1 (B1u) A   ->    3 (B1u) A     5 (B2g) B    
 -0.4273       1 (B1u) A   ->    5 (B2g) B     3 (B1u) A    
  0.2776       1 (B1u) A   ->    4 (B2g) A     3 (B1u) B    
 -0.2776       1 (B1u) A   ->    3 (B1u) B     4 (B2g) A    
  0.2764       1 (B1u) A   ->    3 (B1u) A     3 (B2g) B    
 -0.2764       1 (B1u) A   ->    3 (B2g) B     3 (B1u) A    
 -0.2761       1 (B1u) B   ->    4 (B2g) B     3 (B1u) B    
  0.2761       1 (B1u) B   ->    3 (B1u) B     4 (B2g) B    
  0.2143       1 (B1u) A   ->    5 (B2g) A     3 (B1u) B    
 -0.2143       1 (B1u) A   ->    3 (B1u) B     5 (B2g) A    
 -0.2129       1 (B1u) B   ->    5 (B2g) B     3 (B1u) B    
  0.2129       1 (B1u) B   ->    3 (B1u) B     5 (B2g) B    
  0.2085       1 (B1u) A   ->    3 (B1u) A     7 (B2g) B    
 -0.2085       1 (B1u) A   ->    7 (B2g) B     3 (B1u) A    
 -0.1401       1 (B1u) A   ->    3 (B1u) A     6 (B2g) B    
  0.1401       1 (B1u) A   ->    6 (B2g) B     3 (B1u) A    
 -0.1394       1 (B1u) B   ->    3 (B2g) B     3 (B1u) B    
  0.1394       1 (B1u) B   ->    3 (B1u) B     3 (B2g) B    
  0.1370       1 (B1u) A   ->    3 (B2g) A     3 (B1u) B    
 -0.1370       1 (B1u) A   ->    3 (B1u) B     3 (B2g) A    
  0.1044       1 (B1u) A   ->    7 (B2g) A     3 (B1u) B    
 -0.1044       1 (B1u) A   ->    3 (B1u) B     7 (B2g) A    
 -0.1042       1 (B1u) B   ->    7 (B2g) B     3 (B1u) B    
  0.1042       1 (B1u) B   ->    3 (B1u) B     7 (B2g) B    

              Summary of significant orbitals:

               Number  Type             Irrep      Energy
               8       Occ  Alpha       1 (B1u)     -0.3775
               8       Occ  Beta        1 (B1u)     -0.3775
               25      Vir  Alpha       3 (B2g)      0.0825
               28      Vir  Alpha       4 (B2g)      0.1287
               39      Vir  Alpha       5 (B2g)      0.1882
               51      Vir  Alpha       7 (B2g)      0.3521
               17      Vir  Alpha       3 (B1u)      0.0348
               25      Vir  Beta        3 (B2g)      0.0825
               28      Vir  Beta        4 (B2g)      0.1287
               39      Vir  Beta        5 (B2g)      0.1882
               45      Vir  Beta        6 (B2g)      0.2580
               51      Vir  Beta        7 (B2g)      0.3521
               17      Vir  Beta        3 (B1u)      0.0348


Running a double precision version
      EOMEA-CCSD/MP2 left amplitudes will be solved using Davidson.
        Amplitudes will be solved using MOM  algorithm.
     Hard-coded thresholds: 
     LinDepThresh=1.00e-15  NormThresh=1.00e-06  ReorthogonThresh=1.00e-02

      Roots     MaxVec    MaxIter   Precond   Conv      Shift    
      10        120       60        1         1.00e-05  0.00e+00  
 ------------------------------------------------------------------------------
      Iter ConvRoots NVecs ResNorm Current eigenvalues (eV)
 ------------------------------------------------------------------------------
      0    0      10    5.72e-04   0.4327   1.1219   1.9809   2.8024   4.6014   6.6306   6.6349   6.8324   7.2538   7.2946   
      1    0      20    2.44e-04   0.4326   1.1218   1.9810   2.8024   4.6014   6.6306   6.6349   6.8324   7.2537   7.2946   
      2    6      30    2.49e-05   0.4326*  1.1218*  1.9810   2.8024   4.6014   6.6306*  6.6349*  6.8324   7.2537*  7.2946*  
      3    10     34    2.80e-06   0.4326*  1.1219*  1.9810*  2.8024*  4.6014*  6.6306*  6.6349*  6.8324*  7.2537*  7.2946*  

     Davidson procedure converged

 Excited state properties for  EOMEA-CCSD transition 1/B2g
 Dipole moment (a.u.): 0.000000 (X 0.000000, Y 0.000000, Z 0.000000)
 R-squared (a.u.): 518.587740 (XX 235.212210, YY 84.448777, ZZ 198.926752)
 Gauge origin (a.u.): (0.000000, 0.000000, 0.000000)
 Angular momentum (a.u.) against gauge origin: 
 (X 0.000000i, Y 0.000000i, Z 0.000000i)
 Traces of the OPDMs: Tr(AA) 8.000000, Tr(BB) 9.000000

 Excited state properties for  EOMEA-CCSD transition 2/B2g
 Dipole moment (a.u.): 0.000000 (X 0.000000, Y 0.000000, Z 0.000000)
 R-squared (a.u.): 384.583985 (XX 178.159076, YY 65.245549, ZZ 141.179360)
 Gauge origin (a.u.): (0.000000, 0.000000, 0.000000)
 Angular momentum (a.u.) against gauge origin: 
 (X 0.000000i, Y 0.000000i, Z 0.000000i)
 Traces of the OPDMs: Tr(AA) 8.000000, Tr(BB) 9.000000

 Excited state properties for  EOMEA-CCSD transition 3/B2g
 Dipole moment (a.u.): 0.000000 (X 0.000000, Y 0.000000, Z 0.000000)
 R-squared (a.u.): 233.781059 (XX 112.414676, YY 44.408688, ZZ 76.957695)
 Gauge origin (a.u.): (0.000000, 0.000000, 0.000000)
 Angular momentum (a.u.) against gauge origin: 
 (X 0.000000i, Y 0.000000i, Z 0.000000i)
 Traces of the OPDMs: Tr(AA) 8.000000, Tr(BB) 9.000000

 Excited state properties for  EOMEA-CCSD transition 4/B2g
 Dipole moment (a.u.): 0.000000 (X 0.000000, Y 0.000000, Z 0.000000)
 R-squared (a.u.): 238.636311 (XX 114.117029, YY 45.321609, ZZ 79.197674)
 Gauge origin (a.u.): (0.000000, 0.000000, 0.000000)
 Angular momentum (a.u.) against gauge origin: 
 (X 0.000000i, Y 0.000000i, Z 0.000000i)
 Traces of the OPDMs: Tr(AA) 8.000000, Tr(BB) 9.000000

 Excited state properties for  EOMEA-CCSD transition 5/B2g
 Dipole moment (a.u.): 0.000000 (X 0.000000, Y 0.000000, Z 0.000000)
 R-squared (a.u.): 235.921168 (XX 116.256069, YY 43.822514, ZZ 75.842586)
 Gauge origin (a.u.): (0.000000, 0.000000, 0.000000)
 Angular momentum (a.u.) against gauge origin: 
 (X 0.000000i, Y 0.000000i, Z 0.000000i)
 Traces of the OPDMs: Tr(AA) 8.000000, Tr(BB) 9.000000

 Excited state properties for  EOMEA-CCSD transition 6/B2g
 Dipole moment (a.u.): 0.000000 (X 0.000000, Y 0.000000, Z 0.000000)
 R-squared (a.u.): 434.620570 (XX 120.367155, YY 92.159248, ZZ 222.094167)
 Gauge origin (a.u.): (0.000000, 0.000000, 0.000000)
 Angular momentum (a.u.) against gauge origin: 
 (X 0.000000i, Y 0.000000i, Z 0.000000i)
 Traces of the OPDMs: Tr(AA) 8.000000, Tr(BB) 9.000000

 Excited state properties for  EOMEA-CCSD transition 7/B2g
 Dipole moment (a.u.): 0.000000 (X 0.000000, Y 0.000000, Z 0.000000)
 R-squared (a.u.): 437.157780 (XX 121.058405, YY 92.621952, ZZ 223.477422)
 Gauge origin (a.u.): (0.000000, 0.000000, 0.000000)
 Angular momentum (a.u.) against gauge origin: 
 (X 0.000000i, Y 0.000000i, Z 0.000000i)
 Traces of the OPDMs: Tr(AA) 8.000000, Tr(BB) 9.000000

 Excited state properties for  EOMEA-CCSD transition 8/B2g
 Dipole moment (a.u.): 0.000000 (X 0.000000, Y 0.000000, Z 0.000000)
 R-squared (a.u.): 174.801718 (XX 87.531047, YY 35.548288, ZZ 51.722383)
 Gauge origin (a.u.): (0.000000, 0.000000, 0.000000)
 Angular momentum (a.u.) against gauge origin: 
 (X 0.000000i, Y 0.000000i, Z 0.000000i)
 Traces of the OPDMs: Tr(AA) 8.000000, Tr(BB) 9.000000

 Excited state properties for  EOMEA-CCSD transition 9/B2g
 Dipole moment (a.u.): 0.000000 (X 0.000000, Y 0.000000, Z 0.000000)
 R-squared (a.u.): 366.524336 (XX 105.965879, YY 78.736113, ZZ 181.822344)
 Gauge origin (a.u.): (0.000000, 0.000000, 0.000000)
 Angular momentum (a.u.) against gauge origin: 
 (X 0.000000i, Y 0.000000i, Z 0.000000i)
 Traces of the OPDMs: Tr(AA) 8.000000, Tr(BB) 9.000000

 Excited state properties for  EOMEA-CCSD transition 10/B2g
 Dipole moment (a.u.): 0.000000 (X 0.000000, Y 0.000000, Z 0.000000)
 R-squared (a.u.): 371.424535 (XX 106.995380, YY 79.715882, ZZ 184.713273)
 Gauge origin (a.u.): (0.000000, 0.000000, 0.000000)
 Angular momentum (a.u.) against gauge origin: 
 (X 0.000000i, Y 0.000000i, Z 0.000000i)
 Traces of the OPDMs: Tr(AA) 8.000000, Tr(BB) 9.000000

 EOMEA-CCSD calculation:   CPU 885.38 s  wall 139.57 s


 Start computing the transition properties

 ------------------------------------------------------------------------------
 State A: eomea_ccsd/b: 1/B2g
 State B: eomea_ccsd/b: 2/B2g
 Energy GAP = 0.025328 a.u. = 0.689200 eV
 Transition dipole moment (a.u.):
   A->B: 0.000000 (X 0.000000, Y 0.000000, Z 0.000000)
   B->A: 0.000000 (X 0.000000, Y 0.000000, Z 0.000000)
 Oscillator strength (a.u.): 0.000000
 Transition angular momentum against gauge origin (a.u.):
   A->B:  (X 0.000000i, Y 0.000000i, Z 0.000000i)
   B->A:  (X 0.000000i, Y 0.000000i, Z 0.000000i)

 Electronic circular dichroism (ECD):
 Transition dipole moment/angular momentum:
   A->B->A:  (X 0.000000, Y 0.000000, Z 0.000000)
   Rotatory strength, length gauge (a.u.): 0.000000
   Rotatory strength, length gauge (1.0e-40 cgs): 0.000000
 Transition linear momentum/angular momentum:
   A->B->A:  (X 0.000000, Y 0.000000, Z 0.000000)
   Rotatory strength, velocity gauge (a.u.): 0.000000
   Rotatory strength, velocity gauge (1.0e-40 cgs): 0.000000

 Norm of one-particle transition density matrix:
   A->B: 0.998961;   B->A: 0.998734
   ||gamma^AB||*||gamma^BA||: 0.997696

 ------------------------------------------------------------------------------
 State A: eomea_ccsd/b: 1/B2g
 State B: eomea_ccsd/b: 3/B2g
 Energy GAP = 0.056899 a.u. = 1.548298 eV
 Transition dipole moment (a.u.):
   A->B: 0.000000 (X 0.000000, Y 0.000000, Z 0.000000)
   B->A: 0.000000 (X 0.000000, Y 0.000000, Z 0.000000)
 Oscillator strength (a.u.): 0.000000
 Transition angular momentum against gauge origin (a.u.):
   A->B:  (X 0.000000i, Y 0.000000i, Z 0.000000i)
   B->A:  (X 0.000000i, Y 0.000000i, Z 0.000000i)

 Electronic circular dichroism (ECD):
 Transition dipole moment/angular momentum:
   A->B->A:  (X 0.000000, Y 0.000000, Z 0.000000)
   Rotatory strength, length gauge (a.u.): 0.000000
   Rotatory strength, length gauge (1.0e-40 cgs): 0.000000
 Transition linear momentum/angular momentum:
   A->B->A:  (X 0.000000, Y 0.000000, Z 0.000000)
   Rotatory strength, velocity gauge (a.u.): 0.000000
   Rotatory strength, velocity gauge (1.0e-40 cgs): 0.000000

 Norm of one-particle transition density matrix:
   A->B: 0.988691;   B->A: 0.985682
   ||gamma^AB||*||gamma^BA||: 0.974535

 ------------------------------------------------------------------------------
 State A: eomea_ccsd/b: 1/B2g
 State B: eomea_ccsd/b: 4/B2g
 Energy GAP = 0.087086 a.u. = 2.369731 eV
 Transition dipole moment (a.u.):
   A->B: 0.000000 (X 0.000000, Y 0.000000, Z 0.000000)
   B->A: 0.000000 (X 0.000000, Y 0.000000, Z 0.000000)
 Oscillator strength (a.u.): 0.000000
 Transition angular momentum against gauge origin (a.u.):
   A->B:  (X 0.000000i, Y 0.000000i, Z 0.000000i)
   B->A:  (X 0.000000i, Y 0.000000i, Z 0.000000i)

 Electronic circular dichroism (ECD):
 Transition dipole moment/angular momentum:
   A->B->A:  (X 0.000000, Y 0.000000, Z 0.000000)
   Rotatory strength, length gauge (a.u.): 0.000000
   Rotatory strength, length gauge (1.0e-40 cgs): 0.000000
 Transition linear momentum/angular momentum:
   A->B->A:  (X 0.000000, Y 0.000000, Z 0.000000)
   Rotatory strength, velocity gauge (a.u.): 0.000000
   Rotatory strength, velocity gauge (1.0e-40 cgs): 0.000000

 Norm of one-particle transition density matrix:
   A->B: 0.985037;   B->A: 0.981022
   ||gamma^AB||*||gamma^BA||: 0.966343

 ------------------------------------------------------------------------------
 State A: eomea_ccsd/b: 1/B2g
 State B: eomea_ccsd/b: 5/B2g
 Energy GAP = 0.153197 a.u. = 4.168715 eV
 Transition dipole moment (a.u.):
   A->B: 0.000000 (X 0.000000, Y 0.000000, Z 0.000000)
   B->A: 0.000000 (X 0.000000, Y 0.000000, Z 0.000000)
 Oscillator strength (a.u.): 0.000000
 Transition angular momentum against gauge origin (a.u.):
   A->B:  (X 0.000000i, Y 0.000000i, Z 0.000000i)
   B->A:  (X 0.000000i, Y 0.000000i, Z 0.000000i)

 Electronic circular dichroism (ECD):
 Transition dipole moment/angular momentum:
   A->B->A:  (X 0.000000, Y 0.000000, Z 0.000000)
   Rotatory strength, length gauge (a.u.): 0.000000
   Rotatory strength, length gauge (1.0e-40 cgs): 0.000000
 Transition linear momentum/angular momentum:
   A->B->A:  (X 0.000000, Y 0.000000, Z 0.000000)
   Rotatory strength, velocity gauge (a.u.): -0.000000
   Rotatory strength, velocity gauge (1.0e-40 cgs): -0.000000

 Norm of one-particle transition density matrix:
   A->B: 0.989612;   B->A: 0.987070
   ||gamma^AB||*||gamma^BA||: 0.976816

 ------------------------------------------------------------------------------
 State A: eomea_ccsd/b: 1/B2g
 State B: eomea_ccsd/b: 6/B2g
 Energy GAP = 0.227770 a.u. = 6.197937 eV
 Transition dipole moment (a.u.):
   A->B: 0.000000 (X 0.000000, Y 0.000000, Z 0.000000)
   B->A: 0.000000 (X 0.000000, Y 0.000000, Z 0.000000)
 Oscillator strength (a.u.): -0.000000
 Transition angular momentum against gauge origin (a.u.):
   A->B:  (X 0.000000i, Y 0.000000i, Z 0.000000i)
   B->A:  (X 0.000000i, Y 0.000000i, Z 0.000000i)

 Electronic circular dichroism (ECD):
 Transition dipole moment/angular momentum:
   A->B->A:  (X 0.000000, Y 0.000000, Z 0.000000)
   Rotatory strength, length gauge (a.u.): -0.000000
   Rotatory strength, length gauge (1.0e-40 cgs): -0.000000
 Transition linear momentum/angular momentum:
   A->B->A:  (X 0.000000, Y 0.000000, Z 0.000000)
   Rotatory strength, velocity gauge (a.u.): 0.000000
   Rotatory strength, velocity gauge (1.0e-40 cgs): 0.000000

 Norm of one-particle transition density matrix:
   A->B: 0.032286;   B->A: 0.032684
   ||gamma^AB||*||gamma^BA||: 0.001055

 ------------------------------------------------------------------------------
 State A: eomea_ccsd/b: 1/B2g
 State B: eomea_ccsd/b: 7/B2g
 Energy GAP = 0.227929 a.u. = 6.202264 eV
 Transition dipole moment (a.u.):
   A->B: 0.000000 (X 0.000000, Y 0.000000, Z 0.000000)
   B->A: 0.000000 (X 0.000000, Y 0.000000, Z 0.000000)
 Oscillator strength (a.u.): 0.000000
 Transition angular momentum against gauge origin (a.u.):
   A->B:  (X 0.000000i, Y 0.000000i, Z 0.000000i)
   B->A:  (X 0.000000i, Y 0.000000i, Z 0.000000i)

 Electronic circular dichroism (ECD):
 Transition dipole moment/angular momentum:
   A->B->A:  (X 0.000000, Y 0.000000, Z 0.000000)
   Rotatory strength, length gauge (a.u.): 0.000000
   Rotatory strength, length gauge (1.0e-40 cgs): 0.000000
 Transition linear momentum/angular momentum:
   A->B->A:  (X 0.000000, Y 0.000000, Z 0.000000)
   Rotatory strength, velocity gauge (a.u.): 0.000000
   Rotatory strength, velocity gauge (1.0e-40 cgs): 0.000000

 Norm of one-particle transition density matrix:
   A->B: 0.101931;   B->A: 0.094659
   ||gamma^AB||*||gamma^BA||: 0.009649

 ------------------------------------------------------------------------------
 State A: eomea_ccsd/b: 1/B2g
 State B: eomea_ccsd/b: 8/B2g
 Energy GAP = 0.235187 a.u. = 6.399760 eV
 Transition dipole moment (a.u.):
   A->B: 0.000000 (X 0.000000, Y 0.000000, Z 0.000000)
   B->A: 0.000000 (X 0.000000, Y 0.000000, Z 0.000000)
 Oscillator strength (a.u.): 0.000000
 Transition angular momentum against gauge origin (a.u.):
   A->B:  (X 0.000000i, Y 0.000000i, Z 0.000000i)
   B->A:  (X 0.000000i, Y 0.000000i, Z 0.000000i)

 Electronic circular dichroism (ECD):
 Transition dipole moment/angular momentum:
   A->B->A:  (X 0.000000, Y 0.000000, Z 0.000000)
   Rotatory strength, length gauge (a.u.): 0.000000
   Rotatory strength, length gauge (1.0e-40 cgs): 0.000000
 Transition linear momentum/angular momentum:
   A->B->A:  (X 0.000000, Y 0.000000, Z 0.000000)
   Rotatory strength, velocity gauge (a.u.): 0.000000
   Rotatory strength, velocity gauge (1.0e-40 cgs): 0.000000

 Norm of one-particle transition density matrix:
   A->B: 0.985979;   B->A: 0.983341
   ||gamma^AB||*||gamma^BA||: 0.969554

 ------------------------------------------------------------------------------
 State A: eomea_ccsd/b: 1/B2g
 State B: eomea_ccsd/b: 9/B2g
 Energy GAP = 0.250672 a.u. = 6.821130 eV
 Transition dipole moment (a.u.):
   A->B: 0.000000 (X 0.000000, Y 0.000000, Z 0.000000)
   B->A: 0.000000 (X 0.000000, Y 0.000000, Z 0.000000)
 Oscillator strength (a.u.): -0.000000
 Transition angular momentum against gauge origin (a.u.):
   A->B:  (X 0.000000i, Y 0.000000i, Z 0.000000i)
   B->A:  (X 0.000000i, Y 0.000000i, Z 0.000000i)

 Electronic circular dichroism (ECD):
 Transition dipole moment/angular momentum:
   A->B->A:  (X 0.000000, Y 0.000000, Z 0.000000)
   Rotatory strength, length gauge (a.u.): -0.000000
   Rotatory strength, length gauge (1.0e-40 cgs): -0.000000
 Transition linear momentum/angular momentum:
   A->B->A:  (X 0.000000, Y 0.000000, Z 0.000000)
   Rotatory strength, velocity gauge (a.u.): -0.000000
   Rotatory strength, velocity gauge (1.0e-40 cgs): -0.000000

 Norm of one-particle transition density matrix:
   A->B: 0.032004;   B->A: 0.032556
   ||gamma^AB||*||gamma^BA||: 0.001042

 ------------------------------------------------------------------------------
 State A: eomea_ccsd/b: 1/B2g
 State B: eomea_ccsd/b: 10/B2g
 Energy GAP = 0.252171 a.u. = 6.861927 eV
 Transition dipole moment (a.u.):
   A->B: 0.000000 (X 0.000000, Y 0.000000, Z 0.000000)
   B->A: 0.000000 (X 0.000000, Y 0.000000, Z 0.000000)
 Oscillator strength (a.u.): 0.000000
 Transition angular momentum against gauge origin (a.u.):
   A->B:  (X 0.000000i, Y 0.000000i, Z 0.000000i)
   B->A:  (X 0.000000i, Y 0.000000i, Z 0.000000i)

 Electronic circular dichroism (ECD):
 Transition dipole moment/angular momentum:
   A->B->A:  (X 0.000000, Y 0.000000, Z 0.000000)
   Rotatory strength, length gauge (a.u.): 0.000000
   Rotatory strength, length gauge (1.0e-40 cgs): 0.000000
 Transition linear momentum/angular momentum:
   A->B->A:  (X 0.000000, Y 0.000000, Z 0.000000)
   Rotatory strength, velocity gauge (a.u.): -0.000000
   Rotatory strength, velocity gauge (1.0e-40 cgs): -0.000000

 Norm of one-particle transition density matrix:
   A->B: 0.133917;   B->A: 0.125697
   ||gamma^AB||*||gamma^BA||: 0.016833

 ------------------------------------------------------------------------------
 State A: eomea_ccsd/b: 2/B2g
 State B: eomea_ccsd/b: 3/B2g
 Energy GAP = 0.031571 a.u. = 0.859098 eV
 Transition dipole moment (a.u.):
   A->B: 0.000000 (X 0.000000, Y 0.000000, Z 0.000000)
   B->A: 0.000000 (X 0.000000, Y 0.000000, Z 0.000000)
 Oscillator strength (a.u.): 0.000000
 Transition angular momentum against gauge origin (a.u.):
   A->B:  (X 0.000000i, Y 0.000000i, Z 0.000000i)
   B->A:  (X 0.000000i, Y 0.000000i, Z 0.000000i)

 Electronic circular dichroism (ECD):
 Transition dipole moment/angular momentum:
   A->B->A:  (X 0.000000, Y 0.000000, Z 0.000000)
   Rotatory strength, length gauge (a.u.): -0.000000
   Rotatory strength, length gauge (1.0e-40 cgs): -0.000000
 Transition linear momentum/angular momentum:
   A->B->A:  (X 0.000000, Y 0.000000, Z 0.000000)
   Rotatory strength, velocity gauge (a.u.): -0.000000
   Rotatory strength, velocity gauge (1.0e-40 cgs): -0.000000

 Norm of one-particle transition density matrix:
   A->B: 0.988296;   B->A: 0.985518
   ||gamma^AB||*||gamma^BA||: 0.973984

 ------------------------------------------------------------------------------
 State A: eomea_ccsd/b: 2/B2g
 State B: eomea_ccsd/b: 4/B2g
 Energy GAP = 0.061758 a.u. = 1.680531 eV
 Transition dipole moment (a.u.):
   A->B: 0.000000 (X 0.000000, Y 0.000000, Z 0.000000)
   B->A: 0.000000 (X 0.000000, Y 0.000000, Z 0.000000)
 Oscillator strength (a.u.): 0.000000
 Transition angular momentum against gauge origin (a.u.):
   A->B:  (X 0.000000i, Y 0.000000i, Z 0.000000i)
   B->A:  (X 0.000000i, Y 0.000000i, Z 0.000000i)

 Electronic circular dichroism (ECD):
 Transition dipole moment/angular momentum:
   A->B->A:  (X 0.000000, Y 0.000000, Z 0.000000)
   Rotatory strength, length gauge (a.u.): 0.000000
   Rotatory strength, length gauge (1.0e-40 cgs): 0.000000
 Transition linear momentum/angular momentum:
   A->B->A:  (X 0.000000, Y 0.000000, Z 0.000000)
   Rotatory strength, velocity gauge (a.u.): 0.000000
   Rotatory strength, velocity gauge (1.0e-40 cgs): 0.000000

 Norm of one-particle transition density matrix:
   A->B: 0.984702;   B->A: 0.980926
   ||gamma^AB||*||gamma^BA||: 0.965920

 ------------------------------------------------------------------------------
 State A: eomea_ccsd/b: 2/B2g
 State B: eomea_ccsd/b: 5/B2g
 Energy GAP = 0.127870 a.u. = 3.479515 eV
 Transition dipole moment (a.u.):
   A->B: 0.000000 (X 0.000000, Y 0.000000, Z 0.000000)
   B->A: 0.000000 (X 0.000000, Y 0.000000, Z 0.000000)
 Oscillator strength (a.u.): 0.000000
 Transition angular momentum against gauge origin (a.u.):
   A->B:  (X 0.000000i, Y 0.000000i, Z 0.000000i)
   B->A:  (X 0.000000i, Y 0.000000i, Z 0.000000i)

 Electronic circular dichroism (ECD):
 Transition dipole moment/angular momentum:
   A->B->A:  (X 0.000000, Y 0.000000, Z 0.000000)
   Rotatory strength, length gauge (a.u.): -0.000000
   Rotatory strength, length gauge (1.0e-40 cgs): -0.000000
 Transition linear momentum/angular momentum:
   A->B->A:  (X 0.000000, Y 0.000000, Z 0.000000)
   Rotatory strength, velocity gauge (a.u.): 0.000000
   Rotatory strength, velocity gauge (1.0e-40 cgs): 0.000000

 Norm of one-particle transition density matrix:
   A->B: 0.988849;   B->A: 0.986548
   ||gamma^AB||*||gamma^BA||: 0.975547

 ------------------------------------------------------------------------------
 State A: eomea_ccsd/b: 2/B2g
 State B: eomea_ccsd/b: 6/B2g
 Energy GAP = 0.202442 a.u. = 5.508737 eV
 Transition dipole moment (a.u.):
   A->B: 0.000000 (X 0.000000, Y 0.000000, Z 0.000000)
   B->A: 0.000000 (X 0.000000, Y 0.000000, Z 0.000000)
 Oscillator strength (a.u.): -0.000000
 Transition angular momentum against gauge origin (a.u.):
   A->B:  (X 0.000000i, Y 0.000000i, Z 0.000000i)
   B->A:  (X 0.000000i, Y 0.000000i, Z 0.000000i)

 Electronic circular dichroism (ECD):
 Transition dipole moment/angular momentum:
   A->B->A:  (X 0.000000, Y 0.000000, Z 0.000000)
   Rotatory strength, length gauge (a.u.): 0.000000
   Rotatory strength, length gauge (1.0e-40 cgs): 0.000000
 Transition linear momentum/angular momentum:
   A->B->A:  (X 0.000000, Y 0.000000, Z 0.000000)
   Rotatory strength, velocity gauge (a.u.): 0.000000
   Rotatory strength, velocity gauge (1.0e-40 cgs): 0.000000

 Norm of one-particle transition density matrix:
   A->B: 0.147416;   B->A: 0.150533
   ||gamma^AB||*||gamma^BA||: 0.022191

 ------------------------------------------------------------------------------
 State A: eomea_ccsd/b: 2/B2g
 State B: eomea_ccsd/b: 7/B2g
 Energy GAP = 0.202601 a.u. = 5.513064 eV
 Transition dipole moment (a.u.):
   A->B: 0.000000 (X 0.000000, Y 0.000000, Z 0.000000)
   B->A: 0.000000 (X 0.000000, Y 0.000000, Z 0.000000)
 Oscillator strength (a.u.): 0.000000
 Transition angular momentum against gauge origin (a.u.):
   A->B:  (X 0.000000i, Y 0.000000i, Z 0.000000i)
   B->A:  (X 0.000000i, Y 0.000000i, Z 0.000000i)

 Electronic circular dichroism (ECD):
 Transition dipole moment/angular momentum:
   A->B->A:  (X 0.000000, Y 0.000000, Z 0.000000)
   Rotatory strength, length gauge (a.u.): -0.000000
   Rotatory strength, length gauge (1.0e-40 cgs): -0.000000
 Transition linear momentum/angular momentum:
   A->B->A:  (X 0.000000, Y 0.000000, Z 0.000000)
   Rotatory strength, velocity gauge (a.u.): 0.000000
   Rotatory strength, velocity gauge (1.0e-40 cgs): 0.000000

 Norm of one-particle transition density matrix:
   A->B: 0.189038;   B->A: 0.188227
   ||gamma^AB||*||gamma^BA||: 0.035582

 ------------------------------------------------------------------------------
 State A: eomea_ccsd/b: 2/B2g
 State B: eomea_ccsd/b: 8/B2g
 Energy GAP = 0.209859 a.u. = 5.710560 eV
 Transition dipole moment (a.u.):
   A->B: 0.000000 (X 0.000000, Y 0.000000, Z 0.000000)
   B->A: 0.000000 (X 0.000000, Y 0.000000, Z 0.000000)
 Oscillator strength (a.u.): 0.000000
 Transition angular momentum against gauge origin (a.u.):
   A->B:  (X 0.000000i, Y 0.000000i, Z 0.000000i)
   B->A:  (X 0.000000i, Y 0.000000i, Z 0.000000i)

 Electronic circular dichroism (ECD):
 Transition dipole moment/angular momentum:
   A->B->A:  (X 0.000000, Y 0.000000, Z 0.000000)
   Rotatory strength, length gauge (a.u.): 0.000000
   Rotatory strength, length gauge (1.0e-40 cgs): 0.000000
 Transition linear momentum/angular momentum:
   A->B->A:  (X 0.000000, Y 0.000000, Z 0.000000)
   Rotatory strength, velocity gauge (a.u.): 0.000000
   Rotatory strength, velocity gauge (1.0e-40 cgs): 0.000000

 Norm of one-particle transition density matrix:
   A->B: 0.985240;   B->A: 0.982883
   ||gamma^AB||*||gamma^BA||: 0.968376

 ------------------------------------------------------------------------------
 State A: eomea_ccsd/b: 2/B2g
 State B: eomea_ccsd/b: 9/B2g
 Energy GAP = 0.225344 a.u. = 6.131930 eV
 Transition dipole moment (a.u.):
   A->B: 0.000000 (X 0.000000, Y 0.000000, Z 0.000000)
   B->A: 0.000000 (X 0.000000, Y 0.000000, Z 0.000000)
 Oscillator strength (a.u.): 0.000000
 Transition angular momentum against gauge origin (a.u.):
   A->B:  (X 0.000000i, Y 0.000000i, Z 0.000000i)
   B->A:  (X 0.000000i, Y 0.000000i, Z 0.000000i)

 Electronic circular dichroism (ECD):
 Transition dipole moment/angular momentum:
   A->B->A:  (X 0.000000, Y 0.000000, Z 0.000000)
   Rotatory strength, length gauge (a.u.): -0.000000
   Rotatory strength, length gauge (1.0e-40 cgs): -0.000000
 Transition linear momentum/angular momentum:
   A->B->A:  (X 0.000000, Y 0.000000, Z 0.000000)
   Rotatory strength, velocity gauge (a.u.): -0.000000
   Rotatory strength, velocity gauge (1.0e-40 cgs): -0.000000

 Norm of one-particle transition density matrix:
   A->B: 0.153541;   B->A: 0.156398
   ||gamma^AB||*||gamma^BA||: 0.024014

 ------------------------------------------------------------------------------
 State A: eomea_ccsd/b: 2/B2g
 State B: eomea_ccsd/b: 10/B2g
 Energy GAP = 0.226843 a.u. = 6.172727 eV
 Transition dipole moment (a.u.):
   A->B: 0.000000 (X 0.000000, Y 0.000000, Z 0.000000)
   B->A: 0.000000 (X 0.000000, Y 0.000000, Z 0.000000)
 Oscillator strength (a.u.): 0.000000
 Transition angular momentum against gauge origin (a.u.):
   A->B:  (X 0.000000i, Y 0.000000i, Z 0.000000i)
   B->A:  (X 0.000000i, Y 0.000000i, Z 0.000000i)

 Electronic circular dichroism (ECD):
 Transition dipole moment/angular momentum:
   A->B->A:  (X 0.000000, Y 0.000000, Z 0.000000)
   Rotatory strength, length gauge (a.u.): 0.000000
   Rotatory strength, length gauge (1.0e-40 cgs): 0.000000
 Transition linear momentum/angular momentum:
   A->B->A:  (X 0.000000, Y 0.000000, Z 0.000000)
   Rotatory strength, velocity gauge (a.u.): 0.000000
   Rotatory strength, velocity gauge (1.0e-40 cgs): 0.000000

 Norm of one-particle transition density matrix:
   A->B: 0.208386;   B->A: 0.206090
   ||gamma^AB||*||gamma^BA||: 0.042946

 ------------------------------------------------------------------------------
 State A: eomea_ccsd/b: 3/B2g
 State B: eomea_ccsd/b: 4/B2g
 Energy GAP = 0.030187 a.u. = 0.821433 eV
 Transition dipole moment (a.u.):
   A->B: 0.000000 (X 0.000000, Y 0.000000, Z 0.000000)
   B->A: 0.000000 (X 0.000000, Y 0.000000, Z 0.000000)
 Oscillator strength (a.u.): 0.000000
 Transition angular momentum against gauge origin (a.u.):
   A->B:  (X 0.000000i, Y 0.000000i, Z 0.000000i)
   B->A:  (X 0.000000i, Y 0.000000i, Z 0.000000i)

 Electronic circular dichroism (ECD):
 Transition dipole moment/angular momentum:
   A->B->A:  (X 0.000000, Y 0.000000, Z 0.000000)
   Rotatory strength, length gauge (a.u.): 0.000000
   Rotatory strength, length gauge (1.0e-40 cgs): 0.000000
 Transition linear momentum/angular momentum:
   A->B->A:  (X 0.000000, Y 0.000000, Z 0.000000)
   Rotatory strength, velocity gauge (a.u.): 0.000000
   Rotatory strength, velocity gauge (1.0e-40 cgs): 0.000000

 Norm of one-particle transition density matrix:
   A->B: 0.983619;   B->A: 0.982695
   ||gamma^AB||*||gamma^BA||: 0.966598

 ------------------------------------------------------------------------------
 State A: eomea_ccsd/b: 3/B2g
 State B: eomea_ccsd/b: 5/B2g
 Energy GAP = 0.096298 a.u. = 2.620417 eV
 Transition dipole moment (a.u.):
   A->B: 0.000000 (X 0.000000, Y 0.000000, Z 0.000000)
   B->A: 0.000000 (X 0.000000, Y 0.000000, Z 0.000000)
 Oscillator strength (a.u.): 0.000000
 Transition angular momentum against gauge origin (a.u.):
   A->B:  (X 0.000000i, Y 0.000000i, Z 0.000000i)
   B->A:  (X 0.000000i, Y 0.000000i, Z 0.000000i)

 Electronic circular dichroism (ECD):
 Transition dipole moment/angular momentum:
   A->B->A:  (X 0.000000, Y 0.000000, Z 0.000000)
   Rotatory strength, length gauge (a.u.): 0.000000
   Rotatory strength, length gauge (1.0e-40 cgs): 0.000000
 Transition linear momentum/angular momentum:
   A->B->A:  (X 0.000000, Y 0.000000, Z 0.000000)
   Rotatory strength, velocity gauge (a.u.): -0.000000
   Rotatory strength, velocity gauge (1.0e-40 cgs): -0.000000

 Norm of one-particle transition density matrix:
   A->B: 0.981320;   B->A: 0.981937
   ||gamma^AB||*||gamma^BA||: 0.963594

 ------------------------------------------------------------------------------
 State A: eomea_ccsd/b: 3/B2g
 State B: eomea_ccsd/b: 6/B2g
 Energy GAP = 0.170871 a.u. = 4.649639 eV
 Transition dipole moment (a.u.):
   A->B: 0.000000 (X 0.000000, Y 0.000000, Z 0.000000)
   B->A: 0.000000 (X 0.000000, Y 0.000000, Z 0.000000)
 Oscillator strength (a.u.): 0.000000
 Transition angular momentum against gauge origin (a.u.):
   A->B:  (X 0.000000i, Y 0.000000i, Z 0.000000i)
   B->A:  (X 0.000000i, Y 0.000000i, Z 0.000000i)

 Electronic circular dichroism (ECD):
 Transition dipole moment/angular momentum:
   A->B->A:  (X 0.000000, Y 0.000000, Z 0.000000)
   Rotatory strength, length gauge (a.u.): 0.000000
   Rotatory strength, length gauge (1.0e-40 cgs): 0.000000
 Transition linear momentum/angular momentum:
   A->B->A:  (X 0.000000, Y 0.000000, Z 0.000000)
   Rotatory strength, velocity gauge (a.u.): -0.000000
   Rotatory strength, velocity gauge (1.0e-40 cgs): -0.000000

 Norm of one-particle transition density matrix:
   A->B: 0.513596;   B->A: 0.522302
   ||gamma^AB||*||gamma^BA||: 0.268252

 ------------------------------------------------------------------------------
 State A: eomea_ccsd/b: 3/B2g
 State B: eomea_ccsd/b: 7/B2g
 Energy GAP = 0.171030 a.u. = 4.653966 eV
 Transition dipole moment (a.u.):
   A->B: 0.000000 (X 0.000000, Y 0.000000, Z 0.000000)
   B->A: 0.000000 (X 0.000000, Y 0.000000, Z 0.000000)
 Oscillator strength (a.u.): 0.000000
 Transition angular momentum against gauge origin (a.u.):
   A->B:  (X 0.000000i, Y 0.000000i, Z 0.000000i)
   B->A:  (X 0.000000i, Y 0.000000i, Z 0.000000i)

 Electronic circular dichroism (ECD):
 Transition dipole moment/angular momentum:
   A->B->A:  (X 0.000000, Y 0.000000, Z 0.000000)
   Rotatory strength, length gauge (a.u.): 0.000000
   Rotatory strength, length gauge (1.0e-40 cgs): 0.000000
 Transition linear momentum/angular momentum:
   A->B->A:  (X 0.000000, Y 0.000000, Z 0.000000)
   Rotatory strength, velocity gauge (a.u.): -0.000000
   Rotatory strength, velocity gauge (1.0e-40 cgs): -0.000000

 Norm of one-particle transition density matrix:
   A->B: 0.579286;   B->A: 0.588133
   ||gamma^AB||*||gamma^BA||: 0.340698

 ------------------------------------------------------------------------------
 State A: eomea_ccsd/b: 3/B2g
 State B: eomea_ccsd/b: 8/B2g
 Energy GAP = 0.178288 a.u. = 4.851462 eV
 Transition dipole moment (a.u.):
   A->B: 0.000000 (X 0.000000, Y 0.000000, Z 0.000000)
   B->A: 0.000000 (X 0.000000, Y 0.000000, Z 0.000000)
 Oscillator strength (a.u.): 0.000000
 Transition angular momentum against gauge origin (a.u.):
   A->B:  (X 0.000000i, Y 0.000000i, Z 0.000000i)
   B->A:  (X 0.000000i, Y 0.000000i, Z 0.000000i)

 Electronic circular dichroism (ECD):
 Transition dipole moment/angular momentum:
   A->B->A:  (X 0.000000, Y 0.000000, Z 0.000000)
   Rotatory strength, length gauge (a.u.): 0.000000
   Rotatory strength, length gauge (1.0e-40 cgs): 0.000000
 Transition linear momentum/angular momentum:
   A->B->A:  (X 0.000000, Y 0.000000, Z 0.000000)
   Rotatory strength, velocity gauge (a.u.): 0.000000
   Rotatory strength, velocity gauge (1.0e-40 cgs): 0.000000

 Norm of one-particle transition density matrix:
   A->B: 0.976716;   B->A: 0.977746
   ||gamma^AB||*||gamma^BA||: 0.954981

 ------------------------------------------------------------------------------
 State A: eomea_ccsd/b: 3/B2g
 State B: eomea_ccsd/b: 9/B2g
 Energy GAP = 0.193773 a.u. = 5.272833 eV
 Transition dipole moment (a.u.):
   A->B: 0.000000 (X 0.000000, Y 0.000000, Z 0.000000)
   B->A: 0.000000 (X 0.000000, Y 0.000000, Z 0.000000)
 Oscillator strength (a.u.): -0.000000
 Transition angular momentum against gauge origin (a.u.):
   A->B:  (X 0.000000i, Y 0.000000i, Z 0.000000i)
   B->A:  (X 0.000000i, Y 0.000000i, Z 0.000000i)

 Electronic circular dichroism (ECD):
 Transition dipole moment/angular momentum:
   A->B->A:  (X 0.000000, Y 0.000000, Z 0.000000)
   Rotatory strength, length gauge (a.u.): -0.000000
   Rotatory strength, length gauge (1.0e-40 cgs): -0.000000
 Transition linear momentum/angular momentum:
   A->B->A:  (X 0.000000, Y 0.000000, Z 0.000000)
   Rotatory strength, velocity gauge (a.u.): 0.000000
   Rotatory strength, velocity gauge (1.0e-40 cgs): 0.000000

 Norm of one-particle transition density matrix:
   A->B: 0.516890;   B->A: 0.525593
   ||gamma^AB||*||gamma^BA||: 0.271674

 ------------------------------------------------------------------------------
 State A: eomea_ccsd/b: 3/B2g
 State B: eomea_ccsd/b: 10/B2g
 Energy GAP = 0.195272 a.u. = 5.313629 eV
 Transition dipole moment (a.u.):
   A->B: 0.000000 (X 0.000000, Y 0.000000, Z 0.000000)
   B->A: 0.000000 (X 0.000000, Y 0.000000, Z 0.000000)
 Oscillator strength (a.u.): 0.000000
 Transition angular momentum against gauge origin (a.u.):
   A->B:  (X 0.000000i, Y 0.000000i, Z 0.000000i)
   B->A:  (X 0.000000i, Y 0.000000i, Z 0.000000i)

 Electronic circular dichroism (ECD):
 Transition dipole moment/angular momentum:
   A->B->A:  (X 0.000000, Y 0.000000, Z 0.000000)
   Rotatory strength, length gauge (a.u.): -0.000000
   Rotatory strength, length gauge (1.0e-40 cgs): -0.000000
 Transition linear momentum/angular momentum:
   A->B->A:  (X 0.000000, Y 0.000000, Z 0.000000)
   Rotatory strength, velocity gauge (a.u.): -0.000000
   Rotatory strength, velocity gauge (1.0e-40 cgs): -0.000000

 Norm of one-particle transition density matrix:
   A->B: 0.584230;   B->A: 0.592511
   ||gamma^AB||*||gamma^BA||: 0.346163

 ------------------------------------------------------------------------------
 State A: eomea_ccsd/b: 4/B2g
 State B: eomea_ccsd/b: 5/B2g
 Energy GAP = 0.066111 a.u. = 1.798983 eV
 Transition dipole moment (a.u.):
   A->B: 0.000000 (X 0.000000, Y 0.000000, Z 0.000000)
   B->A: 0.000000 (X 0.000000, Y 0.000000, Z 0.000000)
 Oscillator strength (a.u.): 0.000000
 Transition angular momentum against gauge origin (a.u.):
   A->B:  (X 0.000000i, Y 0.000000i, Z 0.000000i)
   B->A:  (X 0.000000i, Y 0.000000i, Z 0.000000i)

 Electronic circular dichroism (ECD):
 Transition dipole moment/angular momentum:
   A->B->A:  (X 0.000000, Y 0.000000, Z 0.000000)
   Rotatory strength, length gauge (a.u.): -0.000000
   Rotatory strength, length gauge (1.0e-40 cgs): -0.000000
 Transition linear momentum/angular momentum:
   A->B->A:  (X 0.000000, Y 0.000000, Z 0.000000)
   Rotatory strength, velocity gauge (a.u.): -0.000000
   Rotatory strength, velocity gauge (1.0e-40 cgs): -0.000000

 Norm of one-particle transition density matrix:
   A->B: 0.978899;   B->A: 0.980500
   ||gamma^AB||*||gamma^BA||: 0.959810

 ------------------------------------------------------------------------------
 State A: eomea_ccsd/b: 4/B2g
 State B: eomea_ccsd/b: 6/B2g
 Energy GAP = 0.140684 a.u. = 3.828206 eV
 Transition dipole moment (a.u.):
   A->B: 0.000000 (X 0.000000, Y 0.000000, Z 0.000000)
   B->A: 0.000000 (X 0.000000, Y 0.000000, Z 0.000000)
 Oscillator strength (a.u.): 0.000000
 Transition angular momentum against gauge origin (a.u.):
   A->B:  (X 0.000000i, Y 0.000000i, Z 0.000000i)
   B->A:  (X 0.000000i, Y 0.000000i, Z 0.000000i)

 Electronic circular dichroism (ECD):
 Transition dipole moment/angular momentum:
   A->B->A:  (X 0.000000, Y 0.000000, Z 0.000000)
   Rotatory strength, length gauge (a.u.): 0.000000
   Rotatory strength, length gauge (1.0e-40 cgs): 0.000000
 Transition linear momentum/angular momentum:
   A->B->A:  (X 0.000000, Y 0.000000, Z 0.000000)
   Rotatory strength, velocity gauge (a.u.): 0.000000
   Rotatory strength, velocity gauge (1.0e-40 cgs): 0.000000

 Norm of one-particle transition density matrix:
   A->B: 0.497481;   B->A: 0.505499
   ||gamma^AB||*||gamma^BA||: 0.251476

 ------------------------------------------------------------------------------
 State A: eomea_ccsd/b: 4/B2g
 State B: eomea_ccsd/b: 7/B2g
 Energy GAP = 0.140843 a.u. = 3.832533 eV
 Transition dipole moment (a.u.):
   A->B: 0.000000 (X 0.000000, Y 0.000000, Z 0.000000)
   B->A: 0.000000 (X 0.000000, Y 0.000000, Z 0.000000)
 Oscillator strength (a.u.): 0.000000
 Transition angular momentum against gauge origin (a.u.):
   A->B:  (X 0.000000i, Y 0.000000i, Z 0.000000i)
   B->A:  (X 0.000000i, Y 0.000000i, Z 0.000000i)

 Electronic circular dichroism (ECD):
 Transition dipole moment/angular momentum:
   A->B->A:  (X 0.000000, Y 0.000000, Z 0.000000)
   Rotatory strength, length gauge (a.u.): 0.000000
   Rotatory strength, length gauge (1.0e-40 cgs): 0.000000
 Transition linear momentum/angular momentum:
   A->B->A:  (X 0.000000, Y 0.000000, Z 0.000000)
   Rotatory strength, velocity gauge (a.u.): -0.000000
   Rotatory strength, velocity gauge (1.0e-40 cgs): -0.000000

 Norm of one-particle transition density matrix:
   A->B: 0.562359;   B->A: 0.570353
   ||gamma^AB||*||gamma^BA||: 0.320743

 ------------------------------------------------------------------------------
 State A: eomea_ccsd/b: 4/B2g
 State B: eomea_ccsd/b: 8/B2g
 Energy GAP = 0.148101 a.u. = 4.030029 eV
 Transition dipole moment (a.u.):
   A->B: 0.000000 (X 0.000000, Y 0.000000, Z 0.000000)
   B->A: 0.000000 (X 0.000000, Y 0.000000, Z 0.000000)
 Oscillator strength (a.u.): 0.000000
 Transition angular momentum against gauge origin (a.u.):
   A->B:  (X 0.000000i, Y 0.000000i, Z 0.000000i)
   B->A:  (X 0.000000i, Y 0.000000i, Z 0.000000i)

 Electronic circular dichroism (ECD):
 Transition dipole moment/angular momentum:
   A->B->A:  (X 0.000000, Y 0.000000, Z 0.000000)
   Rotatory strength, length gauge (a.u.): 0.000000
   Rotatory strength, length gauge (1.0e-40 cgs): 0.000000
 Transition linear momentum/angular momentum:
[...]
   ||gamma^AB||*||gamma^BA||: 0.045690

 ------------------------------------------------------------------------------
 State A: eomea_ccsd/b: 9/B2g
 State B: eomea_ccsd/b: 10/B2g
 Energy GAP = 0.001499 a.u. = 0.040796 eV
 Transition dipole moment (a.u.):
   A->B: 0.000000 (X 0.000000, Y 0.000000, Z 0.000000)
   B->A: 0.000000 (X 0.000000, Y 0.000000, Z 0.000000)
 Oscillator strength (a.u.): -0.000000
 Transition angular momentum against gauge origin (a.u.):
   A->B:  (X 0.000000i, Y 0.000000i, Z 0.000000i)
   B->A:  (X 0.000000i, Y 0.000000i, Z 0.000000i)

 Electronic circular dichroism (ECD):
 Transition dipole moment/angular momentum:
   A->B->A:  (X 0.000000, Y 0.000000, Z 0.000000)
   Rotatory strength, length gauge (a.u.): -0.000000
   Rotatory strength, length gauge (1.0e-40 cgs): -0.000000
 Transition linear momentum/angular momentum:
   A->B->A:  (X 0.000000, Y 0.000000, Z 0.000000)
   Rotatory strength, velocity gauge (a.u.): -0.000000
   Rotatory strength, velocity gauge (1.0e-40 cgs): -0.000000

 Norm of one-particle transition density matrix:
   A->B: 0.805970;   B->A: 0.806193
   ||gamma^AB||*||gamma^BA||: 0.649767


 All requested transition properties have been computed

 Transition Properties:   CPU 152.07 s  wall 29.84 s

Starting Projected CAP calculation.
Generating CAP matrix for 10 roots.
Performing Projected CAP-EOM calculation for B2g states.
Number of states: 10
Zeroth order Hamiltonian:
-7.84055884657050086e+01 0.00000000000000000e+00 0.00000000000000000e+00 0.00000000000000000e+00 0.00000000000000000e+00 0.00000000000000000e+00 0.00000000000000000e+00 0.00000000000000000e+00 0.00000000000000000e+00 0.00000000000000000e+00
0.00000000000000000e+00 -7.83802608496681330e+01 0.00000000000000000e+00 0.00000000000000000e+00 0.00000000000000000e+00 0.00000000000000000e+00 0.00000000000000000e+00 0.00000000000000000e+00 0.00000000000000000e+00 0.00000000000000000e+00
0.00000000000000000e+00 0.00000000000000000e+00 -7.83486896008593305e+01 0.00000000000000000e+00 0.00000000000000000e+00 0.00000000000000000e+00 0.00000000000000000e+00 0.00000000000000000e+00 0.00000000000000000e+00 0.00000000000000000e+00
0.00000000000000000e+00 0.00000000000000000e+00 0.00000000000000000e+00 -7.83185025000427970e+01 0.00000000000000000e+00 0.00000000000000000e+00 0.00000000000000000e+00 0.00000000000000000e+00 0.00000000000000000e+00 0.00000000000000000e+00
0.00000000000000000e+00 0.00000000000000000e+00 0.00000000000000000e+00 0.00000000000000000e+00 -7.82523911096639324e+01 0.00000000000000000e+00 0.00000000000000000e+00 0.00000000000000000e+00 0.00000000000000000e+00 0.00000000000000000e+00
0.00000000000000000e+00 0.00000000000000000e+00 0.00000000000000000e+00 0.00000000000000000e+00 0.00000000000000000e+00 -7.81778185958819307e+01 0.00000000000000000e+00 0.00000000000000000e+00 0.00000000000000000e+00 0.00000000000000000e+00
0.00000000000000000e+00 0.00000000000000000e+00 0.00000000000000000e+00 0.00000000000000000e+00 0.00000000000000000e+00 0.00000000000000000e+00 -7.81776595792550779e+01 0.00000000000000000e+00 0.00000000000000000e+00 0.00000000000000000e+00
0.00000000000000000e+00 0.00000000000000000e+00 0.00000000000000000e+00 0.00000000000000000e+00 0.00000000000000000e+00 0.00000000000000000e+00 0.00000000000000000e+00 -7.81704017366189987e+01 0.00000000000000000e+00 0.00000000000000000e+00
0.00000000000000000e+00 0.00000000000000000e+00 0.00000000000000000e+00 0.00000000000000000e+00 0.00000000000000000e+00 0.00000000000000000e+00 0.00000000000000000e+00 0.00000000000000000e+00 -7.81549166759568550e+01 0.00000000000000000e+00
0.00000000000000000e+00 0.00000000000000000e+00 0.00000000000000000e+00 0.00000000000000000e+00 0.00000000000000000e+00 0.00000000000000000e+00 0.00000000000000000e+00 0.00000000000000000e+00 0.00000000000000000e+00 -7.81534174428809365e+01
CAP matrix:
-4.71741489132742160e+01 -2.97342471378896285e+01 2.84374480815392090e+01 -2.08570644731616852e+01 -5.06124965755959266e+00 3.50161562906516413e-04 -3.94643376981327010e-01 -4.83026534745938285e+00 9.90677716294977029e-05 -6.49163216045104963e-01
-2.97430776612441967e+01 -4.37136348684511304e+01 2.01396044832490730e+01 -3.33281027065011459e+00 1.17179648313702973e+01 5.46943560058722744e-04 -7.68600491971752731e-01 -6.84152868167655104e+00 2.74386769154415233e-04 -3.38315810144542317e-01
2.86477795203969485e+01 2.02829092171124650e+01 -3.08765254726832303e+01 2.68865213836746832e+01 4.72482787623455547e+00 -4.33974563532779634e-04 1.12641415028363667e+00 8.01205813699146141e+00 -3.55207756479625214e-04 1.32107533639778396e-01
-2.10630679554061189e+01 -3.36632190535317211e+00 2.69510624616065080e+01 -3.45148157409598468e+01 -1.96901664654785868e+01 2.01772184799636767e-04 5.73425003544671963e-02 -6.49519148005767910e+00 3.80854489985593681e-04 -1.87801679296316815e+00
-5.07227606452097390e+00 1.17468646780425487e+01 4.70175225613076364e+00 -1.95470454185194029e+01 -3.15507717483188017e+01 -2.76499401602792183e-04 3.00048540610405590e-01 4.37399543652643441e+00 1.61062662263233847e-04 -1.75412669630433782e-01
4.43468275102380793e-04 6.20677880544876631e-04 -8.85429342750237991e-04 -1.42543990385352037e-04 -1.14364256816823495e-04 -6.61432954368581534e+01 -7.03264397458269741e-03 -2.82586840579579501e-03 1.19518973061678118e+01 -3.22892901310378733e-03
-3.63846589309663626e-01 -7.13545249917637459e-01 9.88193088024162059e-01 7.67099358352091309e-04 3.25653444686241023e-01 -4.68553157184103952e-03 -6.59385780871049008e+01 4.04450297797112679e+00 9.77533055526613737e-04 1.47708813744548948e+01
-4.82066559793276905e+00 -6.83225820588278321e+00 7.94126395981909106e+00 -6.41472769551571442e+00 4.36312717743234391e+00 -2.63352346273837412e-03 4.33970538476462675e+00 -1.73510080605469170e+01 3.77438228615578630e-04 2.93141952390985061e-01
-1.61088470337146170e-04 -6.84170155163046911e-05 -1.41816143143153051e-04 -1.29329564016289478e-04 9.95878422239693251e-05 1.19537099857934681e+01 9.01603919785731733e-03 4.43752827480992096e-04 -3.75768248548652650e+01 -7.97318342212349762e-03
-6.06402809705530954e-01 -2.93986515344423827e-01 1.59832658646353432e-01 -1.68374440417500271e+00 -2.54924203966106044e-01 4.93544567082793151e-03 1.47360478833131339e+01 2.41582813249167749e-01 -4.27514311023102778e-03 -4.02820659608905274e+01
Trajectory will be saved to B2g_traj.out
Done with B2g states.
 Trajectory ran in:   CPU 0.06 s  wall 0.00 s
Total Projected CAP Hamiltonian:
Number of states: 10
Zeroth order Hamiltonian:
-7.84055884657050086e+01 0.00000000000000000e+00 0.00000000000000000e+00 0.00000000000000000e+00 0.00000000000000000e+00 0.00000000000000000e+00 0.00000000000000000e+00 0.00000000000000000e+00 0.00000000000000000e+00 0.00000000000000000e+00
0.00000000000000000e+00 -7.83802608496681330e+01 0.00000000000000000e+00 0.00000000000000000e+00 0.00000000000000000e+00 0.00000000000000000e+00 0.00000000000000000e+00 0.00000000000000000e+00 0.00000000000000000e+00 0.00000000000000000e+00
0.00000000000000000e+00 0.00000000000000000e+00 -7.83486896008593305e+01 0.00000000000000000e+00 0.00000000000000000e+00 0.00000000000000000e+00 0.00000000000000000e+00 0.00000000000000000e+00 0.00000000000000000e+00 0.00000000000000000e+00
0.00000000000000000e+00 0.00000000000000000e+00 0.00000000000000000e+00 -7.83185025000427970e+01 0.00000000000000000e+00 0.00000000000000000e+00 0.00000000000000000e+00 0.00000000000000000e+00 0.00000000000000000e+00 0.00000000000000000e+00
0.00000000000000000e+00 0.00000000000000000e+00 0.00000000000000000e+00 0.00000000000000000e+00 -7.82523911096639324e+01 0.00000000000000000e+00 0.00000000000000000e+00 0.00000000000000000e+00 0.00000000000000000e+00 0.00000000000000000e+00
0.00000000000000000e+00 0.00000000000000000e+00 0.00000000000000000e+00 0.00000000000000000e+00 0.00000000000000000e+00 -7.81778185958819307e+01 0.00000000000000000e+00 0.00000000000000000e+00 0.00000000000000000e+00 0.00000000000000000e+00
0.00000000000000000e+00 0.00000000000000000e+00 0.00000000000000000e+00 0.00000000000000000e+00 0.00000000000000000e+00 0.00000000000000000e+00 -7.81776595792550779e+01 0.00000000000000000e+00 0.00000000000000000e+00 0.00000000000000000e+00
0.00000000000000000e+00 0.00000000000000000e+00 0.00000000000000000e+00 0.00000000000000000e+00 0.00000000000000000e+00 0.00000000000000000e+00 0.00000000000000000e+00 -7.81704017366189987e+01 0.00000000000000000e+00 0.00000000000000000e+00
0.00000000000000000e+00 0.00000000000000000e+00 0.00000000000000000e+00 0.00000000000000000e+00 0.00000000000000000e+00 0.00000000000000000e+00 0.00000000000000000e+00 0.00000000000000000e+00 -7.81549166759568550e+01 0.00000000000000000e+00
0.00000000000000000e+00 0.00000000000000000e+00 0.00000000000000000e+00 0.00000000000000000e+00 0.00000000000000000e+00 0.00000000000000000e+00 0.00000000000000000e+00 0.00000000000000000e+00 0.00000000000000000e+00 -7.81534174428809365e+01
CAP matrix:
-4.71741489132742160e+01 -2.97342471378896285e+01 2.84374480815392090e+01 -2.08570644731616852e+01 -5.06124965755959266e+00 3.50161562906516413e-04 -3.94643376981327010e-01 -4.83026534745938285e+00 9.90677716294977029e-05 -6.49163216045104963e-01
-2.97430776612441967e+01 -4.37136348684511304e+01 2.01396044832490730e+01 -3.33281027065011459e+00 1.17179648313702973e+01 5.46943560058722744e-04 -7.68600491971752731e-01 -6.84152868167655104e+00 2.74386769154415233e-04 -3.38315810144542317e-01
2.86477795203969485e+01 2.02829092171124650e+01 -3.08765254726832303e+01 2.68865213836746832e+01 4.72482787623455547e+00 -4.33974563532779634e-04 1.12641415028363667e+00 8.01205813699146141e+00 -3.55207756479625214e-04 1.32107533639778396e-01
-2.10630679554061189e+01 -3.36632190535317211e+00 2.69510624616065080e+01 -3.45148157409598468e+01 -1.96901664654785868e+01 2.01772184799636767e-04 5.73425003544671963e-02 -6.49519148005767910e+00 3.80854489985593681e-04 -1.87801679296316815e+00
-5.07227606452097390e+00 1.17468646780425487e+01 4.70175225613076364e+00 -1.95470454185194029e+01 -3.15507717483188017e+01 -2.76499401602792183e-04 3.00048540610405590e-01 4.37399543652643441e+00 1.61062662263233847e-04 -1.75412669630433782e-01
4.43468275102380793e-04 6.20677880544876631e-04 -8.85429342750237991e-04 -1.42543990385352037e-04 -1.14364256816823495e-04 -6.61432954368581534e+01 -7.03264397458269741e-03 -2.82586840579579501e-03 1.19518973061678118e+01 -3.22892901310378733e-03
-3.63846589309663626e-01 -7.13545249917637459e-01 9.88193088024162059e-01 7.67099358352091309e-04 3.25653444686241023e-01 -4.68553157184103952e-03 -6.59385780871049008e+01 4.04450297797112679e+00 9.77533055526613737e-04 1.47708813744548948e+01
-4.82066559793276905e+00 -6.83225820588278321e+00 7.94126395981909106e+00 -6.41472769551571442e+00 4.36312717743234391e+00 -2.63352346273837412e-03 4.33970538476462675e+00 -1.73510080605469170e+01 3.77438228615578630e-04 2.93141952390985061e-01
-1.61088470337146170e-04 -6.84170155163046911e-05 -1.41816143143153051e-04 -1.29329564016289478e-04 9.95878422239693251e-05 1.19537099857934681e+01 9.01603919785731733e-03 4.43752827480992096e-04 -3.75768248548652650e+01 -7.97318342212349762e-03
-6.06402809705530954e-01 -2.93986515344423827e-01 1.59832658646353432e-01 -1.68374440417500271e+00 -2.54924203966106044e-01 4.93544567082793151e-03 1.47360478833131339e+01 2.41582813249167749e-01 -4.27514311023102778e-03 -4.02820659608905274e+01
 Total ccman2 time:   CPU 1349.51 s  wall 225.69 s

 
 --------------------------------------------------------------
             Orbital Energies (a.u.) and Symmetries
 --------------------------------------------------------------
 
 Alpha MOs, Restricted
 -- Occupied --                  
-11.228 -11.226  -1.040  -0.781  -0.661  -0.568  -0.516  -0.377
  1 Ag    1 B3u   2 Ag    2 B3u   1 B2u   3 Ag    1 B1g   1 B1u                
 -- Virtual --                   
  0.010   0.010   0.011   0.016   0.016   0.018   0.031   0.033
  3 B3u   2 B2u   2 B1u   2 B1g   1 B2g   4 Ag    4 B3u   3 B2u                
  0.035   0.039   0.042   0.042   0.058   0.069   0.073   0.078
  3 B1u   5 Ag    3 B1g   2 B2g   6 Ag    5 B3u   4 B2u   4 B1u                
  0.082   0.085   0.094   0.129   0.131   0.134   0.142   0.142
  3 B2g   4 B1g   7 Ag    4 B2g   6 B3u   8 Ag    1 B3g   5 B2u                
  0.153   0.155   0.156   0.169   0.185   0.186   0.188   0.191
  5 B1u   5 B1g   9 Ag    7 B3u   6 B2u   8 B3u   5 B2g   1 Au                 
  0.197   0.239   0.241   0.243   0.258   0.273   0.293   0.299
  6 B1u   9 B3u  10 Ag    6 B1g   6 B2g   7 B2u  11 Ag    7 B1g                
  0.302   0.327   0.352   0.355   0.375   0.391   0.403   0.434
  7 B1u  12 Ag    7 B2g  10 B3u   8 B2u   2 B3g  11 B3u  13 Ag                 
  0.442   0.474   0.487   0.490   0.496   0.509   0.572   0.590
  9 B2u   8 B1g  12 B3u  14 Ag    2 Au    8 B1u  13 B3u   9 B1g                
  0.635   0.696   0.707   0.760   0.764   0.768   0.791   0.811
  8 B2g  10 B2u  14 B3u   9 B1u  15 Ag   11 B2u  10 B1g  16 Ag                 
  0.836   0.865   0.872   0.978   1.005   1.023   1.082   1.140
 15 B3u   9 B2g  17 Ag   16 B3u  11 B1g   3 B3g  10 B1u  18 Ag                 
  1.144   1.151   1.203   1.205   1.230   1.263   1.280   1.376
  3 Au   17 B3u  10 B2g  12 B2u  11 B1u   4 B3g  12 B1g  19 Ag                 
  1.423   1.506   1.521   1.553   1.624   1.664   1.684   1.735
 18 B3u  11 B2g  13 B2u  14 B2u  20 Ag   19 B3u   4 Au   13 B1g                
  1.864   2.004   2.030   2.102   2.579   2.736   2.746   2.761
 20 B3u  21 Ag   21 B3u  14 B1g  12 B1u  22 Ag   15 B2u  23 Ag                 
  2.781   2.803   2.901   2.919   2.996   2.997   3.071   3.105
 12 B2g  16 B2u  15 B1g  13 B1u   5 B3g  22 B3u  16 B1g  14 B1u                
  3.136   3.164   3.229   3.267   3.267   3.291   3.463   3.468
 17 B2u  24 Ag    5 Au   13 B2g   6 B3g  25 Ag   23 B3u  18 B2u                
  3.484   3.506   3.516   3.531   3.555   3.617   3.645   3.662
  6 Au   14 B2g  17 B1g  24 B3u  25 B3u  15 B1u   7 B3g  26 Ag                 
  3.798   3.824   3.980   4.008   4.025   4.030   4.061   4.066
 19 B2u  18 B1g  15 B2g  26 B3u  19 B1g  20 B2u  16 B1u  27 Ag                 
  4.118   4.222   4.288   4.299   4.350   4.355   4.368   4.596
  7 Au   27 B3u  28 Ag    8 B3g  20 B1g  16 B2g  17 B1u  28 B3u                
  4.616   4.666   4.705   4.797   4.856   4.947   5.050   5.089
 21 B2u   8 Au   29 Ag   29 B3u  17 B2g  18 B1u  30 Ag   21 B1g                
  5.166   5.224   5.314   5.366   5.427   5.483   5.543   5.677
 22 B2u   9 B3g  30 B3u  31 Ag    9 Au   22 B1g  18 B2g  23 B2u                
  5.724   6.111   6.187   6.319   6.666   6.898  12.927  15.370
 32 Ag   23 B1g  31 B3u  24 B2u  32 B3u  24 B1g  33 Ag   33 B3u                
 
 Beta MOs, Restricted
 -- Occupied --                  
-11.228 -11.226  -1.040  -0.781  -0.661  -0.568  -0.516  -0.377
  1 Ag    1 B3u   2 Ag    2 B3u   1 B2u   3 Ag    1 B1g   1 B1u                
 -- Virtual --                   
  0.010   0.010   0.011   0.016   0.016   0.018   0.031   0.033
  3 B3u   2 B2u   2 B1u   2 B1g   1 B2g   4 Ag    4 B3u   3 B2u                
  0.035   0.039   0.042   0.042   0.058   0.069   0.073   0.078
  3 B1u   5 Ag    3 B1g   2 B2g   6 Ag    5 B3u   4 B2u   4 B1u                
  0.082   0.085   0.094   0.129   0.131   0.134   0.142   0.142
  3 B2g   4 B1g   7 Ag    4 B2g   6 B3u   8 Ag    1 B3g   5 B2u                
  0.153   0.155   0.156   0.169   0.185   0.186   0.188   0.191
  5 B1u   5 B1g   9 Ag    7 B3u   6 B2u   8 B3u   5 B2g   1 Au                 
  0.197   0.239   0.241   0.243   0.258   0.273   0.293   0.299
  6 B1u   9 B3u  10 Ag    6 B1g   6 B2g   7 B2u  11 Ag    7 B1g                
  0.302   0.327   0.352   0.355   0.375   0.391   0.403   0.434
  7 B1u  12 Ag    7 B2g  10 B3u   8 B2u   2 B3g  11 B3u  13 Ag                 
  0.442   0.474   0.487   0.490   0.496   0.509   0.572   0.590
  9 B2u   8 B1g  12 B3u  14 Ag    2 Au    8 B1u  13 B3u   9 B1g                
  0.635   0.696   0.707   0.760   0.764   0.768   0.791   0.811
  8 B2g  10 B2u  14 B3u   9 B1u  15 Ag   11 B2u  10 B1g  16 Ag                 
  0.836   0.865   0.872   0.978   1.005   1.023   1.082   1.140
 15 B3u   9 B2g  17 Ag   16 B3u  11 B1g   3 B3g  10 B1u  18 Ag                 
  1.144   1.151   1.203   1.205   1.230   1.263   1.280   1.376
  3 Au   17 B3u  10 B2g  12 B2u  11 B1u   4 B3g  12 B1g  19 Ag                 
  1.423   1.506   1.521   1.553   1.624   1.664   1.684   1.735
 18 B3u  11 B2g  13 B2u  14 B2u  20 Ag   19 B3u   4 Au   13 B1g                
  1.864   2.004   2.030   2.102   2.579   2.736   2.746   2.761
 20 B3u  21 Ag   21 B3u  14 B1g  12 B1u  22 Ag   15 B2u  23 Ag                 
  2.781   2.803   2.901   2.919   2.996   2.997   3.071   3.105
 12 B2g  16 B2u  15 B1g  13 B1u   5 B3g  22 B3u  16 B1g  14 B1u                
  3.136   3.164   3.229   3.267   3.267   3.291   3.463   3.468
 17 B2u  24 Ag    5 Au   13 B2g   6 B3g  25 Ag   23 B3u  18 B2u                
  3.484   3.506   3.516   3.531   3.555   3.617   3.645   3.662
  6 Au   14 B2g  17 B1g  24 B3u  25 B3u  15 B1u   7 B3g  26 Ag                 
  3.798   3.824   3.980   4.008   4.025   4.030   4.061   4.066
 19 B2u  18 B1g  15 B2g  26 B3u  19 B1g  20 B2u  16 B1u  27 Ag                 
  4.118   4.222   4.288   4.299   4.350   4.355   4.368   4.596
  7 Au   27 B3u  28 Ag    8 B3g  20 B1g  16 B2g  17 B1u  28 B3u                
  4.616   4.666   4.705   4.797   4.856   4.947   5.050   5.089
 21 B2u   8 Au   29 Ag   29 B3u  17 B2g  18 B1u  30 Ag   21 B1g                
  5.166   5.224   5.314   5.366   5.427   5.483   5.543   5.677
 22 B2u   9 B3g  30 B3u  31 Ag    9 Au   22 B1g  18 B2g  23 B2u                
  5.724   6.111   6.187   6.319   6.666   6.898  12.927  15.370
 32 Ag   23 B1g  31 B3u  24 B2u  32 B3u  24 B1g  33 Ag   33 B3u                
 --------------------------------------------------------------
 
          Ground-State Mulliken Net Atomic Charges

     Atom                 Charge (a.u.)
  ----------------------------------------
      1 C                    -0.349372
      2 C                    -0.349372
      3 H                     0.174686
      4 H                     0.174686
      5 H                     0.174686
      6 H                     0.174686
  ----------------------------------------
  Sum of atomic charges =     0.000000

 -----------------------------------------------------------------
                    Cartesian Multipole Moments
 -----------------------------------------------------------------
    Charge (ESU x 10^10)
                 0.0000
    Dipole Moment (Debye)
         X       0.0000      Y      -0.0000      Z       0.0000
       Tot       0.0000
    Quadrupole Moments (Debye-Ang)
        XX     -12.8319     XY       0.0000     YY     -11.9245
        XZ      -0.0000     YZ      -0.0000     ZZ     -16.1256
    Octopole Moments (Debye-Ang^2)
       XXX       0.0000    XXY      -0.0000    XYY       0.0000
       YYY      -0.0000    XXZ      -0.0000    XYZ       0.0000
       YYZ       0.0000    XZZ       0.0000    YZZ      -0.0000
       ZZZ       0.0000
    Hexadecapole Moments (Debye-Ang^3)
      XXXX     -67.9369   XXXY       0.0000   XXYY     -13.0892
      XYYY       0.0000   YYYY     -26.7725   XXXZ      -0.0000
      XXYZ      -0.0000   XYYZ      -0.0000   YYYZ      -0.0000
      XXZZ     -15.3982   XYZZ       0.0000   YYZZ      -9.0156
      XZZZ      -0.0000   YZZZ      -0.0000   ZZZZ     -21.4680
 -----------------------------------------------------------------
 Total job time:  258.10s(wall), 1422.32s(cpu) 
 Mon Apr  4 16:39:55 2022

        *************************************************************
        *                                                           *
        *  Thank you very much for using Q-Chem.  Have a nice day.  *
        *                                                           *
        *************************************************************


