/src/tsommerfeld/qchem/exe/qcprog.exe .input1.361111.17145.qcin.1 /src/jdavis/qchem.scratch/qchem17145/

                  Welcome to Q-Chem
     A Quantum Leap Into The Future Of Chemistry


 Q-Chem 5.4 (devel), Q-Chem, Inc., Pleasanton, CA (2021)

 E. Epifanovsky,  A. T. B. Gilbert,  Xintian Feng,  Joonho Lee,  Yuezhi Mao,  
 N. Mardirossian,  P. Pokhilko,  A. White,  M. Wormit,  M. P. Coons,  
 A. L. Dempwolff,  Zhengting Gan,  D. Hait,  P. R. Horn,  L. D. Jacobson,  
 I. Kaliman,  J. Kussmann,  A. W. Lange,  Ka Un Lao,  D. S. Levine,  Jie Liu,  
 S. C. McKenzie,  A. F. Morrison,  K. Nanda,  F. Plasser,  D. R. Rehn,  
 M. L. Vidal,  Zhi-Qiang You,  Ying Zhu,  B. Alam,  B. Albrecht,  
 A. Aldossary,  E. Alguire,  J. H. Andersen,  D. Barton,  K. Begam,  A. Behn,  
 Y. A. Bernard,  E. J. Berquist,  H. Burton,  A. Carreras,  K. Carter-Fenk,  
 R. Chakraborty,  A. D. Chien,  K. D. Closser,  V. Cofer-Shabica,  
 S. Dasgupta,  Jia Deng,  M. de Wergifosse,  M. Diedenhofen,  Hainam Do,  
 S. Ehlert,  Po-Tung Fang,  S. Fatehi,  Qingguo Feng,  T. Friedhoff,  
 J. Gayvert,  Qinghui Ge,  G. Gidofalvi,  M. Goldey,  J. Gomes,  
 C. Gonzalez-Espinoza,  S. Gulania,  A. Gunina,  M. W. D. Hanson-Heine,  
 P. H. P. Harbach,  A. W. Hauser,  M. F. Herbst,  M. Hernandez Vera,  
 M. Hodecker,  Z. C. Holden,  S. Houck,  Xunkun Huang,  Kerwin Hui,  
 B. C. Huynh,  M. Ivanov,  Hyunjun Ji,  Hanjie Jiang,  B. Kaduk,  S. Kaehler,  
 K. Khistyaev,  Jaehoon Kim,  P. Klunzinger,  Z. Koczor-Benda,  
 Joong Hoon Koh,  D. Kosenkov,  L. Koulias,  T. Kowalczyk,  C. M. Krauter,  
 K. Kue,  A. Kunitsa,  T. Kus,  A. Landau,  K. V. Lawler,  D. Lefrancois,  
 S. Lehtola,  Rain Li,  Yi-Pei Li,  Jiashu Liang,  M. Liebenthal,  
 Hung-Hsuan Lin,  You-Sheng Lin,  Fenglai Liu,  Kuan-Yu Liu,  
 M. Loipersberger,  A. Luenser,  A. Manjanath,  P. Manohar,  E. Mansoor,  
 S. F. Manzer,  Shan-Ping Mao,  A. V. Marenich,  T. Markovich,  S. Mason,  
 S. A. Maurer,  P. F. McLaughlin,  M. F. S. J. Menger,  J.-M. Mewes,  
 S. A. Mewes,  P. Morgante,  J. W. Mullinax,  K. J. Oosterbaan,  G. Paran,  
 Alexander C. Paul,  Suranjan K. Paul,  F. Pavosevic,  Zheng Pei,  S. Prager,  
 E. I. Proynov,  E. Ramos,  B. Rana,  A. E. Rask,  A. Rettig,  R. M. Richard,  
 F. Rob,  E. Rossomme,  T. Scheele,  M. Scheurer,  M. Schneider,  
 N. Sergueev,  S. M. Sharada,  W. Skomorowski,  D. W. Small,  C. J. Stein,  
 Yu-Chuan Su,  E. J. Sundstrom,  Zhen Tao,  J. Thirman,  T. Tsuchimochi,  
 N. M. Tubman,  S. P. Veccham,  O. Vydrov,  J. Wenzel,  J. Witte,  A. Yamada,  
 Kun Yao,  S. Yeganeh,  S. R. Yost,  A. Zech,  Igor Ying Zhang,  Xing Zhang,  
 Yu Zhang,  D. Zuev,  A. Aspuru-Guzik,  A. T. Bell,  N. A. Besley,  
 K. B. Bravaya,  B. R. Brooks,  D. Casanova,  Jeng-Da Chai,  S. Coriani,  
 C. J. Cramer,  A. E. DePrince, III,  R. A. DiStasio Jr.,  A. Dreuw,  
 B. D. Dunietz,  T. R. Furlani,  W. A. Goddard III,  S. Grimme,  
 S. Hammes-Schiffer,  T. Head-Gordon,  W. J. Hehre,  Chao-Ping Hsu,  
 T.-C. Jagau,  Yousung Jung,  A. Klamt,  Jing Kong,  D. S. Lambrecht,  
 WanZhen Liang,  N. J. Mayhall,  C. W. McCurdy,  J. B. Neaton,  
 C. Ochsenfeld,  J. A. Parkhill,  R. Peverati,  V. A. Rassolov,  Yihan Shao,  
 L. V. Slipchenko,  T. Stauch,  R. P. Steele,  J. E. Subotnik,  
 A. J. W. Thom,  A. Tkatchenko,  D. G. Truhlar,  T. Van Voorhis,  
 T. A. Wesolowski,  K. B. Whaley,  H. L. Woodcock III,  P. M. Zimmerman,  
 S. Faraji,  P. M. W. Gill,  M. Head-Gordon,  J. M. Herbert,  A. I. Krylov

 Additional authors for Version 5.4.1: 
 S. Kotaru,  Shaozhi Li,  Xiangyuan Li,  F. Matz,  A. Molle,  Haisheng Ren,  
 Yingli Su,  Hung-Yi Tsai,  C. Utku,  Fang Wang

 Contributors to earlier versions of Q-Chem not listed above: 
 R. D. Adamson,  B. Austin,  R. Baer,  J. Baker,  G. J. O. Beran,  
 K. Brandhorst,  S. T. Brown,  E. F. C. Byrd,  A. K. Chakraborty,  
 G. K. L. Chan,  Chun-Min Chang,  Yunqing Chen,  C.-L. Cheng,  
 Siu Hung Chien,  D. M. Chipman,  D. L. Crittenden,  H. Dachsel,  
 R. J. Doerksen,  A. D. Dutoi,  R. G. Edgar,  J. Fosso-Tande,  
 L. Fusti-Molnar,  D. Ghosh,  A. Ghysels,  A. Golubeva-Zadorozhnaya,  
 J. Gonthier,  M. S. Gordon,  S. R. Gwaltney,  G. Hawkins,  J. E. Herr,  
 A. Heyden,  S. Hirata,  E. G. Hohenstein,  G. Kedziora,  F. J. Keil,  
 C. Kelley,  Jihan Kim,  R. A. King,  R. Z. Khaliullin,  P. P. Korambath,  
 W. Kurlancheek,  A. Laurent,  A. M. Lee,  M. S. Lee,  S. V. Levchenko,  
 Ching Yeh Lin,  D. Liotard,  E. Livshits,  R. C. Lochan,  I. Lotan,  
 L. A. Martinez-Martinez,  P. E. Maslen,  N. Nair,  D. P. O'Neill,  
 D. Neuhauser,  E. Neuscamman,  C. M. Oana,  R. Olivares-Amaya,  R. Olson,  
 T. M. Perrine,  B. Peters,  P. A. Pieniazek,  A. Prociuk,  Y. M. Rhee,  
 J. Ritchie,  M. A. Rohrdanz,  E. Rosta,  N. J. Russ,  H. F. Schaefer III,  
 M. W. Schmidt,  N. E. Schultz,  S. Sharma,  N. Shenvi,  C. D. Sherrill,  
 A. C. Simmonett,  A. Sodt,  T. Stein,  D. Stuck,  K. S. Thanthiriwatte,  
 V. Vanovschi,  L. Vogt,  Tao Wang,  A. Warshel,  M. A. Watson,  
 C. F. Williams,  Q. Wu,  X. Xu,  Jun Yang,  W. Zhang,  Yan Zhao

 Please cite Q-Chem as follows:
 Y. Shao et al., Mol. Phys. 113, 184-215 (2015)
 DOI: 10.1080/00268976.2014.952696

 Q-Chem 5.4.1 for Intel X86 EM64T Linux

 Parts of Q-Chem use Armadillo 9.900.5 (Nocturnal Misbehaviour).
 http://arma.sourceforge.net/

 Q-Chem begins on Sat Mar 26 08:31:27 2022  

 Host: node01
0

     Scratch files written to /src/jdavis/qchem.scratch/qchem17145//
 Processing $rem in /src/tsommerfeld/qchem/config/preferences:
 Processing $rem in /home/jdavis/.qchemrc:

 Checking the input file for inconsistencies... 	...done.

--------------------------------------------------------------
User input:
--------------------------------------------------------------
$molecule
-1 1
C         0.0000003663    0.4438502432    0.6645000000
C         0.0000003663    0.4438502432   -0.6645000000
H        -0.9623486337    0.4438522630    1.1590800000
H        -0.9623486337    0.4438522630   -1.1590800000
H         0.9623483663    0.4438482235    1.1590800000
H         0.9623483663    0.4438482235   -1.1590800000
H        -0.0000038605   -10.4438482235    0.0000000000
$end

$rem
   METHOD adc(2)
   BASIS gen
   PURECART 11
   EE_STATES [0,0,0,10]
   scf_convergence 8
   ADC_DAVIDSON_MAXITER 120
   ADC_DAVIDSON_MAXSUBSPACE 200
   adc_nguess_singles 100
   THRESH 14
   S2THRESH 14
   adc_davidson_conv 5
   adc_davidson_thresh 14
   THREADS 10
   MEM_TOTAL 95000
   STATE_ANALYSIS TRUE
$end
$basis
C 1
S   9   1.00
      6.665000D+03           6.920000D-04
      1.000000D+03           5.329000D-03
      2.280000D+02           2.707700D-02
      6.471000D+01           1.017180D-01
      2.106000D+01           2.747400D-01
      7.495000D+00           4.485640D-01
      2.797000D+00           2.850740D-01
      5.215000D-01           1.520400D-02
      1.596000D-01          -3.191000D-03
S   9   1.00
      6.665000D+03          -1.460000D-04
      1.000000D+03          -1.154000D-03
      2.280000D+02          -5.725000D-03
      6.471000D+01          -2.331200D-02
      2.106000D+01          -6.395500D-02
      7.495000D+00          -1.499810D-01
      2.797000D+00          -1.272620D-01
      5.215000D-01           5.445290D-01
      1.596000D-01           5.804960D-01
S   1   1.00
      1.596000D-01           1.000000D+00
S   1   1.00
      0.0469000              1.0000000
P   4   1.00
      9.439000D+00           3.810900D-02
      2.002000D+00           2.094800D-01
      5.456000D-01           5.085570D-01
      1.517000D-01           4.688420D-01
P   1   1.00
      1.517000D-01           1.000000D+00
P   1   1.00
      0.0825922      1.0000000
P   1   1.00
      0.0412961      1.0000000
D   1   1.00
      5.500000D-01           1.0000000
****
C 2
S   9   1.00
      6.665000D+03           6.920000D-04
      1.000000D+03           5.329000D-03
      2.280000D+02           2.707700D-02
      6.471000D+01           1.017180D-01
      2.106000D+01           2.747400D-01
      7.495000D+00           4.485640D-01
      2.797000D+00           2.850740D-01
      5.215000D-01           1.520400D-02
      1.596000D-01          -3.191000D-03
S   9   1.00
      6.665000D+03          -1.460000D-04
      1.000000D+03          -1.154000D-03
      2.280000D+02          -5.725000D-03
      6.471000D+01          -2.331200D-02
      2.106000D+01          -6.395500D-02
      7.495000D+00          -1.499810D-01
      2.797000D+00          -1.272620D-01
      5.215000D-01           5.445290D-01
      1.596000D-01           5.804960D-01
S   1   1.00
      1.596000D-01           1.000000D+00
S   1   1.00
      0.0469000              1.0000000
P   4   1.00
      9.439000D+00           3.810900D-02
      2.002000D+00           2.094800D-01
      5.456000D-01           5.085570D-01
      1.517000D-01           4.688420D-01
P   1   1.00
      1.517000D-01           1.000000D+00
P   1   1.00
      0.0825922      1.0000000
P   1   1.00
      0.0412961      1.0000000
D   1   1.00
      5.500000D-01           1.0000000
****
H 3
cc-pVDZ
****
H 4
cc-pVDZ
****
H 5
cc-pVDZ
****
H 6
cc-pVDZ
****
H 7
aug-cc-pVDZ
****
$end
--------------------------------------------------------------
 Atom   2: (  0.6645000000,  0.0000001629, -0.6404528510)
         ->(  0.6645000000, -0.0000001629, -0.6404528510)
 Atom   1: ( -0.6645000000,  0.0000001629, -0.6404528510)
         ->( -0.6645000000,  0.0000000000, -0.6404528510)
 Atom   6: (  1.1590800000,  0.9623481629, -0.6404511369)
         ->(  1.1590800000,  0.9623488371, -0.6404545651)
 Atom   5: ( -1.1590800000,  0.9623481629, -0.6404511369)
         ->( -1.1590800000,  0.9623488371, -0.6404545651)
 Atom   7: ( -0.0000000000, -0.0000006060, 10.2472456157)
         ->(  0.0000000000,  0.0000000000, 10.2472456157)
 ----------------------------------------------------------------
             Standard Nuclear Orientation (Angstroms)
    I     Atom           X                Y                Z
 ----------------------------------------------------------------
    1      C      -0.6645000000     0.0000000000    -0.6404528510
    2      C       0.6645000000    -0.0000001629    -0.6404528510
    3      H      -1.1590800000    -0.9623488371    -0.6404545651
    4      H       1.1590800000    -0.9623488371    -0.6404545651
    5      H      -1.1590800000     0.9623488371    -0.6404545651
    6      H       1.1590800000     0.9623488371    -0.6404545651
    7      H       0.0000000000     0.0000000000    10.2472456157
 ----------------------------------------------------------------
 Molecular Point Group                 C2v   NOp =  4
 Largest Abelian Subgroup              C2v   NOp =  4
 Nuclear Repulsion Energy =          34.36395017 hartrees
 There are        9 alpha and        9 beta electrons
 Requested basis set is non-standard
 There are 33 shells and 67 basis functions
 Total memory of 95000 MB is distributed as follows: 
   MEM_STATIC is set to 192 MB
   QALLOC/CCMAN JOB total memory use is  94808 MB
 Warning: actual memory use might exceed 95000 MB

 Total QAlloc Memory Limit  95000 MB
 Mega-Array Size       188 MB
 MEM_STATIC part       192 MB

                       Distance Matrix (Angstroms)
             C (  1)   C (  2)   H (  3)   H (  4)   H (  5)   H (  6)
   C (  2)  1.329000
   H (  3)  1.082000  2.061931
   H (  4)  2.061931  1.082000  2.318160
   H (  5)  1.082000  2.061931  1.924698  3.013026
   H (  6)  2.061931  1.082000  3.013026  1.924698  2.318160
   H (  7) 10.907958 10.907958 10.991433 10.991433 10.991433 10.991433

 
 A cutoff of  1.0D-14 yielded    489 shell pairs
 There are      2077 function pairs (      2214 Cartesian)
 Smallest overlap matrix eigenvalue = 2.28E-04

 Scale SEOQF with 1.000000e-01/1.000000e-01/1.000000e-02

 Standard Electronic Orientation quadrupole field applied
 Nucleus-field energy     =    -0.0000000005 hartrees
 ================ Generating on-the-fly SAD Guess ================
Attempting to make child job directory: /src/jdavis/qchem.scratch/qchem17145//Frg1/
Attempting to make child job directory: /src/jdavis/qchem.scratch/qchem17145//Frg2/
Creating input file /src/jdavis/qchem.scratch/qchem17145/Frg1.input
using default PutDataFrgm: nothing
calling putenv with: QCSCRATCH=/src/jdavis/qchem.scratch/qchem17145/ 
Spawning Job For Fragment 0
Done Job For Fragment 0
calling putenv with: QCSCRATCH=/src/jdavis/qchem.scratch 
calling putenv with: QCTHREADS=1 
Creating input file /src/jdavis/qchem.scratch/qchem17145/Frg2.input
using default PutDataFrgm: nothing
calling putenv with: QCSCRATCH=/src/jdavis/qchem.scratch/qchem17145/ 
Spawning Job For Fragment 1
Done Job For Fragment 1
calling putenv with: QCSCRATCH=/src/jdavis/qchem.scratch 
calling putenv with: QCTHREADS=1 
 Time for running child jobs:  CPU 1.76 s  wall 54.32 s
 ============= Method Specific SAD Guess Constructed =============
 Guess from on-the-fly superposition of atomic densities
 Warning: Energy on first SCF cycle will be non-variational
 A restricted Hartree-Fock SCF calculation will be
 performed using Pulay DIIS extrapolation
 SCF converges when DIIS error is below 1.0E-08
 using 10 threads for integral computing
 -------------------------------------------------------
 OpenMP Integral computing Module                
 Release: version 1.0, May 2013, Q-Chem Inc. Pittsburgh 
 -------------------------------------------------------
 ---------------------------------------
  Cycle       Energy         DIIS Error
 ---------------------------------------
    1     -78.8015077401      7.36E-02
    2     -78.4460426930      6.48E-03
    3     -78.4839670408      1.48E-03
    4     -78.4858939635      4.78E-04
    5     -78.4860640695      7.17E-05
    6     -78.4860713939      1.20E-05
    7     -78.4860717736      3.33E-06
    8     -78.4860718531      3.04E-07
    9     -78.4860718601      6.94E-08
   10     -78.4860718614      1.21E-08
   11     -78.4860718615      1.90E-09 Convergence criterion met
 ---------------------------------------
 SCF time:  CPU 10.00 s  wall 1.01 s
 SCF   energy in the final basis set = -78.48607186
 Total energy in the final basis set = -78.48607186
================================================================================
|                                                                              |
|                                 A D C  M A N                                 |
|                                                                              |
 ------------------------------------------------------------------------------ 
|                                                                              |
| Components:                                                                  |
|                                                                              |
| - libvmm - 1.3-trunk                                                         |
|   Authors:                                                                   |
|   Evgeny Epifanovsky, Ilya Kaliman                                           |
|                                                                              |
| - libtensor - 2.5-trunk                                                      |
|   Authors:                                                                   |
|   Evgeny Epifanovsky, Michael Wormit, Dmitry Zuev, Sam Manzer,               |
|   Ilya Kaliman                                                               |
|                                                                              |
| - libwfa - 1.1-trunk                                                         |
|   Authors:                                                                   |
|   Felix Plasser, Stefanie Mewes (Baeppler), Benjamin Thomitzni,              |
|   Michael Wormit, Feng Chen, Anna I. Krylov, Pavel Pokhilko                  |
|                                                                              |
| - libadc - 1.1-trunk                                                         |
|   Authors:                                                                   |
|   Michael Wormit, Adrian L. Dempwolff, Philipp H. P. Harbach,                |
|   Caroline Krauter, Dirk Rehn, Matthias Schneider, Jan Wenzel                |
|                                                                              |
| - adcman - 2.6-trunk                                                         |
|   Authors:                                                                   |
|   Michael Wormit, Adrian L. Dempwolff, Philipp H. P. Harbach,                |
|   Caroline Krauter, Daniel Lefrancois, Jan-Michael Mewes, Dirk Rehn,         |
|   Matthias Schneider, Jan Wenzel, Andreas Dreuw                              |
|                                                                              |
| Authors of earlier versions of ADCMAN:                                       |
| Andreas Dreuw, Jan Hendrik Starcke, Dirk Rehn, Michael Wormit                |
|                                                                              |
================================================================================

 
 Alpha MOs, Restricted
 -- Occupied --                  
-11.189 -11.187  -0.993  -0.733  -0.612  -0.519  -0.467  -0.328
  1 A1    1 B1    2 A1    2 B1    1 B2    3 A1    1 A2    4 A1                 
  0.022
  5 A1                                                                         
 -- Virtual --                   
  0.119   0.133   0.135   0.148   0.148   0.164   0.189   0.235
  3 B1    2 B2    6 A1    7 A1    4 B1    2 A2    8 A1    5 B1                 
  0.262   0.311   0.367   0.369   0.399   0.403   0.415   0.417
  6 B1    9 A1    3 B2    7 B1   10 A1    4 B2   11 A1    8 B1                 
  0.424   0.498   0.596   0.665   0.884   0.898   0.983   1.012
  3 A2    9 B1    4 A2   10 B1   12 A1    5 B2   11 B1   13 A1                 
  1.058   1.071   1.110   1.111   1.163   1.181   1.189   1.225
 14 A1    5 A2    6 B2   15 A1    7 B2   16 A1   12 B1   13 B1                 
  1.333   1.340   1.342   1.506   1.671   1.740   1.781   1.924
  6 A2   17 A1   14 B1    7 A2   18 A1    8 A2    8 B2   15 B1                 
  1.968   1.968   1.968   1.993   2.011   2.066   2.124   2.146
 16 B1    9 B2   19 A1   20 A1   17 B1   10 B2   21 A1   11 B2                 
  2.231   2.381   2.461   2.522   2.616   2.628   2.892   2.894
 18 B1   19 B1    9 A2   22 A1   10 A2   20 B1   12 B2   23 A1                 
  3.316   3.392
 21 B1   11 A2                                                                 
 
 Beta MOs, Restricted
 -- Occupied --                  
-11.189 -11.187  -0.993  -0.733  -0.612  -0.519  -0.467  -0.328
  1 A1    1 B1    2 A1    2 B1    1 B2    3 A1    1 A2    4 A1                 
  0.022
  5 A1                                                                         
 -- Virtual --                   
  0.119   0.133   0.135   0.148   0.148   0.164   0.189   0.235
  3 B1    2 B2    6 A1    7 A1    4 B1    2 A2    8 A1    5 B1                 
  0.262   0.311   0.367   0.369   0.399   0.403   0.415   0.417
  6 B1    9 A1    3 B2    7 B1   10 A1    4 B2   11 A1    8 B1                 
  0.424   0.498   0.596   0.665   0.884   0.898   0.983   1.012
  3 A2    9 B1    4 A2   10 B1   12 A1    5 B2   11 B1   13 A1                 
  1.058   1.071   1.110   1.111   1.163   1.181   1.189   1.225
 14 A1    5 A2    6 B2   15 A1    7 B2   16 A1   12 B1   13 B1                 
  1.333   1.340   1.342   1.506   1.671   1.740   1.781   1.924
  6 A2   17 A1   14 B1    7 A2   18 A1    8 A2    8 B2   15 B1                 
  1.968   1.968   1.968   1.993   2.011   2.066   2.124   2.146
 16 B1    9 B2   19 A1   20 A1   17 B1   10 B2   21 A1   11 B2                 
  2.231   2.381   2.461   2.522   2.616   2.628   2.892   2.894
 18 B1   19 B1    9 A2   22 A1   10 A2   20 B1   12 B2   23 A1                 
  3.316   3.392
 21 B1   11 A2                                                                 

--------------------------------------------------------------------------------
                                   HF Summary                                   
--------------------------------------------------------------------------------
  Energy:                                                  -78.4860718615 a.u.
  Dip. moment [a.u.]:                  [   0.000000,    0.000001,  -19.319758]
  Total dipole [Debye]:                                              49.105937
  <r^2> [a.u.]:                        [  50.663625,   25.067183,  788.446613]
  Total <r^2> [a.u.]:                                               864.177422
--------------------------------------------------------------------------------

--------------------------------------------------------------------------------
                                 MP(2) Summary                                  
--------------------------------------------------------------------------------
  MP energy contribution:                                   -0.2994005870 a.u.
  Total energy:                                            -78.7854724485 a.u.
  Dip. moment [a.u.]:                  [  -0.000000,    0.000001,  -19.321178]
  Total dipole [Debye]:                                              49.109546
  <r^2> [a.u.]:                        [  50.728596,   25.054883,  788.251298]
  Total <r^2> [a.u.]:                                               864.034777

  Density matrix analysis:
  ------------------------
  NOs
    Occupation of frontier NOs:
       0.0448   1.9370
    Number of electrons: 18.000000
    Number of unpaired electrons: n_u =  0.43254, n_u,nl =  0.04685
    NO participation ratio (PR_NO): 15.326086
  
  
  Mulliken Population Analysis
  Atom      Charge (e)              h+              e-           Del q
  --------------------------------------------------------------------
   1 C       -0.212867        0.087339       -0.102498       -0.015160
   2 C       -0.212867        0.087339       -0.102498       -0.015160
   3 H        0.106426        0.018138       -0.010558        0.007580
   4 H        0.106449        0.018138       -0.010558        0.007580
   5 H        0.106441        0.018138       -0.010558        0.007580
   6 H        0.106418        0.018138       -0.010558        0.007580
   7 H       -1.000000        0.021953       -0.021953        0.000000
  --------------------------------------------------------------------
  Sum:       -1.000000        0.269182       -0.269182        0.000000
  
  Multipole moment analysis of the density matrix
    Molecular charge:                      -1.000000
    Number of electrons:                   18.000000
      Center of electronic charge [Ang]: [  0.000000,  -0.000000,   0.568018]
    Total nuclear charge:                  17.000000
      Center of nuclear charge [Ang]:    [  0.000000,  -0.000000,  -0.000000]
    Dipole moment [D]:                     49.109531
      Cartesian components [D]:          [ -0.000000,   0.000002, -49.109531]
    RMS size of the density [Ang]:         3.622053
      Cartesian components [Ang]:        [  0.888365,   0.624325,   3.455473]
  
  Exciton analysis of the difference density matrix
    <r_h> [Ang]:                  [ -0.000000,   0.000000,   0.241976]
    <r_e> [Ang]:                  [ -0.000000,  -0.000000,   0.244768]
    |<r_e - r_h>| [Ang]:            0.002792
    Hole size [Ang]:                3.301356
      Cartesian components [Ang]: [  0.952013,   0.732425,   3.075090]
    Electron size [Ang]:            3.278598
      Cartesian components [Ang]: [  0.986872,   0.723636,   3.041650]
--------------------------------------------------------------------------------
  Starting Davidson for singlet states of irrep B2 ... 
--------------------------------------------------------------------------------
   It NVec Conv  Avg. Norm  Max. Norm  Conv. states           Remark
--------------------------------------------------------------------------------
       100    0  1.094e-01  4.539e-01  0.0803 n n n n n n n n Guess.
    1  110    0  6.370e-03  3.037e-02  0.0550 n n n n n n n n 
    2  120    0  1.266e-03  9.179e-03  0.0550 n n n n n n n n 
    3  130    4  3.603e-04  3.293e-03  0.0550 y y y y n n n n 
    4  140    6  1.475e-03  1.475e-02  0.0550 y y y y y n n y 
    5  150    9  1.590e-04  1.590e-03  0.0550 y y y y y y y y 
    6  160    9  1.418e-05  1.418e-04  0.0550 y y y y y y y y 
    7  170   10  6.919e-07  6.919e-06  0.0550 y y y y y y y y Converged.
--------------------------------------------------------------------------------
  Davidson Summary: 
 ------------------------------------------------------------
  State  0: excitation energy =   0.0550 a.u.   (converged)
  State  1: excitation energy =   0.2562 a.u.   (converged)
  State  2: excitation energy =   0.2950 a.u.   (converged)
  State  3: excitation energy =   0.3162 a.u.   (converged)
  State  4: excitation energy =   0.3332 a.u.   (converged)
  State  5: excitation energy =   0.3917 a.u.   (converged)
  State  6: excitation energy =   0.4336 a.u.   (converged)
  State  7: excitation energy =   0.4489 a.u.   (converged)
  State  8: excitation energy =   0.4730 a.u.   (converged)
  State  9: excitation energy =   0.5125 a.u.   (converged)
 ------------------------------------------------------------


--------------------------------------------------------------------------------
                   State-averaged natural transition orbitals
--------------------------------------------------------------------------------
--------------------------------------------------------------------------------

--------------------------------------------------------------------------------
                             Excited State Summary
--------------------------------------------------------------------------------
--------------------------------------------------------------------------------

  Excited state 1 (singlet, B2)                                    [converged]
  ----------------------------------------------------------------------------
  Term symbol:  1 (1) B2                                    R^2 =  3.05595e-15

  Total energy:                                            -78.7305130956 a.u.
  Excitation energy:                                               1.495520 eV

  Osc. strength:                                                      0.000000
  Trans. dip. moment [a.u.]:           [   0.000000,    0.000023,   -0.000000]
  <i|r^2|0> [a.u.]:                    [  -0.000000,   -0.000000,    0.000000]

  Dip. moment [a.u.]:                  [  -0.000000,    0.000001,    1.221770]
  Total dipole [Debye]:                                               3.105431
  <r^2> [a.u.]:                        [  59.447846,   50.759113,  422.026512]
  Total <r^2> [a.u.]:                                               532.233471

  V1^2 = 0.9776, V2^2 = 0.0224

  Important amplitudes:
      occ i      occ j       vir a       vir b          v   
    ---------------------------------------------------------
     5 (A1) A               2 (B2) A                 -0.6981
     5 (A1) A   5 (A1) B   14 (A1) A    2 (B2) B      0.0435
    ---------------------------------------------------------

  Density matrix analysis:
  ------------------------
  NOs
    Occupation of frontier NOs:
       0.9943   1.0019
    Number of electrons: 18.000000
    Number of unpaired electrons: n_u =  2.41631, n_u,nl =  2.04913
    NO participation ratio (PR_NO):  2.922644
  
  
  Mulliken Population Analysis
  Atom      Charge (e)              h+              e-           Del q
  --------------------------------------------------------------------
   1 C       -0.672609        0.021204       -0.480946       -0.459742
   2 C       -0.672609        0.021204       -0.480946       -0.459742
   3 H        0.086297        0.004283       -0.024412       -0.020129
   4 H        0.086320        0.004283       -0.024412       -0.020129
   5 H        0.086312        0.004283       -0.024412       -0.020129
   6 H        0.086289        0.004283       -0.024412       -0.020129
   7 H        0.000000        1.020746       -0.020746        1.000000
  --------------------------------------------------------------------
  Sum:       -1.000000        1.080285       -1.080285       -0.000000
  
  Multipole moment analysis of the density matrix
    Molecular charge:                      -1.000000
    Number of electrons:                   18.000000
      Center of electronic charge [Ang]: [  0.000000,  -0.000000,  -0.035919]
    Total nuclear charge:                  17.000000
      Center of nuclear charge [Ang]:    [  0.000000,  -0.000000,  -0.000000]
    Dipole moment [D]:                     3.105430
      Cartesian components [D]:          [ -0.000000,   0.000002,   3.105430]
    RMS size of the density [Ang]:         2.877280
      Cartesian components [Ang]:        [  0.961685,   0.888632,   2.562076]
  
  Exciton analysis of the difference density matrix
    <r_h> [Ang]:                  [ -0.000000,   0.000000,   9.650314]
    <r_e> [Ang]:                  [  0.000000,  -0.000000,  -0.412639]
    |<r_e - r_h>| [Ang]:           10.062953
    Hole size [Ang]:                2.766898
      Cartesian components [Ang]: [  0.729752,   0.715247,   2.571304]
    Electron size [Ang]:            3.821703
      Cartesian components [Ang]: [  1.671143,   2.678536,   2.153634]

  Transition density matrix analysis:
  -----------------------------------
  
  CT numbers (Mulliken)
    omega =     0.9710
    <Phe> =    -0.0000
  
  Exciton analysis of the transition density matrix
    Trans. dipole moment [D]:             0.000029
      Cartesian components [D]:         [  0.000000,   0.000029,  -0.000000]
    <r_h> [Ang]:                        [  0.000000,   0.000000,  10.247038]
    <r_e> [Ang]:                        [  0.000000,  -0.000000,  -0.640245]
    |<r_e - r_h>| [Ang]:                 10.887283
    Hole size [Ang]:                      1.111032
      Cartesian components [Ang]:       [  0.640882,   0.640880,   0.642601]
    Electron size [Ang]:                  3.617396
      Cartesian components [Ang]:       [  1.692409,   2.776685,   1.584715]
    RMS electron-hole separation [Ang]:  11.526373
      Cartesian components [Ang]:       [  1.809685,   2.849683,  11.020963]
    Covariance(r_h, r_e) [Ang^2]:        -0.002200
    Correlation coefficient:             -0.000547
    Center-of-mass size [Ang]:            1.891794
      Cartesian components [Ang]:       [  0.904847,   1.424844,   0.854375]

  Decomposition into state-averaged NTOs
    H- 1 -> L+ 0:  0.6848 ( 93.8%)
    H- 1 -> L+ 1: -0.1042 (  2.2%)
    H- 1 -> L+ 2: -0.0751 (  1.1%)
                   omega =  97.1%
  ----------------------------------------------------------------------------


  Excited state 2 (singlet, B2)                                    [converged]
  ----------------------------------------------------------------------------
  Term symbol:  2 (1) B2                                    R^2 =  3.51897e-14

  Total energy:                                            -78.5292483930 a.u.
  Excitation energy:                                               6.972211 eV

  Osc. strength:                                                      0.000000
  Trans. dip. moment [a.u.]:           [  -0.000000,    0.000013,    0.000000]
  <i|r^2|0> [a.u.]:                    [  -0.000000,   -0.000000,    0.000000]

  Dip. moment [a.u.]:                  [   0.000000,   -0.000001,    1.228378]
  Total dipole [Debye]:                                               3.122226
  <r^2> [a.u.]:                        [  58.196833,   36.914494,  417.846052]
  Total <r^2> [a.u.]:                                               512.957380

  V1^2 = 0.9509, V2^2 = 0.0491

  Important amplitudes:
      occ i      occ j       vir a       vir b          v   
    ---------------------------------------------------------
     5 (A1) A               3 (B2) A                  0.6849
     5 (A1) A               4 (B2) A                 -0.0505
    ---------------------------------------------------------

  Density matrix analysis:
  ------------------------
  NOs
    Occupation of frontier NOs:
       0.9790   1.0011
    Number of electrons: 18.000000
    Number of unpaired electrons: n_u =  2.45069, n_u,nl =  2.06067
    NO participation ratio (PR_NO):  3.045105
  
  
  Mulliken Population Analysis
  Atom      Charge (e)              h+              e-           Del q
  --------------------------------------------------------------------
   1 C       -0.162641        0.096050       -0.045824        0.050226
   2 C       -0.162641        0.096050       -0.045824        0.050226
   3 H       -0.168686        0.012187       -0.287300       -0.275112
   4 H       -0.168664        0.012187       -0.287301       -0.275113
   5 H       -0.168672        0.012187       -0.287301       -0.275114
   6 H       -0.168695        0.012187       -0.287300       -0.275113
   7 H        0.000000        1.018323       -0.018323        1.000000
  --------------------------------------------------------------------
  Sum:       -1.000000        1.259173       -1.259173       -0.000000
  
  Multipole moment analysis of the density matrix
    Molecular charge:                      -1.000000
    Number of electrons:                   18.000000
      Center of electronic charge [Ang]: [ -0.000000,  -0.000000,  -0.036113]
    Total nuclear charge:                  17.000000
      Center of nuclear charge [Ang]:    [  0.000000,  -0.000000,  -0.000000]
    Dipole moment [D]:                     3.122226
      Cartesian components [D]:          [  0.000000,  -0.000002,   3.122226]
    RMS size of the density [Ang]:         2.824685
      Cartesian components [Ang]:        [  0.951513,   0.757815,   2.549350]
  
  Exciton analysis of the difference density matrix
    <r_h> [Ang]:                  [ -0.000000,   0.000000,   8.166018]
    <r_e> [Ang]:                  [ -0.000000,   0.000001,  -0.470092]
    |<r_e - r_h>| [Ang]:            8.636110
    Hole size [Ang]:                4.462245
      Cartesian components [Ang]: [  0.771187,   0.720338,   4.335668]
    Electron size [Ang]:            2.880644
      Cartesian components [Ang]: [  1.501864,   1.776613,   1.698870]

  Transition density matrix analysis:
  -----------------------------------
  
  CT numbers (Mulliken)
    omega =     0.9414
    <Phe> =     0.0001
  
  Exciton analysis of the transition density matrix
    Trans. dipole moment [D]:             0.000016
      Cartesian components [D]:         [ -0.000000,   0.000016,   0.000000]
    <r_h> [Ang]:                        [  0.000000,   0.000000,  10.246156]
    <r_e> [Ang]:                        [ -0.000000,   0.000001,  -0.639307]
    |<r_e - r_h>| [Ang]:                 10.885462
    Hole size [Ang]:                      1.115164
      Cartesian components [Ang]:       [  0.640795,   0.640787,   0.649897]
    Electron size [Ang]:                  2.688824
      Cartesian components [Ang]:       [  1.523282,   1.921354,   1.103534]
    RMS electron-hole separation [Ang]:  11.268995
      Cartesian components [Ang]:       [  1.652566,   2.025386,  10.961618]
    Covariance(r_h, r_e) [Ang^2]:        -0.011790
    Correlation coefficient:             -0.003932
    Center-of-mass size [Ang]:            1.453426
      Cartesian components [Ang]:       [  0.826293,   1.012698,   0.635712]

  Decomposition into state-averaged NTOs
    H- 1 -> L+ 1: -0.6609 ( 87.3%)
    H- 1 -> L+ 2: -0.1470 (  4.3%)
    H- 1 -> L+ 0: -0.1067 (  2.3%)
                   omega =  94.1%
  ----------------------------------------------------------------------------


  Excited state 3 (singlet, B2)                                    [converged]
  ----------------------------------------------------------------------------
  Term symbol:  3 (1) B2                                    R^2 =  4.20326e-11

  Total energy:                                            -78.4904941939 a.u.
  Excitation energy:                                               8.026767 eV

  Osc. strength:                                                      0.000053
  Trans. dip. moment [a.u.]:           [  -0.000001,    0.016448,    0.000000]
  <i|r^2|0> [a.u.]:                    [   0.000000,    0.000000,    0.000000]

  Dip. moment [a.u.]:                  [  -0.000000,    0.000000,  -19.337568]
  Total dipole [Debye]:                                              49.151203
  <r^2> [a.u.]:                        [  56.043803,   45.187066,  792.079681]
  Total <r^2> [a.u.]:                                               893.310551

  V1^2 = 0.9544, V2^2 = 0.0456

  Important amplitudes:
      occ i      occ j       vir a       vir b          v   
    ---------------------------------------------------------
     4 (A1) A               2 (B2) A                  0.6657
     4 (A1) A               3 (B2) A                  0.1704
    ---------------------------------------------------------

  Density matrix analysis:
  ------------------------
  NOs
    Occupation of frontier NOs:
       0.9872   0.9897
    Number of electrons: 18.000000
    Number of unpaired electrons: n_u =  2.32037, n_u,nl =  2.02634
    NO participation ratio (PR_NO):  2.745582
  
  
  Mulliken Population Analysis
  Atom      Charge (e)              h+              e-           Del q
  --------------------------------------------------------------------
   1 C       -0.284227        0.515772       -0.587131       -0.071359
   2 C       -0.284227        0.515772       -0.587131       -0.071359
   3 H        0.142106        0.086164       -0.050484        0.035680
   4 H        0.142129        0.086164       -0.050484        0.035679
   5 H        0.142120        0.086163       -0.050484        0.035679
   6 H        0.142098        0.086164       -0.050484        0.035680
   7 H       -1.000000        0.000087       -0.000087        0.000000
  --------------------------------------------------------------------
  Sum:       -1.000000        1.376287       -1.376287        0.000000
  
  Multipole moment analysis of the density matrix
    Molecular charge:                      -1.000000
    Number of electrons:                   18.000000
      Center of electronic charge [Ang]: [  0.000000,  -0.000000,   0.568500]
    Total nuclear charge:                  17.000000
      Center of nuclear charge [Ang]:    [  0.000000,  -0.000000,  -0.000000]
    Dipole moment [D]:                     49.151189
      Cartesian components [D]:          [ -0.000000,   0.000000, -49.151189]
    RMS size of the density [Ang]:         3.684313
      Cartesian components [Ang]:        [  0.933746,   0.838440,   3.464001]
  
  Exciton analysis of the difference density matrix
    <r_h> [Ang]:                  [ -0.000000,  -0.000000,  -0.647264]
    <r_e> [Ang]:                  [  0.000000,   0.000000,  -0.640962]
    |<r_e - r_h>| [Ang]:            0.006302
    Hole size [Ang]:                1.555220
      Cartesian components [Ang]: [  1.013710,   0.799342,   0.867269]
    Electron size [Ang]:            2.895423
      Cartesian components [Ang]: [  1.452266,   2.176046,   1.240654]

  Transition density matrix analysis:
  -----------------------------------
  
  CT numbers (Mulliken)
    omega =     0.9228
    <Phe> =    -0.0033
  
  Exciton analysis of the transition density matrix
    Trans. dipole moment [D]:             0.020904
      Cartesian components [D]:         [ -0.000002,   0.020904,   0.000000]
    <r_h> [Ang]:                        [  0.000000,  -0.000000,  -0.647112]
    <r_e> [Ang]:                        [  0.000000,   0.000000,  -0.640569]
    |<r_e - r_h>| [Ang]:                  0.006544
    Hole size [Ang]:                      1.253935
      Cartesian components [Ang]:       [  0.757039,   0.510632,   0.859360]
    Electron size [Ang]:                  3.291323
      Cartesian components [Ang]:       [  1.597058,   2.508834,   1.409951]
    RMS electron-hole separation [Ang]:   3.519185
      Cartesian components [Ang]:       [  1.762852,   2.559478,   1.651086]
    Covariance(r_h, r_e) [Ang^2]:         0.010269
    Correlation coefficient:              0.002488
    Center-of-mass size [Ang]:            1.762505
      Cartesian components [Ang]:       [  0.885968,   1.280533,   0.825663]

  Decomposition into state-averaged NTOs
    H- 2 -> L+ 0: -0.6776 ( 91.8%)
                   omega =  92.3%
  ----------------------------------------------------------------------------


  Excited state 4 (singlet, B2)                                    [converged]
  ----------------------------------------------------------------------------
  Term symbol:  4 (1) B2                                    R^2 =  1.91621e-14

  Total energy:                                            -78.4692515199 a.u.
  Excitation energy:                                               8.604809 eV

  Osc. strength:                                                      0.000000
  Trans. dip. moment [a.u.]:           [   0.000000,   -0.000012,   -0.000000]
  <i|r^2|0> [a.u.]:                    [  -0.000000,   -0.000000,    0.000000]

  Dip. moment [a.u.]:                  [   0.000000,   -0.000001,    1.224593]
  Total dipole [Debye]:                                               3.112604
  <r^2> [a.u.]:                        [  54.781975,   36.792751,  419.237662]
  Total <r^2> [a.u.]:                                               510.812388

  V1^2 = 0.9713, V2^2 = 0.0287

  Important amplitudes:
      occ i      occ j       vir a       vir b          v   
    ---------------------------------------------------------
     5 (A1) A               4 (B2) A                  0.6947
     5 (A1) A               3 (B2) A                  0.0515
    ---------------------------------------------------------

  Density matrix analysis:
  ------------------------
  NOs
    Occupation of frontier NOs:
       0.9911   1.0017
    Number of electrons: 18.000000
    Number of unpaired electrons: n_u =  2.42426, n_u,nl =  2.05023
    NO participation ratio (PR_NO):  2.950386
  
  
  Mulliken Population Analysis
  Atom      Charge (e)              h+              e-           Del q
  --------------------------------------------------------------------
   1 C       -1.059499        0.066492       -0.913124       -0.846632
   2 C       -1.059499        0.066492       -0.913124       -0.846632
   3 H        0.279743        0.006009        0.167309        0.173317
   4 H        0.279764        0.006008        0.167306        0.173314
   5 H        0.279756        0.006008        0.167306        0.173314
   6 H        0.279735        0.006009        0.167309        0.173317
   7 H        0.000000        1.020117       -0.020117        1.000000
  --------------------------------------------------------------------
  Sum:       -1.000000        1.177135       -1.177135       -0.000000
  
  Multipole moment analysis of the density matrix
    Molecular charge:                      -1.000000
    Number of electrons:                   18.000000
      Center of electronic charge [Ang]: [ -0.000000,  -0.000000,  -0.036002]
    Total nuclear charge:                  17.000000
      Center of nuclear charge [Ang]:    [  0.000000,  -0.000000,  -0.000000]
    Dipole moment [D]:                     3.112603
      Cartesian components [D]:          [  0.000000,  -0.000004,   3.112603]
    RMS size of the density [Ang]:         2.818773
      Cartesian components [Ang]:        [  0.923174,   0.756565,   2.553594]
  
  Exciton analysis of the difference density matrix
    <r_h> [Ang]:                  [ -0.000000,  -0.000000,   8.797001]
    <r_e> [Ang]:                  [ -0.000000,   0.000001,  -0.439282]
    |<r_e - r_h>| [Ang]:            9.236283
    Hole size [Ang]:                3.911745
      Cartesian components [Ang]: [  0.769951,   0.731049,   3.764903]
    Electron size [Ang]:            2.909981
      Cartesian components [Ang]: [  1.247831,   1.823939,   1.893186]

  Transition density matrix analysis:
  -----------------------------------
  
  CT numbers (Mulliken)
    omega =     0.9643
    <Phe> =    -0.0000
  
  Exciton analysis of the transition density matrix
    Trans. dipole moment [D]:             0.000016
      Cartesian components [D]:         [  0.000000,  -0.000016,  -0.000000]
    <r_h> [Ang]:                        [  0.000000,   0.000000,  10.247210]
    <r_e> [Ang]:                        [ -0.000000,   0.000001,  -0.640414]
    |<r_e - r_h>| [Ang]:                 10.887624
    Hole size [Ang]:                      1.110128
      Cartesian components [Ang]:       [  0.640845,   0.640845,   0.641107]
    Electron size [Ang]:                  2.603986
      Cartesian components [Ang]:       [  1.183552,   1.926540,   1.291662]
    RMS electron-hole separation [Ang]:  11.249628
      Cartesian components [Ang]:       [  1.345907,   2.030327,  10.982734]
    Covariance(r_h, r_e) [Ang^2]:        -0.000321
    Correlation coefficient:             -0.000111
    Center-of-mass size [Ang]:            1.415317
      Cartesian components [Ang]:       [  0.672958,   1.015167,   0.720892]

  Decomposition into state-averaged NTOs
    H- 1 -> L+ 2: -0.6748 ( 91.1%)
    H- 1 -> L+ 1:  0.1565 (  4.9%)
                   omega =  96.4%
  ----------------------------------------------------------------------------


  Excited state 5 (singlet, B2)                                    [converged]
  ----------------------------------------------------------------------------
  Term symbol:  5 (1) B2                                    R^2 =  5.68424e-10

  Total energy:                                            -78.4523016057 a.u.
  Excitation energy:                                               9.066040 eV

  Osc. strength:                                                      0.000032
  Trans. dip. moment [a.u.]:           [  -0.000000,   -0.011938,   -0.000000]
  <i|r^2|0> [a.u.]:                    [  -0.000000,   -0.000000,   -0.000000]

  Dip. moment [a.u.]:                  [  -0.000000,    0.000000,  -19.256518]
  Total dipole [Debye]:                                              48.945197
  <r^2> [a.u.]:                        [  51.588844,   23.657024,  791.684282]
  Total <r^2> [a.u.]:                                               866.930150

  V1^2 = 0.9523, V2^2 = 0.0477

  Important amplitudes:
      occ i      occ j       vir a       vir b          v   
    ---------------------------------------------------------
     1 (A2) A               4 (B1) A                  0.4957
     1 (A2) A               5 (B1) A                  0.4522
    ---------------------------------------------------------

  Density matrix analysis:
  ------------------------
  NOs
    Occupation of frontier NOs:
       0.9955   1.0152
    Number of electrons: 18.000000
    Number of unpaired electrons: n_u =  2.39586, n_u,nl =  2.04404
    NO participation ratio (PR_NO):  2.910040
  
  
  Mulliken Population Analysis
  Atom      Charge (e)              h+              e-           Del q
  --------------------------------------------------------------------
   1 C       -0.444805        0.281516       -0.513454       -0.231938
   2 C       -0.444805        0.281516       -0.513454       -0.231938
   3 H        0.222395        0.123442       -0.007474        0.115969
   4 H        0.222418        0.123443       -0.007474        0.115969
   5 H        0.222410        0.123443       -0.007474        0.115969
   6 H        0.222387        0.123442       -0.007474        0.115969
   7 H       -1.000000        0.000022       -0.000022       -0.000000
  --------------------------------------------------------------------
  Sum:       -1.000000        1.056824       -1.056824        0.000000
  
  Multipole moment analysis of the density matrix
    Molecular charge:                      -1.000000
    Number of electrons:                   18.000000
      Center of electronic charge [Ang]: [  0.000000,  -0.000000,   0.566117]
    Total nuclear charge:                  17.000000
      Center of nuclear charge [Ang]:    [  0.000000,  -0.000000,  -0.000000]
    Dipole moment [D]:                     48.945182
      Cartesian components [D]:          [ -0.000000,   0.000000, -48.945182]
    RMS size of the density [Ang]:         3.628562
      Cartesian components [Ang]:        [  0.895865,   0.606659,   3.463503]
  
  Exciton analysis of the difference density matrix
    <r_h> [Ang]:                  [  0.000000,  -0.000000,  -0.641946]
    <r_e> [Ang]:                  [  0.000000,  -0.000000,  -0.674323]
    |<r_e - r_h>| [Ang]:            0.032377
    Hole size [Ang]:                1.500495
      Cartesian components [Ang]: [  1.103396,   0.908934,   0.455898]
    Electron size [Ang]:            1.725126
      Cartesian components [Ang]: [  1.202257,   0.675105,   1.036760]

  Transition density matrix analysis:
  -----------------------------------
  
  CT numbers (Mulliken)
    omega =     0.9218
    <Phe> =    -0.0127
  
  Exciton analysis of the transition density matrix
    Trans. dipole moment [D]:             0.015172
      Cartesian components [D]:         [ -0.000000,  -0.015172,  -0.000000]
    <r_h> [Ang]:                        [ -0.000000,  -0.000000,  -0.640957]
    <r_e> [Ang]:                        [  0.000000,  -0.000000,  -0.676880]
    |<r_e - r_h>| [Ang]:                  0.035923
    Hole size [Ang]:                      1.507890
      Cartesian components [Ang]:       [  1.113438,   0.927765,   0.416219]
    Electron size [Ang]:                  1.741872
      Cartesian components [Ang]:       [  1.214070,   0.661720,   1.059377]
    RMS electron-hole separation [Ang]:   2.285191
      Cartesian components [Ang]:       [  1.623057,   1.136593,   1.138393]
    Covariance(r_h, r_e) [Ang^2]:         0.043521
    Correlation coefficient:              0.016570
    Center-of-mass size [Ang]:            1.161345
      Cartesian components [Ang]:       [  0.835629,   0.571270,   0.569295]

  Decomposition into state-averaged NTOs
    H- 0 -> L+ 3:  0.6251 ( 78.2%)
    H- 0 -> L+ 5: -0.2247 ( 10.1%)
    H- 0 -> L+ 4: -0.1242 (  3.1%)
                   omega =  92.2%
  ----------------------------------------------------------------------------


  Excited state 6 (singlet, B2)                                    [converged]
  ----------------------------------------------------------------------------
  Term symbol:  6 (1) B2                                    R^2 =  1.54720e-08

  Total energy:                                            -78.3937846727 a.u.
  Excitation energy:                                              10.658366 eV

  Osc. strength:                                                      0.099537
  Trans. dip. moment [a.u.]:           [   0.000001,    0.617401,   -0.000000]
  <i|r^2|0> [a.u.]:                    [   0.000001,    0.000000,   -0.000001]

  Dip. moment [a.u.]:                  [  -0.000000,   -0.000000,  -19.049848]
  Total dipole [Debye]:                                              48.419893
  <r^2> [a.u.]:                        [  77.575914,   29.702397,  795.107147]
  Total <r^2> [a.u.]:                                               902.385459

  V1^2 = 0.9402, V2^2 = 0.0598

  Important amplitudes:
      occ i      occ j       vir a       vir b          v   
    ---------------------------------------------------------
     1 (A2) A               3 (B1) A                  0.6493
     1 (A2) A               6 (B1) A                 -0.1244
    ---------------------------------------------------------

  Density matrix analysis:
  ------------------------
  NOs
    Occupation of frontier NOs:
       0.9725   1.0369
    Number of electrons: 18.000000
    Number of unpaired electrons: n_u =  2.45487, n_u,nl =  2.07608
    NO participation ratio (PR_NO):  3.180654
  
  
  Mulliken Population Analysis
  Atom      Charge (e)              h+              e-           Del q
  --------------------------------------------------------------------
   1 C       -0.494173        0.271493       -0.552799       -0.281306
   2 C       -0.494173        0.271493       -0.552799       -0.281306
   3 H        0.247078        0.185099       -0.044447        0.140652
   4 H        0.247102        0.185099       -0.044446        0.140653
   5 H        0.247095        0.185099       -0.044445        0.140654
   6 H        0.247071        0.185099       -0.044446        0.140653
   7 H       -1.000000        0.000117       -0.000117        0.000000
  --------------------------------------------------------------------
  Sum:       -1.000000        1.283499       -1.283499        0.000000
  
  Multipole moment analysis of the density matrix
    Molecular charge:                      -1.000000
    Number of electrons:                   18.000000
      Center of electronic charge [Ang]: [  0.000000,  -0.000000,   0.560041]
    Total nuclear charge:                  17.000000
      Center of nuclear charge [Ang]:    [  0.000000,  -0.000000,  -0.000000]
    Dipole moment [D]:                     48.419879
      Cartesian components [D]:          [ -0.000000,  -0.000000, -48.419879]
    RMS size of the density [Ang]:         3.704712
      Cartesian components [Ang]:        [  1.098572,   0.679768,   3.472167]
  
  Exciton analysis of the difference density matrix
    <r_h> [Ang]:                  [ -0.000000,  -0.000000,  -0.651919]
    <r_e> [Ang]:                  [  0.000000,  -0.000000,  -0.763786]
    |<r_e - r_h>| [Ang]:            0.111867
    Hole size [Ang]:                1.709979
      Cartesian components [Ang]: [  1.220791,   0.996043,   0.664526]
    Electron size [Ang]:            3.336593
      Cartesian components [Ang]: [  2.710677,   1.416361,   1.333793]

  Transition density matrix analysis:
  -----------------------------------
  
  CT numbers (Mulliken)
    omega =     0.9248
    <Phe> =    -0.0058
  
  Exciton analysis of the transition density matrix
    Trans. dipole moment [D]:             0.784638
      Cartesian components [D]:         [  0.000001,   0.784638,  -0.000000]
    <r_h> [Ang]:                        [ -0.000000,  -0.000000,  -0.641003]
    <r_e> [Ang]:                        [  0.000000,  -0.000000,  -0.794606]
    |<r_e - r_h>| [Ang]:                  0.153602
    Hole size [Ang]:                      1.515014
      Cartesian components [Ang]:       [  1.119739,   0.933177,   0.413076]
    Electron size [Ang]:                  3.690761
      Cartesian components [Ang]:       [  3.015088,   1.558764,   1.449557]
    RMS electron-hole separation [Ang]:   3.840552
      Cartesian components [Ang]:       [  3.050416,   1.774893,   1.514780]
    Covariance(r_h, r_e) [Ang^2]:         0.595369
    Correlation coefficient:              0.106476
    Center-of-mass size [Ang]:            2.068074
      Cartesian components [Ang]:       [  1.687017,   0.928827,   0.753779]

  Decomposition into state-averaged NTOs
    H- 0 -> L+ 4: -0.6518 ( 85.0%)
    H- 0 -> L+ 5:  0.1418 (  4.0%)
    H- 0 -> L+ 3: -0.0787 (  1.2%)
                   omega =  92.5%
  ----------------------------------------------------------------------------


  Excited state 7 (singlet, B2)                                    [converged]
  ----------------------------------------------------------------------------
  Term symbol:  7 (1) B2                                    R^2 =  1.85951e-08

  Total energy:                                            -78.3518617263 a.u.
  Excitation energy:                                              11.799148 eV

  Osc. strength:                                                      0.090729
  Trans. dip. moment [a.u.]:           [   0.000000,   -0.560234,   -0.000000]
  <i|r^2|0> [a.u.]:                    [  -0.000001,   -0.000001,   -0.000001]

  Dip. moment [a.u.]:                  [  -0.000000,   -0.000000,  -19.324633]
  Total dipole [Debye]:                                              49.118327
  <r^2> [a.u.]:                        [  54.595123,   44.930149,  793.902477]
  Total <r^2> [a.u.]:                                               893.427748

  V1^2 = 0.9310, V2^2 = 0.0690

  Important amplitudes:
      occ i      occ j       vir a       vir b          v   
    ---------------------------------------------------------
     3 (A1) A               2 (B2) A                 -0.6555
     3 (A1) A               3 (B2) A                 -0.1598
    ---------------------------------------------------------

  Density matrix analysis:
  ------------------------
  NOs
    Occupation of frontier NOs:
       0.9788   1.0176
    Number of electrons: 18.000000
    Number of unpaired electrons: n_u =  2.43622, n_u,nl =  2.06065
    NO participation ratio (PR_NO):  3.060280
  
  
  Mulliken Population Analysis
  Atom      Charge (e)              h+              e-           Del q
  --------------------------------------------------------------------
   1 C       -0.375550        0.432934       -0.595616       -0.162682
   2 C       -0.375550        0.432934       -0.595616       -0.162682
   3 H        0.187768        0.136857       -0.055515        0.081342
   4 H        0.187790        0.136856       -0.055515        0.081341
   5 H        0.187782        0.136856       -0.055516        0.081340
   6 H        0.187760        0.136857       -0.055515        0.081342
   7 H       -1.000000        0.000059       -0.000059        0.000000
  --------------------------------------------------------------------
  Sum:       -1.000000        1.413352       -1.413352        0.000000
  
  Multipole moment analysis of the density matrix
    Molecular charge:                      -1.000000
    Number of electrons:                   18.000000
      Center of electronic charge [Ang]: [  0.000000,  -0.000000,   0.568119]
    Total nuclear charge:                  17.000000
      Center of nuclear charge [Ang]:    [  0.000000,  -0.000000,  -0.000000]
    Dipole moment [D]:                     49.118313
      Cartesian components [D]:          [ -0.000000,  -0.000000, -49.118313]
    RMS size of the density [Ang]:         3.684619
      Cartesian components [Ang]:        [  0.921599,   0.836053,   3.468154]
  
  Exciton analysis of the difference density matrix
    <r_h> [Ang]:                  [ -0.000000,  -0.000000,  -0.646517]
    <r_e> [Ang]:                  [ -0.000000,   0.000000,  -0.645223]
    |<r_e - r_h>| [Ang]:            0.001294
    Hole size [Ang]:                1.597664
      Cartesian components [Ang]: [  1.175530,   0.848002,   0.671975]
    Electron size [Ang]:            2.894452
      Cartesian components [Ang]: [  1.465588,   2.158010,   1.254151]

  Transition density matrix analysis:
  -----------------------------------
  
  CT numbers (Mulliken)
    omega =     0.9129
    <Phe> =    -0.0039
  
  Exciton analysis of the transition density matrix
    Trans. dipole moment [D]:             0.711986
      Cartesian components [D]:         [  0.000001,  -0.711986,  -0.000000]
    <r_h> [Ang]:                        [ -0.000000,  -0.000000,  -0.641334]
    <r_e> [Ang]:                        [  0.000000,   0.000000,  -0.644565]
    |<r_e - r_h>| [Ang]:                  0.003231
    Hole size [Ang]:                      1.324742
      Cartesian components [Ang]:       [  1.101465,   0.614550,   0.405024]
    Electron size [Ang]:                  3.325735
      Cartesian components [Ang]:       [  1.644845,   2.517535,   1.420215]
    RMS electron-hole separation [Ang]:   3.538287
      Cartesian components [Ang]:       [  1.920379,   2.578869,   1.476840]
    Covariance(r_h, r_e) [Ang^2]:         0.147994
    Correlation coefficient:              0.033591
    Center-of-mass size [Ang]:            1.810486
      Cartesian components [Ang]:       [  1.018532,   1.301993,   0.738421]

  Decomposition into state-averaged NTOs
    H- 3 -> L+ 0: -0.6699 ( 89.7%)
                   omega =  91.3%
  ----------------------------------------------------------------------------


  Excited state 8 (singlet, B2)                                    [converged]
  ----------------------------------------------------------------------------
  Term symbol:  8 (1) B2                                    R^2 =  1.17111e-09

  Total energy:                                            -78.3365336746 a.u.
  Excitation energy:                                              12.216245 eV

  Osc. strength:                                                      0.000014
  Trans. dip. moment [a.u.]:           [  -0.000000,    0.006930,   -0.000001]
  <i|r^2|0> [a.u.]:                    [  -0.000000,    0.000000,   -0.000001]

  Dip. moment [a.u.]:                  [   0.000000,   -0.000001,  -19.339318]
  Total dipole [Debye]:                                              49.155652
  <r^2> [a.u.]:                        [  55.272256,   35.566087,  790.192482]
  Total <r^2> [a.u.]:                                               881.030825

  V1^2 = 0.9607, V2^2 = 0.0393

  Important amplitudes:
      occ i      occ j       vir a       vir b          v   
    ---------------------------------------------------------
     4 (A1) A               3 (B2) A                 -0.6331
     4 (A1) A               4 (B2) A                  0.2032
    ---------------------------------------------------------

  Density matrix analysis:
  ------------------------
  NOs
    Occupation of frontier NOs:
       0.9722   0.9942
    Number of electrons: 18.000000
    Number of unpaired electrons: n_u =  2.33821, n_u,nl =  2.02918
    NO participation ratio (PR_NO):  2.815956
  
  
  Mulliken Population Analysis
  Atom      Charge (e)              h+              e-           Del q
  --------------------------------------------------------------------
   1 C        0.062245        0.553775       -0.278662        0.275113
   2 C        0.062245        0.553775       -0.278662        0.275113
   3 H       -0.031129        0.033585       -0.171140       -0.137555
   4 H       -0.031108        0.033584       -0.171142       -0.137557
   5 H       -0.031117        0.033584       -0.171142       -0.137558
   6 H       -0.031137        0.033585       -0.171140       -0.137555
   7 H       -1.000000        0.000054       -0.000054        0.000000
  --------------------------------------------------------------------
  Sum:       -1.000000        1.241941       -1.241941        0.000000
  
  Multipole moment analysis of the density matrix
    Molecular charge:                      -1.000000
    Number of electrons:                   18.000000
      Center of electronic charge [Ang]: [ -0.000000,  -0.000000,   0.568551]
    Total nuclear charge:                  17.000000
      Center of nuclear charge [Ang]:    [  0.000000,  -0.000000,  -0.000000]
    Dipole moment [D]:                     49.155637
      Cartesian components [D]:          [  0.000000,  -0.000003, -49.155637]
    RMS size of the density [Ang]:         3.658288
      Cartesian components [Ang]:        [  0.927296,   0.743846,   3.459752]
  
  Exciton analysis of the difference density matrix
    <r_h> [Ang]:                  [ -0.000000,  -0.000000,  -0.647084]
    <r_e> [Ang]:                  [ -0.000000,   0.000001,  -0.639355]
    |<r_e - r_h>| [Ang]:            0.007729
    Hole size [Ang]:                1.485940
      Cartesian components [Ang]: [  0.939997,   0.753067,   0.870238]
    Electron size [Ang]:            2.459710
      Cartesian components [Ang]: [  1.381334,   1.713808,   1.097701]

  Transition density matrix analysis:
  -----------------------------------
  
  CT numbers (Mulliken)
    omega =     0.9274
    <Phe> =    -0.0097
  
  Exciton analysis of the transition density matrix
    Trans. dipole moment [D]:             0.008808
      Cartesian components [D]:         [ -0.000000,   0.008808,  -0.000001]
    <r_h> [Ang]:                        [  0.000000,  -0.000000,  -0.647046]
    <r_e> [Ang]:                        [ -0.000000,   0.000001,  -0.638588]
    |<r_e - r_h>| [Ang]:                  0.008458
    Hole size [Ang]:                      1.252845
      Cartesian components [Ang]:       [  0.759939,   0.514894,   0.852642]
    Electron size [Ang]:                  2.650931
      Cartesian components [Ang]:       [  1.474527,   1.862126,   1.177154]
    RMS electron-hole separation [Ang]:   2.920660
      Cartesian components [Ang]:       [  1.640798,   1.930625,   1.452832]
    Covariance(r_h, r_e) [Ang^2]:         0.033438
    Correlation coefficient:              0.010068
    Center-of-mass size [Ang]:            1.471728
      Cartesian components [Ang]:       [  0.838340,   0.966688,   0.727106]

  Decomposition into state-averaged NTOs
    H- 2 -> L+ 1:  0.6751 ( 91.1%)
                   omega =  92.7%
  ----------------------------------------------------------------------------


  Excited state 9 (singlet, B2)                                    [converged]
  ----------------------------------------------------------------------------
  Term symbol:  9 (1) B2                                    R^2 =  1.53909e-08

  Total energy:                                            -78.3124946256 a.u.
  Excitation energy:                                              12.870381 eV

  Osc. strength:                                                      0.000418
  Trans. dip. moment [a.u.]:           [   0.000000,   -0.036403,   -0.000000]
  <i|r^2|0> [a.u.]:                    [  -0.000000,    0.000000,   -0.000001]

  Dip. moment [a.u.]:                  [  -0.000000,    0.000000,  -19.465825]
  Total dipole [Debye]:                                              49.477201
  <r^2> [a.u.]:                        [  68.288199,   28.678706,  808.732879]
  Total <r^2> [a.u.]:                                               905.699784

  V1^2 = 0.9393, V2^2 = 0.0607

  Important amplitudes:
      occ i      occ j       vir a       vir b          v   
    ---------------------------------------------------------
     1 (A2) A               5 (B1) A                  0.4814
     1 (A2) A               4 (B1) A                 -0.4552
    ---------------------------------------------------------

  Density matrix analysis:
  ------------------------
  NOs
    Occupation of frontier NOs:
       0.9745   1.0349
    Number of electrons: 18.000000
    Number of unpaired electrons: n_u =  2.45536, n_u,nl =  2.07739
    NO participation ratio (PR_NO):  3.168510
  
  
  Mulliken Population Analysis
  Atom      Charge (e)              h+              e-           Del q
  --------------------------------------------------------------------
   1 C       -0.535297        0.296379       -0.618808       -0.322429
   2 C       -0.535297        0.296379       -0.618808       -0.322429
   3 H        0.267641        0.170899       -0.009685        0.161215
   4 H        0.267664        0.170900       -0.009685        0.161215
   5 H        0.267656        0.170899       -0.009685        0.161215
   6 H        0.267633        0.170899       -0.009685        0.161215
   7 H       -1.000000        0.000082       -0.000082        0.000000
  --------------------------------------------------------------------
  Sum:       -1.000000        1.276437       -1.276437        0.000000
  
  Multipole moment analysis of the density matrix
    Molecular charge:                      -1.000000
    Number of electrons:                   18.000000
      Center of electronic charge [Ang]: [  0.000000,  -0.000000,   0.572270]
    Total nuclear charge:                  17.000000
      Center of nuclear charge [Ang]:    [  0.000000,  -0.000000,  -0.000000]
    Dipole moment [D]:                     49.477186
      Cartesian components [D]:          [ -0.000000,   0.000000, -49.477186]
    RMS size of the density [Ang]:         3.709799
      Cartesian components [Ang]:        [  1.030713,   0.667951,   3.500582]
  
  Exciton analysis of the difference density matrix
    <r_h> [Ang]:                  [ -0.000000,  -0.000000,  -0.643199]
    <r_e> [Ang]:                  [  0.000000,  -0.000000,  -0.583232]
    |<r_e - r_h>| [Ang]:            0.059967
    Hole size [Ang]:                1.698394
      Cartesian components [Ang]: [  1.204770,   0.995830,   0.664375]
    Electron size [Ang]:            3.478315
      Cartesian components [Ang]: [  2.302986,   1.336668,   2.237912]

  Transition density matrix analysis:
  -----------------------------------
  
  CT numbers (Mulliken)
    omega =     0.9228
    <Phe> =    -0.0024
  
  Exciton analysis of the transition density matrix
    Trans. dipole moment [D]:             0.046263
      Cartesian components [D]:         [  0.000000,  -0.046263,  -0.000000]
    <r_h> [Ang]:                        [ -0.000000,  -0.000000,  -0.640920]
    <r_e> [Ang]:                        [  0.000000,  -0.000000,  -0.564647]
    |<r_e - r_h>| [Ang]:                  0.076273
    Hole size [Ang]:                      1.513552
      Cartesian components [Ang]:       [  1.115930,   0.932092,   0.420413]
    Electron size [Ang]:                  3.846992
      Cartesian components [Ang]:       [  2.539487,   1.456656,   2.495698]
    RMS electron-hole separation [Ang]:   4.071346
      Cartesian components [Ang]:       [  2.678992,   1.728994,   2.531687]
    Covariance(r_h, r_e) [Ang^2]:         0.260074
    Correlation coefficient:              0.044666
    Center-of-mass size [Ang]:            2.098234
      Cartesian components [Ang]:       [  1.432793,   0.864850,   1.265592]

  Decomposition into state-averaged NTOs
    H- 0 -> L+ 5: -0.6186 ( 76.5%)
    H- 0 -> L+ 3: -0.2414 ( 11.7%)
    H- 0 -> L+ 4: -0.1053 (  2.2%)
    H- 2 -> L+ 1: -0.0710 (  1.0%)
                   omega =  92.3%
  ----------------------------------------------------------------------------


  Excited state 10 (singlet, B2)                                    [converged]
  ----------------------------------------------------------------------------
  Term symbol:  10 (1) B2                                   R^2 =  6.91868e-06

  Total energy:                                            -78.2729293185 a.u.
  Excitation energy:                                              13.947008 eV

  Osc. strength:                                                      0.270816
  Trans. dip. moment [a.u.]:           [   0.000001,   -0.890262,    0.000000]
  <i|r^2|0> [a.u.]:                    [   0.000000,    0.000000,    0.000002]

  Dip. moment [a.u.]:                  [   0.000000,   -0.000000,  -18.551644]
  Total dipole [Debye]:                                              47.153585
  <r^2> [a.u.]:                        [  62.821480,   29.913944,  797.861342]
  Total <r^2> [a.u.]:                                               890.596766

  V1^2 = 0.9303, V2^2 = 0.0697

  Important amplitudes:
      occ i      occ j       vir a       vir b          v   
    ---------------------------------------------------------
     1 (B2) A               6 (A1) A                  0.4980
     1 (B2) A               8 (A1) A                 -0.3364
    ---------------------------------------------------------

  Density matrix analysis:
  ------------------------
  NOs
    Occupation of frontier NOs:
       0.8084   1.2028
    Number of electrons: 18.000000
    Number of unpaired electrons: n_u =  2.47985, n_u,nl =  2.19467
    NO participation ratio (PR_NO):  4.410080
  
  
  Mulliken Population Analysis
  Atom      Charge (e)              h+              e-           Del q
  --------------------------------------------------------------------
   1 C       -0.500586        0.339333       -0.627052       -0.287719
   2 C       -0.500586        0.339333       -0.627052       -0.287719
   3 H        0.250286        0.141056        0.002804        0.143860
   4 H        0.250308        0.141057        0.002802        0.143859
   5 H        0.250300        0.141057        0.002802        0.143859
   6 H        0.250279        0.141057        0.002804        0.143860
   7 H       -1.000000        0.000100       -0.000100        0.000000
  --------------------------------------------------------------------
  Sum:       -1.000000        1.242992       -1.242992        0.000000
  
  Multipole moment analysis of the density matrix
    Molecular charge:                      -1.000000
    Number of electrons:                   18.000000
      Center of electronic charge [Ang]: [ -0.000000,  -0.000000,   0.545394]
    Total nuclear charge:                  17.000000
      Center of nuclear charge [Ang]:    [  0.000000,  -0.000000,  -0.000000]
    Dipole moment [D]:                     47.153571
      Cartesian components [D]:          [  0.000000,  -0.000000, -47.153571]
    RMS size of the density [Ang]:         3.682076
      Cartesian components [Ang]:        [  0.988596,   0.682184,   3.480659]
  
  Exciton analysis of the difference density matrix
    <r_h> [Ang]:                  [ -0.000000,  -0.000000,  -0.648390]
    <r_e> [Ang]:                  [ -0.000000,   0.000000,  -0.976003]
    |<r_e - r_h>| [Ang]:            0.327613
    Hole size [Ang]:                1.619190
      Cartesian components [Ang]: [  1.120948,   0.966860,   0.656074]
    Electron size [Ang]:            2.841416
      Cartesian components [Ang]: [  1.995214,   1.424604,   1.436408]

  Transition density matrix analysis:
  -----------------------------------
  
  CT numbers (Mulliken)
    omega =     0.9149
    <Phe> =    -0.0127
  
  Exciton analysis of the transition density matrix
    Trans. dipole moment [D]:             1.131410
      Cartesian components [D]:         [  0.000001,  -1.131410,   0.000000]
    <r_h> [Ang]:                        [  0.000000,  -0.000000,  -0.642326]
    <r_e> [Ang]:                        [ -0.000000,   0.000000,  -1.066911]
    |<r_e - r_h>| [Ang]:                  0.424585
    Hole size [Ang]:                      1.395186
      Cartesian components [Ang]:       [  0.975591,   0.901348,   0.427009]
    Electron size [Ang]:                  3.064465
      Cartesian components [Ang]:       [  2.145365,   1.556876,   1.537690]
    RMS electron-hole separation [Ang]:   3.423825
      Cartesian components [Ang]:       [  2.411106,   1.784096,   1.651104]
    Covariance(r_h, r_e) [Ang^2]:        -0.102409
    Correlation coefficient:             -0.023953
    Center-of-mass size [Ang]:            1.668283
      Cartesian components [Ang]:       [  1.150577,   0.906860,   0.798089]

  Decomposition into state-averaged NTOs
    H- 4 -> L+ 6: -0.6083 ( 74.0%)
    H- 0 -> L+ 7: -0.2813 ( 15.8%)
                   omega =  91.5%
  ----------------------------------------------------------------------------


--------------------------------------------------------------------------------
  Time of ADC calculation:  CPU 254.17 s  wall 61.47 s
================================================================================
 
 --------------------------------------------------------------
             Orbital Energies (a.u.) and Symmetries
 --------------------------------------------------------------
 
 Alpha MOs, Restricted
 -- Occupied --                  
-11.189 -11.187  -0.993  -0.733  -0.612  -0.519  -0.467  -0.328
  1 A1    1 B1    2 A1    2 B1    1 B2    3 A1    1 A2    4 A1                 
  0.022
  5 A1                                                                         
 -- Virtual --                   
  0.119   0.133   0.135   0.148   0.148   0.164   0.189   0.235
  3 B1    2 B2    6 A1    7 A1    4 B1    2 A2    8 A1    5 B1                 
  0.262   0.311   0.367   0.369   0.399   0.403   0.415   0.417
  6 B1    9 A1    3 B2    7 B1   10 A1    4 B2   11 A1    8 B1                 
  0.424   0.498   0.596   0.665   0.884   0.898   0.983   1.012
  3 A2    9 B1    4 A2   10 B1   12 A1    5 B2   11 B1   13 A1                 
  1.058   1.071   1.110   1.111   1.163   1.181   1.189   1.225
 14 A1    5 A2    6 B2   15 A1    7 B2   16 A1   12 B1   13 B1                 
  1.333   1.340   1.342   1.506   1.671   1.740   1.781   1.924
  6 A2   17 A1   14 B1    7 A2   18 A1    8 A2    8 B2   15 B1                 
  1.968   1.968   1.968   1.993   2.011   2.066   2.124   2.146
 16 B1    9 B2   19 A1   20 A1   17 B1   10 B2   21 A1   11 B2                 
  2.231   2.381   2.461   2.522   2.616   2.628   2.892   2.894
 18 B1   19 B1    9 A2   22 A1   10 A2   20 B1   12 B2   23 A1                 
  3.316   3.392
 21 B1   11 A2                                                                 
 
 Beta MOs, Restricted
 -- Occupied --                  
-11.189 -11.187  -0.993  -0.733  -0.612  -0.519  -0.467  -0.328
  1 A1    1 B1    2 A1    2 B1    1 B2    3 A1    1 A2    4 A1                 
  0.022
  5 A1                                                                         
 -- Virtual --                   
  0.119   0.133   0.135   0.148   0.148   0.164   0.189   0.235
  3 B1    2 B2    6 A1    7 A1    4 B1    2 A2    8 A1    5 B1                 
  0.262   0.311   0.367   0.369   0.399   0.403   0.415   0.417
  6 B1    9 A1    3 B2    7 B1   10 A1    4 B2   11 A1    8 B1                 
  0.424   0.498   0.596   0.665   0.884   0.898   0.983   1.012
  3 A2    9 B1    4 A2   10 B1   12 A1    5 B2   11 B1   13 A1                 
  1.058   1.071   1.110   1.111   1.163   1.181   1.189   1.225
 14 A1    5 A2    6 B2   15 A1    7 B2   16 A1   12 B1   13 B1                 
  1.333   1.340   1.342   1.506   1.671   1.740   1.781   1.924
  6 A2   17 A1   14 B1    7 A2   18 A1    8 A2    8 B2   15 B1                 
  1.968   1.968   1.968   1.993   2.011   2.066   2.124   2.146
 16 B1    9 B2   19 A1   20 A1   17 B1   10 B2   21 A1   11 B2                 
  2.231   2.381   2.461   2.522   2.616   2.628   2.892   2.894
 18 B1   19 B1    9 A2   22 A1   10 A2   20 B1   12 B2   23 A1                 
  3.316   3.392
 21 B1   11 A2                                                                 
 --------------------------------------------------------------
 
          Ground-State Mulliken Net Atomic Charges

     Atom                 Charge (a.u.)
  ----------------------------------------
      1 C                    -0.197708
      2 C                    -0.197708
      3 H                     0.098846
      4 H                     0.098869
      5 H                     0.098861
      6 H                     0.098838
      7 H                    -1.000000
  ----------------------------------------
  Sum of atomic charges =    -1.000000

 -----------------------------------------------------------------
                    Cartesian Multipole Moments
 -----------------------------------------------------------------
    Charge (ESU x 10^10)
                -4.8032
    Dipole Moment (Debye)
         X       0.0000      Y       0.0000      Z     -49.1059
       Tot      49.1059
    Quadrupole Moments (Debye-Ang)
        XX     -16.8817     XY       0.0000     YY     -15.9229
        XZ      -0.0000     YZ      -0.0000     ZZ    -524.5993
    Octopole Moments (Debye-Ang^2)
       XXX      -0.0000    XXY       0.0000    XYY      -0.0000
       YYY       0.0000    XXZ     -32.1153    XYZ      -0.0000
       YYZ     -32.7617    XZZ      -0.0000    YZZ       0.0000
       ZZZ   -5258.4878
    Hexadecapole Moments (Debye-Ang^3)
      XXXX     -74.0208   XXXY       0.0000   XXYY     -15.1870
      XYYY       0.0000   YYYY     -32.8140   XXXZ       0.0000
      XXYZ      -0.0000   XYYZ       0.0000   YYYZ      -0.0000
      XXZZ    -438.2344   XYZZ       0.0000   YYZZ    -431.1913
      XZZZ       0.0000   YZZZ      -0.0000   ZZZZ  -55521.1368
 -----------------------------------------------------------------
 Total job time:  143.94s(wall), 298.07s(cpu) 
 Sat Mar 26 08:33:51 2022

        *************************************************************
        *                                                           *
        *  Thank you very much for using Q-Chem.  Have a nice day.  *
        *                                                           *
        *************************************************************


