/src/tsommerfeld/qchem/exe/qcprog.exe .input1.194444.16650.qcin.1 /src/jdavis/qchem.scratch/qchem16650/

                  Welcome to Q-Chem
     A Quantum Leap Into The Future Of Chemistry


 Q-Chem 5.4 (devel), Q-Chem, Inc., Pleasanton, CA (2021)

 E. Epifanovsky,  A. T. B. Gilbert,  Xintian Feng,  Joonho Lee,  Yuezhi Mao,  
 N. Mardirossian,  P. Pokhilko,  A. White,  M. Wormit,  M. P. Coons,  
 A. L. Dempwolff,  Zhengting Gan,  D. Hait,  P. R. Horn,  L. D. Jacobson,  
 I. Kaliman,  J. Kussmann,  A. W. Lange,  Ka Un Lao,  D. S. Levine,  Jie Liu,  
 S. C. McKenzie,  A. F. Morrison,  K. Nanda,  F. Plasser,  D. R. Rehn,  
 M. L. Vidal,  Zhi-Qiang You,  Ying Zhu,  B. Alam,  B. Albrecht,  
 A. Aldossary,  E. Alguire,  J. H. Andersen,  D. Barton,  K. Begam,  A. Behn,  
 Y. A. Bernard,  E. J. Berquist,  H. Burton,  A. Carreras,  K. Carter-Fenk,  
 R. Chakraborty,  A. D. Chien,  K. D. Closser,  V. Cofer-Shabica,  
 S. Dasgupta,  Jia Deng,  M. de Wergifosse,  M. Diedenhofen,  Hainam Do,  
 S. Ehlert,  Po-Tung Fang,  S. Fatehi,  Qingguo Feng,  T. Friedhoff,  
 J. Gayvert,  Qinghui Ge,  G. Gidofalvi,  M. Goldey,  J. Gomes,  
 C. Gonzalez-Espinoza,  S. Gulania,  A. Gunina,  M. W. D. Hanson-Heine,  
 P. H. P. Harbach,  A. W. Hauser,  M. F. Herbst,  M. Hernandez Vera,  
 M. Hodecker,  Z. C. Holden,  S. Houck,  Xunkun Huang,  Kerwin Hui,  
 B. C. Huynh,  M. Ivanov,  Hyunjun Ji,  Hanjie Jiang,  B. Kaduk,  S. Kaehler,  
 K. Khistyaev,  Jaehoon Kim,  P. Klunzinger,  Z. Koczor-Benda,  
 Joong Hoon Koh,  D. Kosenkov,  L. Koulias,  T. Kowalczyk,  C. M. Krauter,  
 K. Kue,  A. Kunitsa,  T. Kus,  A. Landau,  K. V. Lawler,  D. Lefrancois,  
 S. Lehtola,  Rain Li,  Yi-Pei Li,  Jiashu Liang,  M. Liebenthal,  
 Hung-Hsuan Lin,  You-Sheng Lin,  Fenglai Liu,  Kuan-Yu Liu,  
 M. Loipersberger,  A. Luenser,  A. Manjanath,  P. Manohar,  E. Mansoor,  
 S. F. Manzer,  Shan-Ping Mao,  A. V. Marenich,  T. Markovich,  S. Mason,  
 S. A. Maurer,  P. F. McLaughlin,  M. F. S. J. Menger,  J.-M. Mewes,  
 S. A. Mewes,  P. Morgante,  J. W. Mullinax,  K. J. Oosterbaan,  G. Paran,  
 Alexander C. Paul,  Suranjan K. Paul,  F. Pavosevic,  Zheng Pei,  S. Prager,  
 E. I. Proynov,  E. Ramos,  B. Rana,  A. E. Rask,  A. Rettig,  R. M. Richard,  
 F. Rob,  E. Rossomme,  T. Scheele,  M. Scheurer,  M. Schneider,  
 N. Sergueev,  S. M. Sharada,  W. Skomorowski,  D. W. Small,  C. J. Stein,  
 Yu-Chuan Su,  E. J. Sundstrom,  Zhen Tao,  J. Thirman,  T. Tsuchimochi,  
 N. M. Tubman,  S. P. Veccham,  O. Vydrov,  J. Wenzel,  J. Witte,  A. Yamada,  
 Kun Yao,  S. Yeganeh,  S. R. Yost,  A. Zech,  Igor Ying Zhang,  Xing Zhang,  
 Yu Zhang,  D. Zuev,  A. Aspuru-Guzik,  A. T. Bell,  N. A. Besley,  
 K. B. Bravaya,  B. R. Brooks,  D. Casanova,  Jeng-Da Chai,  S. Coriani,  
 C. J. Cramer,  A. E. DePrince, III,  R. A. DiStasio Jr.,  A. Dreuw,  
 B. D. Dunietz,  T. R. Furlani,  W. A. Goddard III,  S. Grimme,  
 S. Hammes-Schiffer,  T. Head-Gordon,  W. J. Hehre,  Chao-Ping Hsu,  
 T.-C. Jagau,  Yousung Jung,  A. Klamt,  Jing Kong,  D. S. Lambrecht,  
 WanZhen Liang,  N. J. Mayhall,  C. W. McCurdy,  J. B. Neaton,  
 C. Ochsenfeld,  J. A. Parkhill,  R. Peverati,  V. A. Rassolov,  Yihan Shao,  
 L. V. Slipchenko,  T. Stauch,  R. P. Steele,  J. E. Subotnik,  
 A. J. W. Thom,  A. Tkatchenko,  D. G. Truhlar,  T. Van Voorhis,  
 T. A. Wesolowski,  K. B. Whaley,  H. L. Woodcock III,  P. M. Zimmerman,  
 S. Faraji,  P. M. W. Gill,  M. Head-Gordon,  J. M. Herbert,  A. I. Krylov

 Additional authors for Version 5.4.1: 
 S. Kotaru,  Shaozhi Li,  Xiangyuan Li,  F. Matz,  A. Molle,  Haisheng Ren,  
 Yingli Su,  Hung-Yi Tsai,  C. Utku,  Fang Wang

 Contributors to earlier versions of Q-Chem not listed above: 
 R. D. Adamson,  B. Austin,  R. Baer,  J. Baker,  G. J. O. Beran,  
 K. Brandhorst,  S. T. Brown,  E. F. C. Byrd,  A. K. Chakraborty,  
 G. K. L. Chan,  Chun-Min Chang,  Yunqing Chen,  C.-L. Cheng,  
 Siu Hung Chien,  D. M. Chipman,  D. L. Crittenden,  H. Dachsel,  
 R. J. Doerksen,  A. D. Dutoi,  R. G. Edgar,  J. Fosso-Tande,  
 L. Fusti-Molnar,  D. Ghosh,  A. Ghysels,  A. Golubeva-Zadorozhnaya,  
 J. Gonthier,  M. S. Gordon,  S. R. Gwaltney,  G. Hawkins,  J. E. Herr,  
 A. Heyden,  S. Hirata,  E. G. Hohenstein,  G. Kedziora,  F. J. Keil,  
 C. Kelley,  Jihan Kim,  R. A. King,  R. Z. Khaliullin,  P. P. Korambath,  
 W. Kurlancheek,  A. Laurent,  A. M. Lee,  M. S. Lee,  S. V. Levchenko,  
 Ching Yeh Lin,  D. Liotard,  E. Livshits,  R. C. Lochan,  I. Lotan,  
 L. A. Martinez-Martinez,  P. E. Maslen,  N. Nair,  D. P. O'Neill,  
 D. Neuhauser,  E. Neuscamman,  C. M. Oana,  R. Olivares-Amaya,  R. Olson,  
 T. M. Perrine,  B. Peters,  P. A. Pieniazek,  A. Prociuk,  Y. M. Rhee,  
 J. Ritchie,  M. A. Rohrdanz,  E. Rosta,  N. J. Russ,  H. F. Schaefer III,  
 M. W. Schmidt,  N. E. Schultz,  S. Sharma,  N. Shenvi,  C. D. Sherrill,  
 A. C. Simmonett,  A. Sodt,  T. Stein,  D. Stuck,  K. S. Thanthiriwatte,  
 V. Vanovschi,  L. Vogt,  Tao Wang,  A. Warshel,  M. A. Watson,  
 C. F. Williams,  Q. Wu,  X. Xu,  Jun Yang,  W. Zhang,  Yan Zhao

 Please cite Q-Chem as follows:
 Y. Shao et al., Mol. Phys. 113, 184-215 (2015)
 DOI: 10.1080/00268976.2014.952696

 Q-Chem 5.4.1 for Intel X86 EM64T Linux

 Parts of Q-Chem use Armadillo 9.900.5 (Nocturnal Misbehaviour).
 http://arma.sourceforge.net/

 Q-Chem begins on Sat Mar 26 07:52:42 2022  

 Host: node01
0

     Scratch files written to /src/jdavis/qchem.scratch/qchem16650//
 Processing $rem in /src/tsommerfeld/qchem/config/preferences:
 Processing $rem in /home/jdavis/.qchemrc:

 Checking the input file for inconsistencies... 	...done.

--------------------------------------------------------------
User input:
--------------------------------------------------------------
$molecule
-1 1
C         0.0000003663    0.4438502432    0.6645000000
C         0.0000003663    0.4438502432   -0.6645000000
H        -0.9623486337    0.4438522630    1.1590800000
H        -0.9623486337    0.4438522630   -1.1590800000
H         0.9623483663    0.4438482235    1.1590800000
H         0.9623483663    0.4438482235   -1.1590800000
H        -0.0000038605   -10.4438482235    0.0000000000
$end

$rem
   METHOD adc(2)
   BASIS gen
   PURECART 11
   EE_STATES [0,0,0,10]
   scf_convergence 8
   ADC_DAVIDSON_MAXITER 120
   ADC_DAVIDSON_MAXSUBSPACE 200
   adc_nguess_singles 100
   THRESH 14
   S2THRESH 14
   adc_davidson_conv 5
   adc_davidson_thresh 14
   THREADS 10
   MEM_TOTAL 95000
   STATE_ANALYSIS TRUE
$end
$basis
C 1
S   9   1.00
      6.665000D+03           6.920000D-04
      1.000000D+03           5.329000D-03
      2.280000D+02           2.707700D-02
      6.471000D+01           1.017180D-01
      2.106000D+01           2.747400D-01
      7.495000D+00           4.485640D-01
      2.797000D+00           2.850740D-01
      5.215000D-01           1.520400D-02
      1.596000D-01          -3.191000D-03
S   9   1.00
      6.665000D+03          -1.460000D-04
      1.000000D+03          -1.154000D-03
      2.280000D+02          -5.725000D-03
      6.471000D+01          -2.331200D-02
      2.106000D+01          -6.395500D-02
      7.495000D+00          -1.499810D-01
      2.797000D+00          -1.272620D-01
      5.215000D-01           5.445290D-01
      1.596000D-01           5.804960D-01
S   1   1.00
      1.596000D-01           1.000000D+00
S   1   1.00
      0.0469000              1.0000000
P   4   1.00
      9.439000D+00           3.810900D-02
      2.002000D+00           2.094800D-01
      5.456000D-01           5.085570D-01
      1.517000D-01           4.688420D-01
P   1   1.00
      1.517000D-01           1.000000D+00
P   1   1.00
      0.0724789      1.0000000
P   1   1.00
      0.0362394      1.0000000
D   1   1.00
      5.500000D-01           1.0000000
****
C 2
S   9   1.00
      6.665000D+03           6.920000D-04
      1.000000D+03           5.329000D-03
      2.280000D+02           2.707700D-02
      6.471000D+01           1.017180D-01
      2.106000D+01           2.747400D-01
      7.495000D+00           4.485640D-01
      2.797000D+00           2.850740D-01
      5.215000D-01           1.520400D-02
      1.596000D-01          -3.191000D-03
S   9   1.00
      6.665000D+03          -1.460000D-04
      1.000000D+03          -1.154000D-03
      2.280000D+02          -5.725000D-03
      6.471000D+01          -2.331200D-02
      2.106000D+01          -6.395500D-02
      7.495000D+00          -1.499810D-01
      2.797000D+00          -1.272620D-01
      5.215000D-01           5.445290D-01
      1.596000D-01           5.804960D-01
S   1   1.00
      1.596000D-01           1.000000D+00
S   1   1.00
      0.0469000              1.0000000
P   4   1.00
      9.439000D+00           3.810900D-02
      2.002000D+00           2.094800D-01
      5.456000D-01           5.085570D-01
      1.517000D-01           4.688420D-01
P   1   1.00
      1.517000D-01           1.000000D+00
P   1   1.00
      0.0724789      1.0000000
P   1   1.00
      0.0362394      1.0000000
D   1   1.00
      5.500000D-01           1.0000000
****
H 3
cc-pVDZ
****
H 4
cc-pVDZ
****
H 5
cc-pVDZ
****
H 6
cc-pVDZ
****
H 7
aug-cc-pVDZ
****
$end
--------------------------------------------------------------
 Atom   2: (  0.6645000000,  0.0000001629, -0.6404528510)
         ->(  0.6645000000, -0.0000001629, -0.6404528510)
 Atom   1: ( -0.6645000000,  0.0000001629, -0.6404528510)
         ->( -0.6645000000,  0.0000000000, -0.6404528510)
 Atom   6: (  1.1590800000,  0.9623481629, -0.6404511369)
         ->(  1.1590800000,  0.9623488371, -0.6404545651)
 Atom   5: ( -1.1590800000,  0.9623481629, -0.6404511369)
         ->( -1.1590800000,  0.9623488371, -0.6404545651)
 Atom   7: ( -0.0000000000, -0.0000006060, 10.2472456157)
         ->(  0.0000000000,  0.0000000000, 10.2472456157)
 ----------------------------------------------------------------
             Standard Nuclear Orientation (Angstroms)
    I     Atom           X                Y                Z
 ----------------------------------------------------------------
    1      C      -0.6645000000     0.0000000000    -0.6404528510
    2      C       0.6645000000    -0.0000001629    -0.6404528510
    3      H      -1.1590800000    -0.9623488371    -0.6404545651
    4      H       1.1590800000    -0.9623488371    -0.6404545651
    5      H      -1.1590800000     0.9623488371    -0.6404545651
    6      H       1.1590800000     0.9623488371    -0.6404545651
    7      H       0.0000000000     0.0000000000    10.2472456157
 ----------------------------------------------------------------
 Molecular Point Group                 C2v   NOp =  4
 Largest Abelian Subgroup              C2v   NOp =  4
 Nuclear Repulsion Energy =          34.36395017 hartrees
 There are        9 alpha and        9 beta electrons
 Requested basis set is non-standard
 There are 33 shells and 67 basis functions
 Total memory of 95000 MB is distributed as follows: 
   MEM_STATIC is set to 192 MB
   QALLOC/CCMAN JOB total memory use is  94808 MB
 Warning: actual memory use might exceed 95000 MB

 Total QAlloc Memory Limit  95000 MB
 Mega-Array Size       188 MB
 MEM_STATIC part       192 MB

                       Distance Matrix (Angstroms)
             C (  1)   C (  2)   H (  3)   H (  4)   H (  5)   H (  6)
   C (  2)  1.329000
   H (  3)  1.082000  2.061931
   H (  4)  2.061931  1.082000  2.318160
   H (  5)  1.082000  2.061931  1.924698  3.013026
   H (  6)  2.061931  1.082000  3.013026  1.924698  2.318160
   H (  7) 10.907958 10.907958 10.991433 10.991433 10.991433 10.991433

 
 A cutoff of  1.0D-14 yielded    493 shell pairs
 There are      2101 function pairs (      2238 Cartesian)
 Smallest overlap matrix eigenvalue = 2.56E-04

 Scale SEOQF with 1.000000e-01/1.000000e-01/1.000000e-02

 Standard Electronic Orientation quadrupole field applied
 Nucleus-field energy     =    -0.0000000005 hartrees
 ================ Generating on-the-fly SAD Guess ================
Attempting to make child job directory: /src/jdavis/qchem.scratch/qchem16650//Frg1/
Attempting to make child job directory: /src/jdavis/qchem.scratch/qchem16650//Frg2/
Creating input file /src/jdavis/qchem.scratch/qchem16650/Frg1.input
using default PutDataFrgm: nothing
calling putenv with: QCSCRATCH=/src/jdavis/qchem.scratch/qchem16650/ 
Spawning Job For Fragment 0
Done Job For Fragment 0
calling putenv with: QCSCRATCH=/src/jdavis/qchem.scratch 
calling putenv with: QCTHREADS=1 
Creating input file /src/jdavis/qchem.scratch/qchem16650/Frg2.input
using default PutDataFrgm: nothing
calling putenv with: QCSCRATCH=/src/jdavis/qchem.scratch/qchem16650/ 
Spawning Job For Fragment 1
Done Job For Fragment 1
calling putenv with: QCSCRATCH=/src/jdavis/qchem.scratch 
calling putenv with: QCTHREADS=1 
 Time for running child jobs:  CPU 1.77 s  wall 54.55 s
 ============= Method Specific SAD Guess Constructed =============
 Guess from on-the-fly superposition of atomic densities
 Warning: Energy on first SCF cycle will be non-variational
 A restricted Hartree-Fock SCF calculation will be
 performed using Pulay DIIS extrapolation
 SCF converges when DIIS error is below 1.0E-08
 using 10 threads for integral computing
 -------------------------------------------------------
 OpenMP Integral computing Module                
 Release: version 1.0, May 2013, Q-Chem Inc. Pittsburgh 
 -------------------------------------------------------
 ---------------------------------------
  Cycle       Energy         DIIS Error
 ---------------------------------------
    1     -78.8008269644      7.36E-02
    2     -78.4459649625      6.48E-03
    3     -78.4838985647      1.48E-03
    4     -78.4858252870      4.77E-04
    5     -78.4859955539      7.17E-05
    6     -78.4860029371      1.19E-05
    7     -78.4860033077      3.33E-06
    8     -78.4860033789      3.03E-07
    9     -78.4860033848      6.89E-08
   10     -78.4860033859      1.20E-08
   11     -78.4860033860      1.88E-09 Convergence criterion met
 ---------------------------------------
 SCF time:  CPU 9.94 s  wall 1.00 s
 SCF   energy in the final basis set = -78.48600339
 Total energy in the final basis set = -78.48600339
================================================================================
|                                                                              |
|                                 A D C  M A N                                 |
|                                                                              |
 ------------------------------------------------------------------------------ 
|                                                                              |
| Components:                                                                  |
|                                                                              |
| - libvmm - 1.3-trunk                                                         |
|   Authors:                                                                   |
|   Evgeny Epifanovsky, Ilya Kaliman                                           |
|                                                                              |
| - libtensor - 2.5-trunk                                                      |
|   Authors:                                                                   |
|   Evgeny Epifanovsky, Michael Wormit, Dmitry Zuev, Sam Manzer,               |
|   Ilya Kaliman                                                               |
|                                                                              |
| - libwfa - 1.1-trunk                                                         |
|   Authors:                                                                   |
|   Felix Plasser, Stefanie Mewes (Baeppler), Benjamin Thomitzni,              |
|   Michael Wormit, Feng Chen, Anna I. Krylov, Pavel Pokhilko                  |
|                                                                              |
| - libadc - 1.1-trunk                                                         |
|   Authors:                                                                   |
|   Michael Wormit, Adrian L. Dempwolff, Philipp H. P. Harbach,                |
|   Caroline Krauter, Dirk Rehn, Matthias Schneider, Jan Wenzel                |
|                                                                              |
| - adcman - 2.6-trunk                                                         |
|   Authors:                                                                   |
|   Michael Wormit, Adrian L. Dempwolff, Philipp H. P. Harbach,                |
|   Caroline Krauter, Daniel Lefrancois, Jan-Michael Mewes, Dirk Rehn,         |
|   Matthias Schneider, Jan Wenzel, Andreas Dreuw                              |
|                                                                              |
| Authors of earlier versions of ADCMAN:                                       |
| Andreas Dreuw, Jan Hendrik Starcke, Dirk Rehn, Michael Wormit                |
|                                                                              |
================================================================================

 
 Alpha MOs, Restricted
 -- Occupied --                  
-11.189 -11.187  -0.993  -0.733  -0.612  -0.519  -0.467  -0.328
  1 A1    1 B1    2 A1    2 B1    1 B2    3 A1    1 A2    4 A1                 
  0.022
  5 A1                                                                         
 -- Virtual --                   
  0.110   0.122   0.129   0.137   0.142   0.148   0.180   0.222
  3 B1    2 B2    6 A1    7 A1    4 B1    2 A2    8 A1    5 B1                 
  0.252   0.311   0.343   0.353   0.366   0.373   0.376   0.389
  6 B1    9 A1    3 B2    7 B1   10 A1    3 A2   11 A1    4 B2                 
  0.418   0.457   0.602   0.658   0.876   0.903   0.970   0.982
  8 B1    9 B1    4 A2   10 B1   12 A1    5 B2   13 A1   11 B1                 
  1.046   1.058   1.082   1.094   1.121   1.163   1.164   1.167
  6 B2   14 A1    5 A2   15 A1   16 A1    7 B2   12 B1   13 B1                 
  1.320   1.333   1.336   1.466   1.667   1.695   1.773   1.919
 14 B1    6 A2   17 A1    7 A2   18 A1    8 A2    8 B2   15 B1                 
  1.968   1.968   1.968   1.992   2.003   2.066   2.107   2.138
 16 B1    9 B2   19 A1   20 A1   17 B1   10 B2   21 A1   11 B2                 
  2.228   2.375   2.461   2.515   2.626   2.628   2.870   2.878
 18 B1   19 B1    9 A2   22 A1   20 B1   10 A2   12 B2   23 A1                 
  3.303   3.388
 21 B1   11 A2                                                                 
 
 Beta MOs, Restricted
 -- Occupied --                  
-11.189 -11.187  -0.993  -0.733  -0.612  -0.519  -0.467  -0.328
  1 A1    1 B1    2 A1    2 B1    1 B2    3 A1    1 A2    4 A1                 
  0.022
  5 A1                                                                         
 -- Virtual --                   
  0.110   0.122   0.129   0.137   0.142   0.148   0.180   0.222
  3 B1    2 B2    6 A1    7 A1    4 B1    2 A2    8 A1    5 B1                 
  0.252   0.311   0.343   0.353   0.366   0.373   0.376   0.389
  6 B1    9 A1    3 B2    7 B1   10 A1    3 A2   11 A1    4 B2                 
  0.418   0.457   0.602   0.658   0.876   0.903   0.970   0.982
  8 B1    9 B1    4 A2   10 B1   12 A1    5 B2   13 A1   11 B1                 
  1.046   1.058   1.082   1.094   1.121   1.163   1.164   1.167
  6 B2   14 A1    5 A2   15 A1   16 A1    7 B2   12 B1   13 B1                 
  1.320   1.333   1.336   1.466   1.667   1.695   1.773   1.919
 14 B1    6 A2   17 A1    7 A2   18 A1    8 A2    8 B2   15 B1                 
  1.968   1.968   1.968   1.992   2.003   2.066   2.107   2.138
 16 B1    9 B2   19 A1   20 A1   17 B1   10 B2   21 A1   11 B2                 
  2.228   2.375   2.461   2.515   2.626   2.628   2.870   2.878
 18 B1   19 B1    9 A2   22 A1   20 B1   10 A2   12 B2   23 A1                 
  3.303   3.388
 21 B1   11 A2                                                                 

--------------------------------------------------------------------------------
                                   HF Summary                                   
--------------------------------------------------------------------------------
  Energy:                                                  -78.4860033860 a.u.
  Dip. moment [a.u.]:                  [   0.000000,    0.000001,  -19.319900]
  Total dipole [Debye]:                                              49.106298
  <r^2> [a.u.]:                        [  50.669538,   25.069867,  788.437400]
  Total <r^2> [a.u.]:                                               864.176805
--------------------------------------------------------------------------------

--------------------------------------------------------------------------------
                                 MP(2) Summary                                  
--------------------------------------------------------------------------------
  MP energy contribution:                                   -0.2989378888 a.u.
  Total energy:                                            -78.7849412747 a.u.
  Dip. moment [a.u.]:                  [   0.000000,    0.000001,  -19.321311]
  Total dipole [Debye]:                                              49.109883
  <r^2> [a.u.]:                        [  50.735472,   25.058539,  788.242600]
  Total <r^2> [a.u.]:                                               864.036612

  Density matrix analysis:
  ------------------------
  NOs
    Occupation of frontier NOs:
       0.0448   1.9370
    Number of electrons: 18.000000
    Number of unpaired electrons: n_u =  0.43234, n_u,nl =  0.04682
    NO participation ratio (PR_NO): 15.322529
  
  
  Mulliken Population Analysis
  Atom      Charge (e)              h+              e-           Del q
  --------------------------------------------------------------------
   1 C       -0.192005        0.087642       -0.102464       -0.014822
   2 C       -0.192005        0.087642       -0.102464       -0.014822
   3 H        0.095996        0.017941       -0.010530        0.007411
   4 H        0.096016        0.017940       -0.010529        0.007411
   5 H        0.096009        0.017940       -0.010529        0.007411
   6 H        0.095989        0.017941       -0.010530        0.007411
   7 H       -1.000000        0.021953       -0.021953        0.000000
  --------------------------------------------------------------------
  Sum:       -1.000000        0.268999       -0.268999       -0.000000
  
  Multipole moment analysis of the density matrix
    Molecular charge:                      -1.000000
    Number of electrons:                   18.000000
      Center of electronic charge [Ang]: [ -0.000000,  -0.000000,   0.568022]
    Total nuclear charge:                  17.000000
      Center of nuclear charge [Ang]:    [  0.000000,  -0.000000,  -0.000000]
    Dipole moment [D]:                     49.109868
      Cartesian components [D]:          [  0.000000,   0.000002, -49.109868]
    RMS size of the density [Ang]:         3.622056
      Cartesian components [Ang]:        [  0.888425,   0.624371,   3.455452]
  
  Exciton analysis of the difference density matrix
    <r_h> [Ang]:                  [ -0.000000,  -0.000000,   0.242632]
    <r_e> [Ang]:                  [  0.000000,  -0.000000,   0.245406]
    |<r_e - r_h>| [Ang]:            0.002775
    Hole size [Ang]:                3.303078
      Cartesian components [Ang]: [  0.953881,   0.733744,   3.076046]
    Electron size [Ang]:            3.280706
      Cartesian components [Ang]: [  0.989205,   0.725663,   3.042682]
--------------------------------------------------------------------------------
  Starting Davidson for singlet states of irrep B2 ... 
--------------------------------------------------------------------------------
   It NVec Conv  Avg. Norm  Max. Norm  Conv. states           Remark
--------------------------------------------------------------------------------
       100    0  1.089e-01  4.529e-01  0.0696 n n n n n n n n Guess.
    1  110    0  6.241e-03  2.937e-02  0.0457 n n n n n n n n 
    2  120    0  1.195e-03  8.182e-03  0.0456 n n n n n n n n 
    3  130    4  1.489e-04  1.203e-03  0.0456 y y y y n n n n 
    4  140    6  1.496e-05  1.208e-04  0.0456 y y y y y n n y 
    5  150    9  5.369e-02  5.369e-01  0.0456 y y y y y y y y 
    6  160    9  2.392e-02  2.392e-01  0.0456 y y n y y y y y 
    7  170    9  1.517e-02  1.517e-01  0.0456 y y n y y y y y 
    8  179    9  1.325e-02  1.325e-01  0.0456 y y n y y y y y 
    9  179    9  1.325e-02  1.325e-01  0.0456 y y n y y y y y 
   10  179    9  1.325e-02  1.325e-01  0.0456 y y n y y y y y 
   11  189    9  1.331e-02  1.331e-01  0.0456 y y n y y y y y 
   12  189    9  1.331e-02  1.331e-01  0.0456 y y n y y y y y 
   13  189    9  1.331e-02  1.331e-01  0.0456 y y n y y y y y 
   14  199    9  1.325e-02  1.325e-01  0.0456 y y n y y y y y 
   15  200    9  1.333e-02  1.333e-01  0.0456 y y n y y y y y 
   16   20    9  1.338e-02  1.338e-01  0.0456 y y n y y y y y Subspace collapsed.
   17   30    8  1.000e-01  9.913e-01  0.0456 y y n y y y y y 
   18   40    8  8.792e-02  8.690e-01  0.0456 y y n y y y y n 
   19   50    8  8.089e-02  7.978e-01  0.0456 y y n y y y y n 
   20   60    8  7.902e-02  7.788e-01  0.0456 y y n y y y n y 
   21   70    8  7.272e-02  7.149e-01  0.0456 y y n y y y n y 
   22   80    8  7.127e-02  7.002e-01  0.0456 y y n y y y n y 
   23   90    8  6.627e-02  6.492e-01  0.0456 y y n y y y n y 
   24  100    8  5.988e-02  5.838e-01  0.0456 y y n y y y n y 
   25  110    8  5.587e-02  5.423e-01  0.0456 y y n y y n y y 
   26  120    5  7.443e-02  6.117e-01  0.0456 y y n y y n n y 
   27  130    0  7.343e-02  6.032e-01  0.0456 n n n n n n n n 
   28  140    0  1.316e-01  9.343e-01  0.0456 n n n n n n n n 
   29  150    0  1.219e-01  9.334e-01  0.0456 n n n n n n n n 
   30  160    0  1.163e-01  9.300e-01  0.0456 n n n n n n n n 
   31  170    0  1.305e-01  9.280e-01  0.0456 n n n n n n n n 
   32  180    0  1.330e-01  9.356e-01  0.0456 n n n n n n n n 
   33  190    0  1.333e-01  9.381e-01  0.0456 n n n n n n n n 
   34  200    0  1.326e-01  9.365e-01  0.0456 n n n n n n n n 
   35   20    0  6.486e-02  5.146e-01  0.0456 n n n n n n n n Subspace collapsed.
   36   30    1  5.955e-02  4.550e-01  0.0456 y n n n n n n n 
   37   40    2  5.827e-02  4.426e-01  0.0456 y n y n n n n n 
   38   50    2  3.966e-02  2.395e-01  0.0456 y n y n n n n n 
   39   60    2  3.729e-02  2.341e-01  0.0456 y n y n n n n n 
   40   70    4  3.629e-02  2.333e-01  0.0456 y n y n n y y n 
   41   80    4  3.503e-02  2.252e-01  0.0456 y n y n n y y n 
   42   90    4  3.465e-02  2.243e-01  0.0456 y n y n n y y n 
   43  100    4  3.456e-02  2.288e-01  0.0456 y n y n n y y n 
   44  110    4  7.973e-02  7.150e-01  0.0456 y n y n n y y n 
   45  120    5  7.695e-02  6.783e-01  0.0456 y n y n n y y y 
   46  130    5  7.430e-02  6.244e-01  0.0456 y n y n n y y n 
   47  140    5  7.232e-02  5.869e-01  0.0456 y n y n n y y n 
   48  150    5  7.122e-02  5.580e-01  0.0456 y n y n n y y n 
   49  160    5  6.935e-02  5.113e-01  0.0456 y n y n n y y n 
   50  170    2  6.864e-02  4.828e-01  0.0456 y n n n n n n n 
   51  180    2  6.579e-02  4.447e-01  0.0456 y n n n n n n n 
   52  190    2  6.509e-02  4.597e-01  0.0456 y n n n n n n n 
   53  200    2  6.420e-02  4.734e-01  0.0456 y n n n n n n n 
   54   20    2  6.341e-02  4.734e-01  0.0456 y n n n n n n n Subspace collapsed.
   55   30    2  6.272e-02  4.727e-01  0.0456 y n n n n n n n 
   56   40    2  6.143e-02  4.783e-01  0.0456 y n n n n n n n 
   57   50    2  6.084e-02  4.795e-01  0.0456 y n n n n n n n 
   58   60    2  6.032e-02  4.818e-01  0.0456 y n n n n n n n 
   59   70    2  5.958e-02  4.796e-01  0.0456 y n n n n n n n 
   60   80    2  5.891e-02  4.826e-01  0.0456 y n n n n n n n 
   61   90    2  5.861e-02  4.826e-01  0.0456 y n n n n n n n 
   62  100    4  5.815e-02  4.858e-01  0.0456 y n n n n y y n 
   63  110    4  5.789e-02  4.838e-01  0.0456 y n n n n y y n 
   64  120    5  5.754e-02  4.842e-01  0.0456 y n y n n y y n 
   65  130    5  5.703e-02  4.814e-01  0.0456 y n y n n y y n 
   66  140    5  5.640e-02  4.795e-01  0.0456 y n y n n y y n 
   67  150    5  5.612e-02  4.787e-01  0.0456 y n y n n y y n 
   68  160    5  5.529e-02  4.736e-01  0.0456 y n y n n y y n 
   69  170    4  5.505e-02  4.726e-01  0.0456 y n y n n y n n 
   70  180    3  5.449e-02  4.696e-01  0.0456 y n n n n y n n 
   71  190    0  5.425e-02  4.694e-01  0.0456 n n n n n n n n 
   72  200    0  6.703e-02  4.679e-01  0.0456 n n n n n n n n 
   73   20    1  5.346e-02  4.650e-01  0.0456 y n n n n n n n Subspace collapsed.
   74   30    2  5.205e-02  4.519e-01  0.0456 y n n n n n n n 
   75   40    2  4.917e-02  4.208e-01  0.0456 y n n n n n n n 
   76   50    2  4.822e-02  4.087e-01  0.0456 y n n n n n n n 
   77   60    2  4.440e-02  3.306e-01  0.0456 y n n n n n n n 
   78   70    2  4.408e-02  2.963e-01  0.0456 y n n n n n n n 
   79   80    2  4.024e-02  2.312e-01  0.0456 y n n n n n n n 
   80   90    2  3.959e-02  2.857e-01  0.0456 y n n n n n n n 
   81  100    3  3.716e-02  2.791e-01  0.0456 y n n n n n y n 
   82  110    5  3.673e-02  2.771e-01  0.0456 y n n y n n y y 
   83  120    5  3.547e-02  2.685e-01  0.0456 y n n y n n y y 
   84  130    5  3.486e-02  2.670e-01  0.0456 y n n y n n y y 
   85  140    5  3.318e-02  2.530e-01  0.0456 y n n y n n y y 
   86  150    5  3.267e-02  2.514e-01  0.0456 y n n y n n y y 
   87  160    5  3.106e-02  2.385e-01  0.0456 y n n y n n y y 
   88  170    2  3.079e-02  2.376e-01  0.0456 y n n n n n y n 
   89  180    0  3.059e-02  2.292e-01  0.0456 n n n n n n n n 
   90  190    0  5.528e-02  4.666e-01  0.0342 n n n n n n n n 
   91  200    0  2.753e-02  1.656e-01  0.0008 n n n n n n n n 
   92   20    2  2.575e-02  1.991e-01  0.0456 y n n n n n y n Subspace collapsed.
   93   30    4  2.543e-02  1.962e-01  0.0456 y n n y n n y y 
   94   40    5  2.272e-02  1.806e-01  0.0456 y n n y n n y y 
   95   50    5  2.106e-02  1.673e-01  0.0456 y n n y n n y y 
   96   60    5  2.059e-02  1.651e-01  0.0456 y n n y n n y y 
   97   70    5  2.004e-02  1.626e-01  0.0456 y n n y n n y y 
   98   80    6  1.966e-02  1.604e-01  0.0456 y n n y y n y y 
   99   90    6  1.921e-02  1.566e-01  0.0456 y n n y y n y y 
  100  100    6  1.888e-02  1.557e-01  0.0456 y n n y y n y y 
  101  110    6  1.863e-02  1.538e-01  0.0456 y n n y y n y y 
  102  120    6  1.837e-02  1.521e-01  0.0456 y n n y y n y y 
  103  130    6  1.816e-02  1.507e-01  0.0456 y n n y y n y y 
  104  140    6  1.761e-02  1.465e-01  0.0456 y n n y y n y y 
  105  150    4  1.744e-02  1.457e-01  0.0456 y n n n n n y y 
  106  160    4  1.732e-02  1.451e-01  0.0456 y n n n n n y y 
  107  170    4  1.692e-02  1.426e-01  0.0456 y n n n n n y y 
  108  180    4  1.671e-02  1.413e-01  0.0456 y n n n n n y y 
  109  190    0  1.650e-02  1.405e-01  0.0456 n n n n n n n n 
  110  200    0  5.577e-02  4.602e-01  0.0456 n n n n n n n n 
  111   20    0  1.632e-02  1.397e-01  0.0456 n n n n n n n n Subspace collapsed.
  112   30    1  1.614e-02  1.380e-01  0.0456 y n n n n n n n 
  113   40    2  6.882e-02  6.694e-01  0.0456 y n n n y n n n 
  114   50    2  6.349e-02  6.150e-01  0.0456 y n n n y n n n 
  115   60    2  5.955e-02  5.750e-01  0.0456 y n n n y n n n 
  116   70    2  5.659e-02  5.450e-01  0.0456 y n n n y n n n 
  117   80    3  5.511e-02  5.300e-01  0.0456 y n n n y y n n 
  118   90    3  5.198e-02  4.976e-01  0.0456 y n n n y y n n 
  119  100    3  5.089e-02  4.865e-01  0.0456 y n n n y y n n 
--------------------------------------------------------------------------------
  Davidson Summary: 
 ------------------------------------------------------------
  State  0: excitation energy =   0.0456 a.u.   (converged)
  State  1: excitation energy =   0.2117 a.u.   (not converged)
  State  2: excitation energy =   0.2150 a.u.   (not converged)
  State  3: excitation energy =   0.2404 a.u.   (not converged)
  State  4: excitation energy =   0.2456 a.u.   (converged)
  State  5: excitation energy =   0.2570 a.u.   (converged)
  State  6: excitation energy =   0.2721 a.u.   (not converged)
  State  7: excitation energy =   0.2913 a.u.   (not converged)
  State  8: excitation energy =   0.2962 a.u.   (not converged)
  State  9: excitation energy =   0.3265 a.u.   (not converged)
 ------------------------------------------------------------


--------------------------------------------------------------------------------
                   State-averaged natural transition orbitals
--------------------------------------------------------------------------------
--------------------------------------------------------------------------------

--------------------------------------------------------------------------------
                             Excited State Summary
--------------------------------------------------------------------------------
--------------------------------------------------------------------------------

  Excited state 1 (singlet, B2)                                    [converged]
  ----------------------------------------------------------------------------
  Term symbol:  1 (1) B2                                    R^2 =  1.72822e-06

  Total energy:                                            -78.7393044935 a.u.
  Excitation energy:                                               1.241840 eV

  Osc. strength:                                                      0.000000
  Trans. dip. moment [a.u.]:           [  -0.000000,   -0.000012,    0.000000]
  <i|r^2|0> [a.u.]:                    [   0.000000,    0.000000,   -0.000000]

  Dip. moment [a.u.]:                  [  -0.000000,    0.000001,    1.221370]
  Total dipole [Debye]:                                               3.104413
  <r^2> [a.u.]:                        [  60.504055,   53.849833,  423.005841]
  Total <r^2> [a.u.]:                                               537.359729

  V1^2 = 0.9787, V2^2 = 0.0213

  Important amplitudes:
      occ i      occ j       vir a       vir b          v   
    ---------------------------------------------------------
     5 (A1) A               2 (B2) A                  0.6986
     5 (A1) A   5 (A1) B   14 (A1) A    2 (B2) B     -0.0436
    ---------------------------------------------------------

  Density matrix analysis:
  ------------------------
  NOs
    Occupation of frontier NOs:
       0.9951   1.0019
    Number of electrons: 18.000000
    Number of unpaired electrons: n_u =  2.41450, n_u,nl =  2.04864
    NO participation ratio (PR_NO):  2.916075
  
  
  Mulliken Population Analysis
  Atom      Charge (e)              h+              e-           Del q
  --------------------------------------------------------------------
   1 C       -0.650140        0.017338       -0.475472       -0.458134
   2 C       -0.650140        0.017338       -0.475472       -0.458134
   3 H        0.075064        0.004226       -0.025159       -0.020933
   4 H        0.075083        0.004226       -0.025159       -0.020933
   5 H        0.075076        0.004226       -0.025159       -0.020933
   6 H        0.075057        0.004226       -0.025159       -0.020933
   7 H        0.000001        1.020854       -0.020853        1.000001
  --------------------------------------------------------------------
  Sum:       -1.000000        1.072432       -1.072432       -0.000000
  
  Multipole moment analysis of the density matrix
    Molecular charge:                      -1.000000
    Number of electrons:                   18.000000
      Center of electronic charge [Ang]: [  0.000000,  -0.000000,  -0.035907]
    Total nuclear charge:                  17.000000
      Center of nuclear charge [Ang]:    [  0.000000,  -0.000000,  -0.000000]
    Dipole moment [D]:                     3.104412
      Cartesian components [D]:          [ -0.000000,   0.000003,   3.104412]
    RMS size of the density [Ang]:         2.891106
      Cartesian components [Ang]:        [  0.970191,   0.915286,   2.565048]
  
  Exciton analysis of the difference density matrix
    <r_h> [Ang]:                  [ -0.000000,  -0.000000,   9.726628]
    <r_e> [Ang]:                  [  0.000000,  -0.000000,  -0.409880]
    |<r_e - r_h>| [Ang]:           10.136508
    Hole size [Ang]:                2.627849
      Cartesian components [Ang]: [  0.726736,   0.714744,   2.422104]
    Electron size [Ang]:            4.005563
      Cartesian components [Ang]: [  1.754671,   2.833498,   2.221926]

  Transition density matrix analysis:
  -----------------------------------
  
  CT numbers (Mulliken)
    omega =     0.9723
    <Phe> =    -0.0000
  
  Exciton analysis of the transition density matrix
    Trans. dipole moment [D]:             0.000016
      Cartesian components [D]:         [ -0.000000,  -0.000016,   0.000000]
    <r_h> [Ang]:                        [  0.000000,   0.000000,  10.247073]
    <r_e> [Ang]:                        [  0.000000,  -0.000000,  -0.640283]
    |<r_e - r_h>| [Ang]:                 10.887356
    Hole size [Ang]:                      1.110869
      Cartesian components [Ang]:       [  0.640887,   0.640885,   0.642309]
    Electron size [Ang]:                  3.813524
      Cartesian components [Ang]:       [  1.780580,   2.928842,   1.671642]
    RMS electron-hole separation [Ang]:  11.589440
      Cartesian components [Ang]:       [  1.892401,   2.998139,  11.033816]
    Covariance(r_h, r_e) [Ang^2]:        -0.001793
    Correlation coefficient:             -0.000423
    Center-of-mass size [Ang]:            1.985788
      Cartesian components [Ang]:       [  0.946205,   1.499072,   0.894892]

  Decomposition into state-averaged NTOs
    H- 0 -> L+ 0:  0.6972 ( 97.2%)
                   omega =  97.2%
  ----------------------------------------------------------------------------


  Excited state 2 (singlet, B2)                                [not converged]
  ----------------------------------------------------------------------------
  Term symbol:  2 (1) B2                                    R^2 =  1.28852e-01

  Total energy:                                            -78.5731930341 a.u.
  Excitation energy:                                               5.761963 eV



  V1^2 = 0.0000, V2^2 = 1.0000

  Important amplitudes:
      occ i      occ j       vir a       vir b          v   
    ---------------------------------------------------------
     5 (A1) A   5 (A1) B    6 (A1) A    2 (B2) B      0.3493
     5 (A1) A   5 (A1) B    2 (A2) A    3 (B1) B     -0.0461
    ---------------------------------------------------------
  ----------------------------------------------------------------------------


  Excited state 3 (singlet, B2)                                [not converged]
  ----------------------------------------------------------------------------
  Term symbol:  3 (1) B2                                    R^2 =  4.41193e-02

  Total energy:                                            -78.5699088084 a.u.
  Excitation energy:                                               5.851331 eV



  V1^2 = 0.0000, V2^2 = 1.0000

  Important amplitudes:
      occ i      occ j       vir a       vir b          v   
    ---------------------------------------------------------
     5 (A1) A   5 (A1) B    7 (A1) A    2 (B2) B      0.3532
     5 (A1) A   5 (A1) B    6 (A1) A    2 (B2) B      0.0134
    ---------------------------------------------------------
  ----------------------------------------------------------------------------


  Excited state 4 (singlet, B2)                                [not converged]
  ----------------------------------------------------------------------------
  Term symbol:  4 (1) B2                                    R^2 =  1.05044e-05

  Total energy:                                            -78.5445337300 a.u.
  Excitation energy:                                               6.541822 eV



  V1^2 = 0.9549, V2^2 = 0.0451

  Important amplitudes:
      occ i      occ j       vir a       vir b          v   
    ---------------------------------------------------------
     5 (A1) A               3 (B2) A                 -0.6676
     5 (A1) A               4 (B2) A                  0.1687
    ---------------------------------------------------------
  ----------------------------------------------------------------------------


  Excited state 5 (singlet, B2)                                    [converged]
  ----------------------------------------------------------------------------
  Term symbol:  5 (1) B2                                    R^2 =  7.81572e-09

  Total energy:                                            -78.5393523620 a.u.
  Excitation energy:                                               6.682814 eV

  Osc. strength:                                                      0.000000
  Trans. dip. moment [a.u.]:           [  -0.000000,   -0.000000,   -0.000000]
  <i|r^2|0> [a.u.]:                    [   0.000000,    0.000000,   -0.000000]

  Dip. moment [a.u.]:                  [   0.000000,    0.000001,   21.027780]
  Total dipole [Debye]:                                              53.447295
  <r^2> [a.u.]:                        [ 100.735619,   58.673189,   66.420758]
  Total <r^2> [a.u.]:                                               225.829565

  V1^2 = 0.0000, V2^2 = 1.0000

  Important amplitudes:
      occ i      occ j       vir a       vir b          v   
    ---------------------------------------------------------
     5 (A1) A   5 (A1) B    2 (A2) A    4 (B1) B     -0.3536
     5 (A1) A               3 (B2) A                 -0.0002
    ---------------------------------------------------------

  Density matrix analysis:
  ------------------------
  NOs
    Occupation of frontier NOs:
       1.0008   1.0074
    Number of electrons: 18.000000
    Number of unpaired electrons: n_u =  2.39319, n_u,nl =  2.04688
    NO participation ratio (PR_NO):  2.869526
  
  
  Mulliken Population Analysis
  Atom      Charge (e)              h+              e-           Del q
  --------------------------------------------------------------------
   1 C       -1.061873        0.000000       -0.869868       -0.869868
   2 C       -1.061873        0.000000       -0.869868       -0.869868
   3 H        0.030930        0.000000       -0.065066       -0.065066
   4 H        0.030950        0.000000       -0.065066       -0.065066
   5 H        0.030943        0.000000       -0.065066       -0.065066
   6 H        0.030924        0.000000       -0.065066       -0.065066
   7 H        1.000000        1.999999       -0.000000        1.999999
  --------------------------------------------------------------------
  Sum:       -1.000000        2.000000       -2.000000       -0.000000
  
  Multipole moment analysis of the density matrix
    Molecular charge:                      -1.000000
    Number of electrons:                   18.000000
      Center of electronic charge [Ang]: [ -0.000000,  -0.000000,  -0.618190]
    Total nuclear charge:                  17.000000
      Center of nuclear charge [Ang]:    [  0.000000,  -0.000000,  -0.000000]
    Dipole moment [D]:                     53.447279
      Cartesian components [D]:          [  0.000000,   0.000002,  53.447279]
    RMS size of the density [Ang]:         1.769492
      Cartesian components [Ang]:        [  1.251862,   0.955399,   0.806943]
  
  Exciton analysis of the difference density matrix
    <r_h> [Ang]:                  [  0.000000,  -0.000000,  10.247252]
    <r_e> [Ang]:                  [ -0.000000,   0.000000,  -0.428658]
    |<r_e - r_h>| [Ang]:           10.675910
    Hole size [Ang]:                1.111221
      Cartesian components [Ang]: [  0.641557,   0.641557,   0.641577]
    Electron size [Ang]:            4.086460
      Cartesian components [Ang]: [  2.722559,   2.262327,   2.041740]

  Transition density matrix analysis:
  -----------------------------------
  
  CT numbers (Mulliken)
    omega =     0.0000
    <Phe> =     0.0000
  
  Exciton analysis of the transition density matrix
    ... vanishing.

  Decomposition into state-averaged NTOs
                   omega =   0.0%
  ----------------------------------------------------------------------------


  Excited state 6 (singlet, B2)                                    [converged]
  ----------------------------------------------------------------------------
  Term symbol:  6 (1) B2                                    R^2 =  3.23284e-07

  Total energy:                                            -78.5279269075 a.u.
  Excitation energy:                                               6.993717 eV

  Osc. strength:                                                      0.000000
  Trans. dip. moment [a.u.]:           [  -0.000000,   -0.000000,    0.000000]
  <i|r^2|0> [a.u.]:                    [  -0.000000,    0.000000,   -0.000000]

  Dip. moment [a.u.]:                  [  -0.000000,    0.000001,   21.196644]
  Total dipole [Debye]:                                              53.876506
  <r^2> [a.u.]:                        [  71.049473,   64.646981,   60.981351]
  Total <r^2> [a.u.]:                                               196.677805

  V1^2 = 0.0000, V2^2 = 1.0000

  Important amplitudes:
      occ i      occ j       vir a       vir b          v   
    ---------------------------------------------------------
     5 (A1) A   5 (A1) B    8 (A1) A    2 (B2) B     -0.3536
     5 (A1) A               2 (B2) A                  0.0002
    ---------------------------------------------------------

  Density matrix analysis:
  ------------------------
  NOs
    Occupation of frontier NOs:
       1.0013   1.0024
    Number of electrons: 18.000000
    Number of unpaired electrons: n_u =  2.40211, n_u,nl =  2.04898
    NO participation ratio (PR_NO):  2.877395
  
  
  Mulliken Population Analysis
  Atom      Charge (e)              h+              e-           Del q
  --------------------------------------------------------------------
   1 C       -1.265228        0.000000       -1.073223       -1.073223
   2 C       -1.265228        0.000000       -1.073223       -1.073223
   3 H        0.132608        0.000000        0.036612        0.036612
   4 H        0.132627        0.000000        0.036611        0.036611
   5 H        0.132620        0.000000        0.036611        0.036611
   6 H        0.132602        0.000000        0.036612        0.036612
   7 H        1.000000        2.000000       -0.000000        2.000000
  --------------------------------------------------------------------
  Sum:       -1.000000        2.000000       -2.000000       -0.000000
  
  Multipole moment analysis of the density matrix
    Molecular charge:                      -1.000000
    Number of electrons:                   18.000000
      Center of electronic charge [Ang]: [  0.000000,  -0.000000,  -0.623155]
    Total nuclear charge:                  17.000000
      Center of nuclear charge [Ang]:    [  0.000000,  -0.000000,  -0.000000]
    Dipole moment [D]:                     53.876490
      Cartesian components [D]:          [ -0.000000,   0.000002,  53.876490]
    RMS size of the density [Ang]:         1.634449
      Cartesian components [Ang]:        [  1.051345,   1.002857,   0.748581]
  
  Exciton analysis of the difference density matrix
    <r_h> [Ang]:                  [  0.000000,  -0.000000,  10.247252]
    <r_e> [Ang]:                  [  0.000000,  -0.000000,  -0.473337]
    |<r_e - r_h>| [Ang]:           10.720589
    Hole size [Ang]:                1.111221
      Cartesian components [Ang]: [  0.641557,   0.641557,   0.641577]
    Electron size [Ang]:            3.546434
      Cartesian components [Ang]: [  1.804396,   2.440193,   1.834886]

  Transition density matrix analysis:
  -----------------------------------
  
  CT numbers (Mulliken)
    omega =     0.0000
    <Phe> =     0.0000
  
  Exciton analysis of the transition density matrix
    ... vanishing.

  Decomposition into state-averaged NTOs
                   omega =   0.0%
  ----------------------------------------------------------------------------


  Excited state 7 (singlet, B2)                                [not converged]
  ----------------------------------------------------------------------------
  Term symbol:  7 (1) B2                                    R^2 =  4.86467e-01

  Total energy:                                            -78.5128689995 a.u.
  Excitation energy:                                               7.403463 eV



  V1^2 = 0.0024, V2^2 = 0.9976

  Important amplitudes:
      occ i      occ j       vir a       vir b          v   
    ---------------------------------------------------------
     5 (A1) A   5 (A1) B    2 (A2) A    3 (B1) B     -0.3435
     5 (A1) A   5 (A1) B    6 (A1) A    2 (B2) B     -0.0444
    ---------------------------------------------------------
  ----------------------------------------------------------------------------


  Excited state 8 (singlet, B2)                                [not converged]
  ----------------------------------------------------------------------------
  Term symbol:  8 (1) B2                                    R^2 =  1.13742e-05

  Total energy:                                            -78.4935937265 a.u.
  Excitation energy:                                               7.927970 eV



  V1^2 = 0.9539, V2^2 = 0.0461

  Important amplitudes:
      occ i      occ j       vir a       vir b          v   
    ---------------------------------------------------------
     4 (A1) A               2 (B2) A                 -0.6629
     4 (A1) A               3 (B2) A                 -0.1839
    ---------------------------------------------------------
  ----------------------------------------------------------------------------


  Excited state 9 (singlet, B2)                                [not converged]
  ----------------------------------------------------------------------------
  Term symbol:  9 (1) B2                                    R^2 =  1.36742e-05

  Total energy:                                            -78.4887358571 a.u.
  Excitation energy:                                               8.060159 eV



  V1^2 = 0.9690, V2^2 = 0.0310

  Important amplitudes:
      occ i      occ j       vir a       vir b          v   
    ---------------------------------------------------------
     5 (A1) A               4 (B2) A                  0.6725
     5 (A1) A               3 (B2) A                  0.1778
    ---------------------------------------------------------
  ----------------------------------------------------------------------------


  Excited state 10 (singlet, B2)                                [not converged]
  ----------------------------------------------------------------------------
  Term symbol:  10 (1) B2                                   R^2 =  6.12988e-02

  Total energy:                                            -78.4584077257 a.u.
  Excitation energy:                                               8.885430 eV



  V1^2 = 0.0000, V2^2 = 1.0000

  Important amplitudes:
      occ i      occ j       vir a       vir b          v   
    ---------------------------------------------------------
     5 (A1) A   5 (A1) B    2 (A2) A    5 (B1) B      0.3533
     5 (A1) A   5 (A1) B    7 (A1) A    3 (B2) B     -0.0073
    ---------------------------------------------------------
  ----------------------------------------------------------------------------


--------------------------------------------------------------------------------
  Time of ADC calculation:  CPU 4214.12 s  wall 836.14 s
================================================================================
 
 --------------------------------------------------------------
             Orbital Energies (a.u.) and Symmetries
 --------------------------------------------------------------
 
 Alpha MOs, Restricted
 -- Occupied --                  
-11.189 -11.187  -0.993  -0.733  -0.612  -0.519  -0.467  -0.328
  1 A1    1 B1    2 A1    2 B1    1 B2    3 A1    1 A2    4 A1                 
  0.022
  5 A1                                                                         
 -- Virtual --                   
  0.110   0.122   0.129   0.137   0.142   0.148   0.180   0.222
  3 B1    2 B2    6 A1    7 A1    4 B1    2 A2    8 A1    5 B1                 
  0.252   0.311   0.343   0.353   0.366   0.373   0.376   0.389
  6 B1    9 A1    3 B2    7 B1   10 A1    3 A2   11 A1    4 B2                 
  0.418   0.457   0.602   0.658   0.876   0.903   0.970   0.982
  8 B1    9 B1    4 A2   10 B1   12 A1    5 B2   13 A1   11 B1                 
  1.046   1.058   1.082   1.094   1.121   1.163   1.164   1.167
  6 B2   14 A1    5 A2   15 A1   16 A1    7 B2   12 B1   13 B1                 
  1.320   1.333   1.336   1.466   1.667   1.695   1.773   1.919
 14 B1    6 A2   17 A1    7 A2   18 A1    8 A2    8 B2   15 B1                 
  1.968   1.968   1.968   1.992   2.003   2.066   2.107   2.138
 16 B1    9 B2   19 A1   20 A1   17 B1   10 B2   21 A1   11 B2                 
  2.228   2.375   2.461   2.515   2.626   2.628   2.870   2.878
 18 B1   19 B1    9 A2   22 A1   20 B1   10 A2   12 B2   23 A1                 
  3.303   3.388
 21 B1   11 A2                                                                 
 
 Beta MOs, Restricted
 -- Occupied --                  
-11.189 -11.187  -0.993  -0.733  -0.612  -0.519  -0.467  -0.328
  1 A1    1 B1    2 A1    2 B1    1 B2    3 A1    1 A2    4 A1                 
  0.022
  5 A1                                                                         
 -- Virtual --                   
  0.110   0.122   0.129   0.137   0.142   0.148   0.180   0.222
  3 B1    2 B2    6 A1    7 A1    4 B1    2 A2    8 A1    5 B1                 
  0.252   0.311   0.343   0.353   0.366   0.373   0.376   0.389
  6 B1    9 A1    3 B2    7 B1   10 A1    3 A2   11 A1    4 B2                 
  0.418   0.457   0.602   0.658   0.876   0.903   0.970   0.982
  8 B1    9 B1    4 A2   10 B1   12 A1    5 B2   13 A1   11 B1                 
  1.046   1.058   1.082   1.094   1.121   1.163   1.164   1.167
  6 B2   14 A1    5 A2   15 A1   16 A1    7 B2   12 B1   13 B1                 
  1.320   1.333   1.336   1.466   1.667   1.695   1.773   1.919
 14 B1    6 A2   17 A1    7 A2   18 A1    8 A2    8 B2   15 B1                 
  1.968   1.968   1.968   1.992   2.003   2.066   2.107   2.138
 16 B1    9 B2   19 A1   20 A1   17 B1   10 B2   21 A1   11 B2                 
  2.228   2.375   2.461   2.515   2.626   2.628   2.870   2.878
 18 B1   19 B1    9 A2   22 A1   20 B1   10 A2   12 B2   23 A1                 
  3.303   3.388
 21 B1   11 A2                                                                 
 --------------------------------------------------------------
 
          Ground-State Mulliken Net Atomic Charges

     Atom                 Charge (a.u.)
  ----------------------------------------
      1 C                    -0.177183
      2 C                    -0.177183
      3 H                     0.088585
      4 H                     0.088605
      5 H                     0.088598
      6 H                     0.088578
      7 H                    -1.000000
  ----------------------------------------
  Sum of atomic charges =    -1.000000

 -----------------------------------------------------------------
                    Cartesian Multipole Moments
 -----------------------------------------------------------------
    Charge (ESU x 10^10)
                -4.8032
    Dipole Moment (Debye)
         X       0.0000      Y       0.0000      Z     -49.1063
       Tot      49.1063
    Quadrupole Moments (Debye-Ang)
        XX     -16.8896     XY       0.0000     YY     -15.9265
        XZ      -0.0000     YZ      -0.0000     ZZ    -524.5869
    Octopole Moments (Debye-Ang^2)
       XXX      -0.0000    XXY       0.0000    XYY      -0.0000
       YYY       0.0000    XXZ     -32.1109    XYZ      -0.0000
       YYZ     -32.7602    XZZ      -0.0000    YZZ       0.0000
       ZZZ   -5258.5120
    Hexadecapole Moments (Debye-Ang^3)
      XXXX     -74.1041   XXXY       0.0000   XXYY     -15.2246
      XYYY       0.0000   YYYY     -32.8446   XXXZ       0.0000
      XXYZ      -0.0000   XYYZ       0.0000   YYYZ      -0.0000
      XXZZ    -438.2131   XYZZ       0.0000   YYZZ    -431.1688
      XZZZ       0.0000   YZZZ      -0.0000   ZZZZ  -55521.0013
 -----------------------------------------------------------------
 Total job time:  918.91s(wall), 4258.11s(cpu) 
 Sat Mar 26 08:08:01 2022

        *************************************************************
        *                                                           *
        *  Thank you very much for using Q-Chem.  Have a nice day.  *
        *                                                           *
        *************************************************************


