/src/tsommerfeld/qchem/exe/qcprog.exe .input1.083333.16259.qcin.1 /src/jdavis/qchem.scratch/qchem16259/

                  Welcome to Q-Chem
     A Quantum Leap Into The Future Of Chemistry


 Q-Chem 5.4 (devel), Q-Chem, Inc., Pleasanton, CA (2021)

 E. Epifanovsky,  A. T. B. Gilbert,  Xintian Feng,  Joonho Lee,  Yuezhi Mao,  
 N. Mardirossian,  P. Pokhilko,  A. White,  M. Wormit,  M. P. Coons,  
 A. L. Dempwolff,  Zhengting Gan,  D. Hait,  P. R. Horn,  L. D. Jacobson,  
 I. Kaliman,  J. Kussmann,  A. W. Lange,  Ka Un Lao,  D. S. Levine,  Jie Liu,  
 S. C. McKenzie,  A. F. Morrison,  K. Nanda,  F. Plasser,  D. R. Rehn,  
 M. L. Vidal,  Zhi-Qiang You,  Ying Zhu,  B. Alam,  B. Albrecht,  
 A. Aldossary,  E. Alguire,  J. H. Andersen,  D. Barton,  K. Begam,  A. Behn,  
 Y. A. Bernard,  E. J. Berquist,  H. Burton,  A. Carreras,  K. Carter-Fenk,  
 R. Chakraborty,  A. D. Chien,  K. D. Closser,  V. Cofer-Shabica,  
 S. Dasgupta,  Jia Deng,  M. de Wergifosse,  M. Diedenhofen,  Hainam Do,  
 S. Ehlert,  Po-Tung Fang,  S. Fatehi,  Qingguo Feng,  T. Friedhoff,  
 J. Gayvert,  Qinghui Ge,  G. Gidofalvi,  M. Goldey,  J. Gomes,  
 C. Gonzalez-Espinoza,  S. Gulania,  A. Gunina,  M. W. D. Hanson-Heine,  
 P. H. P. Harbach,  A. W. Hauser,  M. F. Herbst,  M. Hernandez Vera,  
 M. Hodecker,  Z. C. Holden,  S. Houck,  Xunkun Huang,  Kerwin Hui,  
 B. C. Huynh,  M. Ivanov,  Hyunjun Ji,  Hanjie Jiang,  B. Kaduk,  S. Kaehler,  
 K. Khistyaev,  Jaehoon Kim,  P. Klunzinger,  Z. Koczor-Benda,  
 Joong Hoon Koh,  D. Kosenkov,  L. Koulias,  T. Kowalczyk,  C. M. Krauter,  
 K. Kue,  A. Kunitsa,  T. Kus,  A. Landau,  K. V. Lawler,  D. Lefrancois,  
 S. Lehtola,  Rain Li,  Yi-Pei Li,  Jiashu Liang,  M. Liebenthal,  
 Hung-Hsuan Lin,  You-Sheng Lin,  Fenglai Liu,  Kuan-Yu Liu,  
 M. Loipersberger,  A. Luenser,  A. Manjanath,  P. Manohar,  E. Mansoor,  
 S. F. Manzer,  Shan-Ping Mao,  A. V. Marenich,  T. Markovich,  S. Mason,  
 S. A. Maurer,  P. F. McLaughlin,  M. F. S. J. Menger,  J.-M. Mewes,  
 S. A. Mewes,  P. Morgante,  J. W. Mullinax,  K. J. Oosterbaan,  G. Paran,  
 Alexander C. Paul,  Suranjan K. Paul,  F. Pavosevic,  Zheng Pei,  S. Prager,  
 E. I. Proynov,  E. Ramos,  B. Rana,  A. E. Rask,  A. Rettig,  R. M. Richard,  
 F. Rob,  E. Rossomme,  T. Scheele,  M. Scheurer,  M. Schneider,  
 N. Sergueev,  S. M. Sharada,  W. Skomorowski,  D. W. Small,  C. J. Stein,  
 Yu-Chuan Su,  E. J. Sundstrom,  Zhen Tao,  J. Thirman,  T. Tsuchimochi,  
 N. M. Tubman,  S. P. Veccham,  O. Vydrov,  J. Wenzel,  J. Witte,  A. Yamada,  
 Kun Yao,  S. Yeganeh,  S. R. Yost,  A. Zech,  Igor Ying Zhang,  Xing Zhang,  
 Yu Zhang,  D. Zuev,  A. Aspuru-Guzik,  A. T. Bell,  N. A. Besley,  
 K. B. Bravaya,  B. R. Brooks,  D. Casanova,  Jeng-Da Chai,  S. Coriani,  
 C. J. Cramer,  A. E. DePrince, III,  R. A. DiStasio Jr.,  A. Dreuw,  
 B. D. Dunietz,  T. R. Furlani,  W. A. Goddard III,  S. Grimme,  
 S. Hammes-Schiffer,  T. Head-Gordon,  W. J. Hehre,  Chao-Ping Hsu,  
 T.-C. Jagau,  Yousung Jung,  A. Klamt,  Jing Kong,  D. S. Lambrecht,  
 WanZhen Liang,  N. J. Mayhall,  C. W. McCurdy,  J. B. Neaton,  
 C. Ochsenfeld,  J. A. Parkhill,  R. Peverati,  V. A. Rassolov,  Yihan Shao,  
 L. V. Slipchenko,  T. Stauch,  R. P. Steele,  J. E. Subotnik,  
 A. J. W. Thom,  A. Tkatchenko,  D. G. Truhlar,  T. Van Voorhis,  
 T. A. Wesolowski,  K. B. Whaley,  H. L. Woodcock III,  P. M. Zimmerman,  
 S. Faraji,  P. M. W. Gill,  M. Head-Gordon,  J. M. Herbert,  A. I. Krylov

 Additional authors for Version 5.4.1: 
 S. Kotaru,  Shaozhi Li,  Xiangyuan Li,  F. Matz,  A. Molle,  Haisheng Ren,  
 Yingli Su,  Hung-Yi Tsai,  C. Utku,  Fang Wang

 Contributors to earlier versions of Q-Chem not listed above: 
 R. D. Adamson,  B. Austin,  R. Baer,  J. Baker,  G. J. O. Beran,  
 K. Brandhorst,  S. T. Brown,  E. F. C. Byrd,  A. K. Chakraborty,  
 G. K. L. Chan,  Chun-Min Chang,  Yunqing Chen,  C.-L. Cheng,  
 Siu Hung Chien,  D. M. Chipman,  D. L. Crittenden,  H. Dachsel,  
 R. J. Doerksen,  A. D. Dutoi,  R. G. Edgar,  J. Fosso-Tande,  
 L. Fusti-Molnar,  D. Ghosh,  A. Ghysels,  A. Golubeva-Zadorozhnaya,  
 J. Gonthier,  M. S. Gordon,  S. R. Gwaltney,  G. Hawkins,  J. E. Herr,  
 A. Heyden,  S. Hirata,  E. G. Hohenstein,  G. Kedziora,  F. J. Keil,  
 C. Kelley,  Jihan Kim,  R. A. King,  R. Z. Khaliullin,  P. P. Korambath,  
 W. Kurlancheek,  A. Laurent,  A. M. Lee,  M. S. Lee,  S. V. Levchenko,  
 Ching Yeh Lin,  D. Liotard,  E. Livshits,  R. C. Lochan,  I. Lotan,  
 L. A. Martinez-Martinez,  P. E. Maslen,  N. Nair,  D. P. O'Neill,  
 D. Neuhauser,  E. Neuscamman,  C. M. Oana,  R. Olivares-Amaya,  R. Olson,  
 T. M. Perrine,  B. Peters,  P. A. Pieniazek,  A. Prociuk,  Y. M. Rhee,  
 J. Ritchie,  M. A. Rohrdanz,  E. Rosta,  N. J. Russ,  H. F. Schaefer III,  
 M. W. Schmidt,  N. E. Schultz,  S. Sharma,  N. Shenvi,  C. D. Sherrill,  
 A. C. Simmonett,  A. Sodt,  T. Stein,  D. Stuck,  K. S. Thanthiriwatte,  
 V. Vanovschi,  L. Vogt,  Tao Wang,  A. Warshel,  M. A. Watson,  
 C. F. Williams,  Q. Wu,  X. Xu,  Jun Yang,  W. Zhang,  Yan Zhao

 Please cite Q-Chem as follows:
 Y. Shao et al., Mol. Phys. 113, 184-215 (2015)
 DOI: 10.1080/00268976.2014.952696

 Q-Chem 5.4.1 for Intel X86 EM64T Linux

 Parts of Q-Chem use Armadillo 9.900.5 (Nocturnal Misbehaviour).
 http://arma.sourceforge.net/

 Q-Chem begins on Sat Mar 26 06:54:12 2022  

 Host: node01
0

     Scratch files written to /src/jdavis/qchem.scratch/qchem16259//
 Processing $rem in /src/tsommerfeld/qchem/config/preferences:
 Processing $rem in /home/jdavis/.qchemrc:

 Checking the input file for inconsistencies... 	...done.

--------------------------------------------------------------
User input:
--------------------------------------------------------------
$molecule
-1 1
C         0.0000003663    0.4438502432    0.6645000000
C         0.0000003663    0.4438502432   -0.6645000000
H        -0.9623486337    0.4438522630    1.1590800000
H        -0.9623486337    0.4438522630   -1.1590800000
H         0.9623483663    0.4438482235    1.1590800000
H         0.9623483663    0.4438482235   -1.1590800000
H        -0.0000038605   -10.4438482235    0.0000000000
$end

$rem
   METHOD adc(2)
   BASIS gen
   PURECART 11
   EE_STATES [0,0,0,10]
   scf_convergence 8
   ADC_DAVIDSON_MAXITER 120
   ADC_DAVIDSON_MAXSUBSPACE 200
   adc_nguess_singles 100
   THRESH 14
   S2THRESH 14
   adc_davidson_conv 5
   adc_davidson_thresh 14
   THREADS 10
   MEM_TOTAL 95000
   STATE_ANALYSIS TRUE
$end
$basis
C 1
S   9   1.00
      6.665000D+03           6.920000D-04
      1.000000D+03           5.329000D-03
      2.280000D+02           2.707700D-02
      6.471000D+01           1.017180D-01
      2.106000D+01           2.747400D-01
      7.495000D+00           4.485640D-01
      2.797000D+00           2.850740D-01
      5.215000D-01           1.520400D-02
      1.596000D-01          -3.191000D-03
S   9   1.00
      6.665000D+03          -1.460000D-04
      1.000000D+03          -1.154000D-03
      2.280000D+02          -5.725000D-03
      6.471000D+01          -2.331200D-02
      2.106000D+01          -6.395500D-02
      7.495000D+00          -1.499810D-01
      2.797000D+00          -1.272620D-01
      5.215000D-01           5.445290D-01
      1.596000D-01           5.804960D-01
S   1   1.00
      1.596000D-01           1.000000D+00
S   1   1.00
      0.0469000              1.0000000
P   4   1.00
      9.439000D+00           3.810900D-02
      2.002000D+00           2.094800D-01
      5.456000D-01           5.085570D-01
      1.517000D-01           4.688420D-01
P   1   1.00
      1.517000D-01           1.000000D+00
P   1   1.00
      0.0657367      1.0000000
P   1   1.00
      0.0328683      1.0000000
D   1   1.00
      5.500000D-01           1.0000000
****
C 2
S   9   1.00
      6.665000D+03           6.920000D-04
      1.000000D+03           5.329000D-03
      2.280000D+02           2.707700D-02
      6.471000D+01           1.017180D-01
      2.106000D+01           2.747400D-01
      7.495000D+00           4.485640D-01
      2.797000D+00           2.850740D-01
      5.215000D-01           1.520400D-02
      1.596000D-01          -3.191000D-03
S   9   1.00
      6.665000D+03          -1.460000D-04
      1.000000D+03          -1.154000D-03
      2.280000D+02          -5.725000D-03
      6.471000D+01          -2.331200D-02
      2.106000D+01          -6.395500D-02
      7.495000D+00          -1.499810D-01
      2.797000D+00          -1.272620D-01
      5.215000D-01           5.445290D-01
      1.596000D-01           5.804960D-01
S   1   1.00
      1.596000D-01           1.000000D+00
S   1   1.00
      0.0469000              1.0000000
P   4   1.00
      9.439000D+00           3.810900D-02
      2.002000D+00           2.094800D-01
      5.456000D-01           5.085570D-01
      1.517000D-01           4.688420D-01
P   1   1.00
      1.517000D-01           1.000000D+00
P   1   1.00
      0.0657367      1.0000000
P   1   1.00
      0.0328683      1.0000000
D   1   1.00
      5.500000D-01           1.0000000
****
H 3
cc-pVDZ
****
H 4
cc-pVDZ
****
H 5
cc-pVDZ
****
H 6
cc-pVDZ
****
H 7
aug-cc-pVDZ
****
$end
--------------------------------------------------------------
 Atom   2: (  0.6645000000,  0.0000001629, -0.6404528510)
         ->(  0.6645000000, -0.0000001629, -0.6404528510)
 Atom   1: ( -0.6645000000,  0.0000001629, -0.6404528510)
         ->( -0.6645000000,  0.0000000000, -0.6404528510)
 Atom   6: (  1.1590800000,  0.9623481629, -0.6404511369)
         ->(  1.1590800000,  0.9623488371, -0.6404545651)
 Atom   5: ( -1.1590800000,  0.9623481629, -0.6404511369)
         ->( -1.1590800000,  0.9623488371, -0.6404545651)
 Atom   7: ( -0.0000000000, -0.0000006060, 10.2472456157)
         ->(  0.0000000000,  0.0000000000, 10.2472456157)
 ----------------------------------------------------------------
             Standard Nuclear Orientation (Angstroms)
    I     Atom           X                Y                Z
 ----------------------------------------------------------------
    1      C      -0.6645000000     0.0000000000    -0.6404528510
    2      C       0.6645000000    -0.0000001629    -0.6404528510
    3      H      -1.1590800000    -0.9623488371    -0.6404545651
    4      H       1.1590800000    -0.9623488371    -0.6404545651
    5      H      -1.1590800000     0.9623488371    -0.6404545651
    6      H       1.1590800000     0.9623488371    -0.6404545651
    7      H       0.0000000000     0.0000000000    10.2472456157
 ----------------------------------------------------------------
 Molecular Point Group                 C2v   NOp =  4
 Largest Abelian Subgroup              C2v   NOp =  4
 Nuclear Repulsion Energy =          34.36395017 hartrees
 There are        9 alpha and        9 beta electrons
 Requested basis set is non-standard
 There are 33 shells and 67 basis functions
 Total memory of 95000 MB is distributed as follows: 
   MEM_STATIC is set to 192 MB
   QALLOC/CCMAN JOB total memory use is  94808 MB
 Warning: actual memory use might exceed 95000 MB

 Total QAlloc Memory Limit  95000 MB
 Mega-Array Size       188 MB
 MEM_STATIC part       192 MB

                       Distance Matrix (Angstroms)
             C (  1)   C (  2)   H (  3)   H (  4)   H (  5)   H (  6)
   C (  2)  1.329000
   H (  3)  1.082000  2.061931
   H (  4)  2.061931  1.082000  2.318160
   H (  5)  1.082000  2.061931  1.924698  3.013026
   H (  6)  2.061931  1.082000  3.013026  1.924698  2.318160
   H (  7) 10.907958 10.907958 10.991433 10.991433 10.991433 10.991433

 
 A cutoff of  1.0D-14 yielded    493 shell pairs
 There are      2101 function pairs (      2238 Cartesian)
 Smallest overlap matrix eigenvalue = 2.50E-04

 Scale SEOQF with 1.000000e-01/1.000000e-01/1.000000e-02

 Standard Electronic Orientation quadrupole field applied
 Nucleus-field energy     =    -0.0000000005 hartrees
 ================ Generating on-the-fly SAD Guess ================
Attempting to make child job directory: /src/jdavis/qchem.scratch/qchem16259//Frg1/
Attempting to make child job directory: /src/jdavis/qchem.scratch/qchem16259//Frg2/
Creating input file /src/jdavis/qchem.scratch/qchem16259/Frg1.input
using default PutDataFrgm: nothing
calling putenv with: QCSCRATCH=/src/jdavis/qchem.scratch/qchem16259/ 
Spawning Job For Fragment 0
Done Job For Fragment 0
calling putenv with: QCSCRATCH=/src/jdavis/qchem.scratch 
calling putenv with: QCTHREADS=1 
Creating input file /src/jdavis/qchem.scratch/qchem16259/Frg2.input
using default PutDataFrgm: nothing
calling putenv with: QCSCRATCH=/src/jdavis/qchem.scratch/qchem16259/ 
Spawning Job For Fragment 1
Done Job For Fragment 1
calling putenv with: QCSCRATCH=/src/jdavis/qchem.scratch 
calling putenv with: QCTHREADS=1 
 Time for running child jobs:  CPU 1.77 s  wall 54.36 s
 ============= Method Specific SAD Guess Constructed =============
 Guess from on-the-fly superposition of atomic densities
 Warning: Energy on first SCF cycle will be non-variational
 A restricted Hartree-Fock SCF calculation will be
 performed using Pulay DIIS extrapolation
 SCF converges when DIIS error is below 1.0E-08
 using 10 threads for integral computing
 -------------------------------------------------------
 OpenMP Integral computing Module                
 Release: version 1.0, May 2013, Q-Chem Inc. Pittsburgh 
 -------------------------------------------------------
 ---------------------------------------
  Cycle       Energy         DIIS Error
 ---------------------------------------
    1     -78.8004370974      7.36E-02
    2     -78.4459192052      6.48E-03
    3     -78.4838610394      1.48E-03
    4     -78.4857881989      4.77E-04
    5     -78.4859584787      7.17E-05
    6     -78.4859658886      1.19E-05
    7     -78.4859662609      3.32E-06
    8     -78.4859663321      3.03E-07
    9     -78.4859663379      6.85E-08
   10     -78.4859663390      1.20E-08
   11     -78.4859663391      1.88E-09 Convergence criterion met
 ---------------------------------------
 SCF time:  CPU 10.00 s  wall 1.01 s
 SCF   energy in the final basis set = -78.48596634
 Total energy in the final basis set = -78.48596634
================================================================================
|                                                                              |
|                                 A D C  M A N                                 |
|                                                                              |
 ------------------------------------------------------------------------------ 
|                                                                              |
| Components:                                                                  |
|                                                                              |
| - libvmm - 1.3-trunk                                                         |
|   Authors:                                                                   |
|   Evgeny Epifanovsky, Ilya Kaliman                                           |
|                                                                              |
| - libtensor - 2.5-trunk                                                      |
|   Authors:                                                                   |
|   Evgeny Epifanovsky, Michael Wormit, Dmitry Zuev, Sam Manzer,               |
|   Ilya Kaliman                                                               |
|                                                                              |
| - libwfa - 1.1-trunk                                                         |
|   Authors:                                                                   |
|   Felix Plasser, Stefanie Mewes (Baeppler), Benjamin Thomitzni,              |
|   Michael Wormit, Feng Chen, Anna I. Krylov, Pavel Pokhilko                  |
|                                                                              |
| - libadc - 1.1-trunk                                                         |
|   Authors:                                                                   |
|   Michael Wormit, Adrian L. Dempwolff, Philipp H. P. Harbach,                |
|   Caroline Krauter, Dirk Rehn, Matthias Schneider, Jan Wenzel                |
|                                                                              |
| - adcman - 2.6-trunk                                                         |
|   Authors:                                                                   |
|   Michael Wormit, Adrian L. Dempwolff, Philipp H. P. Harbach,                |
|   Caroline Krauter, Daniel Lefrancois, Jan-Michael Mewes, Dirk Rehn,         |
|   Matthias Schneider, Jan Wenzel, Andreas Dreuw                              |
|                                                                              |
| Authors of earlier versions of ADCMAN:                                       |
| Andreas Dreuw, Jan Hendrik Starcke, Dirk Rehn, Michael Wormit                |
|                                                                              |
================================================================================

 
 Alpha MOs, Restricted
 -- Occupied --                  
-11.189 -11.187  -0.993  -0.733  -0.612  -0.519  -0.467  -0.328
  1 A1    1 B1    2 A1    2 B1    1 B2    3 A1    1 A2    4 A1                 
  0.022
  5 A1                                                                         
 -- Virtual --                   
  0.105   0.115   0.125   0.130   0.137   0.138   0.173   0.213
  3 B1    2 B2    6 A1    7 A1    4 B1    2 A2    8 A1    5 B1                 
  0.245   0.310   0.318   0.338   0.340   0.343   0.350   0.388
  6 B1    9 A1    3 B2    7 B1    3 A2   10 A1   11 A1    4 B2                 
  0.413   0.429   0.598   0.651   0.862   0.907   0.943   0.979
  8 B1    9 B1    4 A2   10 B1   12 A1    5 B2   13 A1   11 B1                 
  1.002   1.058   1.080   1.089   1.099   1.123   1.142   1.162
  6 B2   14 A1   15 A1   16 A1    5 A2   12 B1   13 B1    7 B2                 
  1.316   1.333   1.335   1.437   1.665   1.677   1.768   1.916
 14 B1    6 A2   17 A1    7 A2   18 A1    8 A2    8 B2   15 B1                 
  1.968   1.968   1.968   1.991   1.995   2.066   2.094   2.131
 16 B1    9 B2   19 A1   20 A1   17 B1   10 B2   21 A1   11 B2                 
  2.226   2.372   2.461   2.510   2.624   2.631   2.859   2.868
 18 B1   19 B1    9 A2   22 A1   20 B1   10 A2   12 B2   23 A1                 
  3.294   3.387
 21 B1   11 A2                                                                 
 
 Beta MOs, Restricted
 -- Occupied --                  
-11.189 -11.187  -0.993  -0.733  -0.612  -0.519  -0.467  -0.328
  1 A1    1 B1    2 A1    2 B1    1 B2    3 A1    1 A2    4 A1                 
  0.022
  5 A1                                                                         
 -- Virtual --                   
  0.105   0.115   0.125   0.130   0.137   0.138   0.173   0.213
  3 B1    2 B2    6 A1    7 A1    4 B1    2 A2    8 A1    5 B1                 
  0.245   0.310   0.318   0.338   0.340   0.343   0.350   0.388
  6 B1    9 A1    3 B2    7 B1    3 A2   10 A1   11 A1    4 B2                 
  0.413   0.429   0.598   0.651   0.862   0.907   0.943   0.979
  8 B1    9 B1    4 A2   10 B1   12 A1    5 B2   13 A1   11 B1                 
  1.002   1.058   1.080   1.089   1.099   1.123   1.142   1.162
  6 B2   14 A1   15 A1   16 A1    5 A2   12 B1   13 B1    7 B2                 
  1.316   1.333   1.335   1.437   1.665   1.677   1.768   1.916
 14 B1    6 A2   17 A1    7 A2   18 A1    8 A2    8 B2   15 B1                 
  1.968   1.968   1.968   1.991   1.995   2.066   2.094   2.131
 16 B1    9 B2   19 A1   20 A1   17 B1   10 B2   21 A1   11 B2                 
  2.226   2.372   2.461   2.510   2.624   2.631   2.859   2.868
 18 B1   19 B1    9 A2   22 A1   20 B1   10 A2   12 B2   23 A1                 
  3.294   3.387
 21 B1   11 A2                                                                 

--------------------------------------------------------------------------------
                                   HF Summary                                   
--------------------------------------------------------------------------------
  Energy:                                                  -78.4859663391 a.u.
  Dip. moment [a.u.]:                  [  -0.000000,    0.000001,  -19.319946]
  Total dipole [Debye]:                                              49.106414
  <r^2> [a.u.]:                        [  50.672059,   25.070978,  788.431618]
  Total <r^2> [a.u.]:                                               864.174655
--------------------------------------------------------------------------------

--------------------------------------------------------------------------------
                                 MP(2) Summary                                  
--------------------------------------------------------------------------------
  MP energy contribution:                                   -0.2986457003 a.u.
  Total energy:                                            -78.7846120394 a.u.
  Dip. moment [a.u.]:                  [  -0.000000,    0.000001,  -19.321350]
  Total dipole [Debye]:                                              49.109982
  <r^2> [a.u.]:                        [  50.738124,   25.059955,  788.237134]
  Total <r^2> [a.u.]:                                               864.035213

  Density matrix analysis:
  ------------------------
  NOs
    Occupation of frontier NOs:
       0.0448   1.9370
    Number of electrons: 18.000000
    Number of unpaired electrons: n_u =  0.43220, n_u,nl =  0.04680
    NO participation ratio (PR_NO): 15.320791
  
  
  Mulliken Population Analysis
  Atom      Charge (e)              h+              e-           Del q
  --------------------------------------------------------------------
   1 C       -0.179996        0.087742       -0.102481       -0.014739
   2 C       -0.179996        0.087742       -0.102481       -0.014739
   3 H        0.089993        0.017856       -0.010487        0.007370
   4 H        0.090008        0.017856       -0.010487        0.007369
   5 H        0.090002        0.017856       -0.010487        0.007369
   6 H        0.089987        0.017856       -0.010487        0.007370
   7 H       -0.999998        0.021953       -0.021953        0.000000
  --------------------------------------------------------------------
  Sum:       -1.000000        0.268863       -0.268863        0.000000
  
  Multipole moment analysis of the density matrix
    Molecular charge:                      -1.000000
    Number of electrons:                   18.000000
      Center of electronic charge [Ang]: [  0.000000,  -0.000000,   0.568023]
    Total nuclear charge:                  17.000000
      Center of nuclear charge [Ang]:    [  0.000000,  -0.000000,  -0.000000]
    Dipole moment [D]:                     49.109968
      Cartesian components [D]:          [ -0.000000,   0.000002, -49.109968]
    RMS size of the density [Ang]:         3.622053
      Cartesian components [Ang]:        [  0.888448,   0.624389,   3.455440]
  
  Exciton analysis of the difference density matrix
    <r_h> [Ang]:                  [ -0.000000,  -0.000000,   0.243112]
    <r_e> [Ang]:                  [  0.000000,  -0.000000,   0.245875]
    |<r_e - r_h>| [Ang]:            0.002764
    Hole size [Ang]:                3.304422
      Cartesian components [Ang]: [  0.955260,   0.734874,   3.076791]
    Electron size [Ang]:            3.282167
      Cartesian components [Ang]: [  0.990621,   0.727021,   3.043473]
--------------------------------------------------------------------------------
  Starting Davidson for singlet states of irrep B2 ... 
--------------------------------------------------------------------------------
   It NVec Conv  Avg. Norm  Max. Norm  Conv. states           Remark
--------------------------------------------------------------------------------
       100    0  1.086e-01  4.524e-01  0.0623 n n n n n n n n Guess.
    1  110    0  6.168e-03  2.885e-02  0.0393 n n n n n n n n 
    2  120    0  6.506e-02  6.505e-01  0.0393 n n n n n n n n 
    3  130    4  3.366e-02  3.366e-01  0.0393 y y y y n n n n 
    4  140    6  2.984e-02  2.984e-01  0.0393 y y n y y y n n 
    5  150    7  4.279e-02  3.401e-01  0.0393 y y n n y y y y 
    6  160    8  3.167e-02  2.365e-01  0.0393 y n y n y y y y 
    7  170    8  2.693e-02  1.931e-01  0.0393 y n y n y y y y 
    8  180    6  2.582e-02  1.852e-01  0.0393 y n n n y n y y 
    9  190    5  2.554e-02  1.836e-01  0.0393 n n n n y n y y 
   10  200    2  1.132e-01  7.998e-01  0.0393 n n n n n y n n 
   11   20    3  6.014e-02  4.340e-01  0.0393 n n n n y n y n Subspace collapsed.
   12   30    4  5.377e-02  3.866e-01  0.0393 y n n n y n y n 
   13   40    4  4.738e-02  3.434e-01  0.0393 y n n n y n n y 
   14   50    6  4.694e-02  3.457e-01  0.0393 y n y n y y n y 
   15   60    6  4.773e-02  3.735e-01  0.0393 y n y n y y n y 
   16   70    6  4.650e-02  3.757e-01  0.0393 y n y n y y n y 
   17   80    6  4.625e-02  3.839e-01  0.0393 y n y n y y n y 
   18   90    6  4.569e-02  3.879e-01  0.0393 y n y n y y n y 
   19  100    6  4.592e-02  3.961e-01  0.0393 y n y n y y n y 
   20  110    6  4.593e-02  3.961e-01  0.0393 y n y n y y n y 
   21  120    6  4.643e-02  4.019e-01  0.0393 y n y n y y n y 
   22  130    4  4.666e-02  4.013e-01  0.0393 y n n n y n n y 
   23  140    4  4.728e-02  4.021e-01  0.0393 y n n n y n n y 
   24  150    3  4.735e-02  3.904e-01  0.0393 n n n n y n n y 
   25  160    1  4.954e-02  4.291e-01  0.0393 n n n n n n n n 
   26  170    0  9.164e-02  5.854e-01  0.0393 n n n n n n n n 
   27  180    1  5.532e-02  3.784e-01  0.0127 n n n n n n y n 
   28  190    0  5.345e-02  3.227e-01  0.0124 n n n n n n n n 
   29  200    0  5.868e-02  2.672e-01  0.0124 n n n n n n n n 
   30   20    1  5.357e-02  3.843e-01  0.0393 y n n n n n n n Subspace collapsed.
   31   30    2  4.574e-02  3.658e-01  0.0393 y n n n n n y n 
   32   40    2  3.751e-02  3.468e-01  0.0393 y n n n n n y n 
   33   50    2  3.543e-02  3.346e-01  0.0393 y n n n n n y n 
   34   60    2  3.432e-02  3.248e-01  0.0393 y n n n n n y n 
   35   70    3  3.372e-02  3.205e-01  0.0393 y n n y n n y n 
   36   80    4  3.050e-02  2.868e-01  0.0393 y n n y n n y y 
   37   90    4  4.069e-02  2.977e-01  0.0393 y n n y n n n y 
   38  100    4  3.596e-02  2.469e-01  0.0393 y n n y n n n y 
   39  110    4  3.381e-02  2.439e-01  0.0393 y n n n y n n y 
   40  120    5  3.114e-02  2.329e-01  0.0393 y n y n y n n y 
   41  130    3  3.028e-02  2.271e-01  0.0393 y n n n n n n y 
   42  140    3  2.795e-02  2.005e-01  0.0393 y n n n n n n y 
   43  150    2  2.583e-02  1.912e-01  0.0393 y n n n n n n y 
   44  160    2  2.157e-02  1.548e-01  0.0393 y n n n n n n y 
   45  170    0  2.155e-02  1.419e-01  0.0393 n n n n n n n n 
   46  180    0  2.575e-02  1.206e-01  0.0393 n n n n n n n n 
   47  190    0  2.729e-02  1.500e-01  0.0393 n n n n n n n n 
   48  200    0  2.673e-02  2.056e-01  0.0077 n n n n n n n n 
   49   20    0  1.260e-02  9.028e-02  0.0393 n n n n n n n n Subspace collapsed.
   50   30    2  1.137e-02  7.967e-02  0.0393 y n n n n n n y 
   51   40    2  1.018e-02  7.363e-02  0.0393 y n n n n n n y 
   52   50    3  9.646e-03  6.938e-02  0.0393 y n n n n n n y 
   53   60    4  8.869e-03  6.208e-02  0.0393 y n n y n n n y 
   54   70    5  8.287e-03  5.875e-02  0.0393 y y n y n n n y 
   55   80    5  7.075e-03  5.548e-02  0.0393 y y n y n n n y 
   56   90    5  6.321e-03  5.461e-02  0.0393 y y n y n n n y 
   57  100    5  5.380e-03  5.040e-02  0.0393 y y n y n n n y 
   58  110    7  5.111e-03  4.899e-02  0.0393 y y n y y n n y 
   59  120    7  4.961e-03  4.758e-02  0.0393 y y n y y n n y 
   60  130    8  4.898e-03  4.680e-02  0.0393 y y n y y y n y 
   61  140    8  4.801e-03  4.581e-02  0.0393 y y n y y y n y 
   62  150    8  4.782e-03  4.550e-02  0.0393 y y n y y y n y 
   63  160    8  4.733e-03  4.502e-02  0.0393 y y n y y y n y 
   64  170    2  4.702e-03  4.462e-02  0.0393 y n n n n n n y 
   65  180    1  4.497e-03  4.245e-02  0.0393 y n n n n n n n 
   66  190    0  1.190e-02  7.832e-02  0.0393 n n n n n n n n 
   67  200    0  3.889e-02  3.713e-01  0.0188 n n n n n n n n 
   68   20    1  1.727e-03  1.495e-02  0.0393 y n n n n n n n Subspace collapsed.
   69   30    4  1.389e-03  1.324e-02  0.0393 y n n n y y n y 
   70   40    7  1.064e-03  1.007e-02  0.0393 y y n y y y n y 
   71   50    8  9.421e-04  9.039e-03  0.0393 y y n y y y n y 
   72   60    8  8.083e-04  7.895e-03  0.0393 y y n y y y n y 
   73   70    8  7.791e-04  7.771e-03  0.0393 y y n y y y n y 
   74   80    8  7.758e-04  7.758e-03  0.0393 y y n y y y n y 
   75   90    9  7.432e-04  7.432e-03  0.0393 y y n y y y y y 
   76  100    9  7.534e-04  7.534e-03  0.0393 y y n y y y y y 
   77  110    9  7.099e-04  7.099e-03  0.0393 y y n y y y y y 
   78  120    9  7.051e-04  7.051e-03  0.0393 y y n y y y y y 
   79  130    9  6.353e-04  6.353e-03  0.0393 y y n y y y y y 
   80  140    5  5.771e-04  5.771e-03  0.0393 y y n n y y n y 
   81  150    4  4.588e-04  4.586e-03  0.0393 y n n n y y n y 
   82  160    2  2.906e-04  2.902e-03  0.0393 y n n n n n n y 
   83  170    2  2.359e-04  1.808e-03  0.0393 y n n n n n n y 
   84  180    0  7.340e-04  5.822e-03  0.0393 n n n n n n n n 
   85  190    0  1.381e-03  1.086e-02  0.0393 n n n n n n n n 
   86  200    0  1.383e-03  1.088e-02  0.0393 n n n n n n n n 
   87   20    6  3.687e-06  2.824e-05  0.0393 y n y n y y y y Subspace collapsed.
   88   30   10  3.203e-07  1.775e-06  0.0393 y y y y y y y y Converged.
--------------------------------------------------------------------------------
  Davidson Summary: 
 ------------------------------------------------------------
  State  0: excitation energy =   0.0393 a.u.   (converged)
  State  1: excitation energy =   0.1949 a.u.   (converged)
  State  2: excitation energy =   0.1983 a.u.   (converged)
  State  3: excitation energy =   0.2000 a.u.   (converged)
  State  4: excitation energy =   0.2227 a.u.   (converged)
  State  5: excitation energy =   0.2303 a.u.   (converged)
  State  6: excitation energy =   0.2436 a.u.   (converged)
  State  7: excitation energy =   0.2893 a.u.   (converged)
  State  8: excitation energy =   0.2894 a.u.   (converged)
  State  9: excitation energy =   0.3064 a.u.   (converged)
 ------------------------------------------------------------


--------------------------------------------------------------------------------
                   State-averaged natural transition orbitals
--------------------------------------------------------------------------------
--------------------------------------------------------------------------------

--------------------------------------------------------------------------------
                             Excited State Summary
--------------------------------------------------------------------------------
--------------------------------------------------------------------------------

  Excited state 1 (singlet, B2)                                    [converged]
  ----------------------------------------------------------------------------
  Term symbol:  1 (1) B2                                    R^2 =  3.84403e-08

  Total energy:                                            -78.7453201113 a.u.
  Excitation energy:                                               1.069188 eV

  Osc. strength:                                                      0.000000
  Trans. dip. moment [a.u.]:           [  -0.000000,   -0.000017,    0.000000]
  <i|r^2|0> [a.u.]:                    [   0.000000,    0.000000,   -0.000000]

  Dip. moment [a.u.]:                  [  -0.000000,    0.000001,    1.221177]
  Total dipole [Debye]:                                               3.103923
  <r^2> [a.u.]:                        [  61.384239,   56.501453,  423.864009]
  Total <r^2> [a.u.]:                                               541.749701

  V1^2 = 0.9794, V2^2 = 0.0206

  Important amplitudes:
      occ i      occ j       vir a       vir b          v   
    ---------------------------------------------------------
     5 (A1) A               2 (B2) A                  0.6990
     5 (A1) A   5 (A1) B   14 (A1) A    2 (B2) B     -0.0436
    ---------------------------------------------------------

  Density matrix analysis:
  ------------------------
  NOs
    Occupation of frontier NOs:
       0.9957   1.0019
    Number of electrons: 18.000000
    Number of unpaired electrons: n_u =  2.41326, n_u,nl =  2.04830
    NO participation ratio (PR_NO):  2.911576
  
  
  Mulliken Population Analysis
  Atom      Charge (e)              h+              e-           Del q
  --------------------------------------------------------------------
   1 C       -0.638596        0.014912       -0.473511       -0.458600
   2 C       -0.638596        0.014912       -0.473511       -0.458600
   3 H        0.069292        0.004116       -0.024817       -0.020701
   4 H        0.069308        0.004116       -0.024817       -0.020701
   5 H        0.069301        0.004116       -0.024817       -0.020701
   6 H        0.069286        0.004116       -0.024817       -0.020701
   7 H        0.000005        1.020930       -0.020927        1.000003
  --------------------------------------------------------------------
  Sum:       -1.000000        1.067217       -1.067217       -0.000000
  
  Multipole moment analysis of the density matrix
    Molecular charge:                      -1.000000
    Number of electrons:                   18.000000
      Center of electronic charge [Ang]: [  0.000000,  -0.000000,  -0.035901]
    Total nuclear charge:                  17.000000
      Center of nuclear charge [Ang]:    [  0.000000,  -0.000000,  -0.000000]
    Dipole moment [D]:                     3.103922
      Cartesian components [D]:          [ -0.000000,   0.000003,   3.103922]
    RMS size of the density [Ang]:         2.902893
      Cartesian components [Ang]:        [  0.977222,   0.937551,   2.567649]
  
  Exciton analysis of the difference density matrix
    <r_h> [Ang]:                  [ -0.000000,  -0.000000,   9.777888]
    <r_e> [Ang]:                  [  0.000000,  -0.000000,  -0.408081]
    |<r_e - r_h>| [Ang]:           10.185968
    Hole size [Ang]:                2.528920
      Cartesian components [Ang]: [  0.724595,   0.714329,   2.315197]
    Electron size [Ang]:            4.155846
      Cartesian components [Ang]: [  1.821671,   2.959771,   2.278667]

  Transition density matrix analysis:
  -----------------------------------
  
  CT numbers (Mulliken)
    omega =     0.9731
    <Phe> =    -0.0000
  
  Exciton analysis of the transition density matrix
    Trans. dipole moment [D]:             0.000022
      Cartesian components [D]:         [ -0.000000,  -0.000022,   0.000000]
    <r_h> [Ang]:                        [  0.000000,  -0.000000,  10.247090]
    <r_e> [Ang]:                        [  0.000000,  -0.000000,  -0.640308]
    |<r_e - r_h>| [Ang]:                 10.887398
    Hole size [Ang]:                      1.110801
      Cartesian components [Ang]:       [  0.640892,   0.640890,   0.642181]
    Electron size [Ang]:                  3.973337
      Cartesian components [Ang]:       [  1.850501,   3.053227,   1.743806]
    RMS electron-hole separation [Ang]:  11.643014
      Cartesian components [Ang]:       [  1.958336,   3.119763,  11.044988]
    Covariance(r_h, r_e) [Ang^2]:        -0.001525
    Correlation coefficient:             -0.000345
    Center-of-mass size [Ang]:            2.062658
      Cartesian components [Ang]:       [  0.979172,   1.559884,   0.928733]

  Decomposition into state-averaged NTOs
    H- 0 -> L+ 0: -0.6793 ( 92.3%)
    H- 0 -> L+ 2:  0.1150 (  2.6%)
    H- 0 -> L+ 1: -0.1086 (  2.4%)
                   omega =  97.3%
  ----------------------------------------------------------------------------


  Excited state 2 (singlet, B2)                                    [converged]
  ----------------------------------------------------------------------------
  Term symbol:  2 (1) B2                                    R^2 =  1.58267e-06

  Total energy:                                            -78.5897455716 a.u.
  Excitation energy:                                               5.302586 eV

  Osc. strength:                                                      0.000000
  Trans. dip. moment [a.u.]:           [   0.000000,    0.000000,   -0.000000]
  <i|r^2|0> [a.u.]:                    [  -0.000000,   -0.000000,    0.000000]

  Dip. moment [a.u.]:                  [  -0.000000,    0.000001,   23.538165]
  Total dipole [Debye]:                                              59.828059
  <r^2> [a.u.]:                        [  88.653175,   66.201552,   75.589845]
  Total <r^2> [a.u.]:                                               230.444572

  V1^2 = 0.0000, V2^2 = 1.0000

  Important amplitudes:
      occ i      occ j       vir a       vir b          v   
    ---------------------------------------------------------
     5 (A1) A   5 (A1) B    6 (A1) A    2 (B2) B      0.3536
     5 (A1) A               2 (B2) A                 -0.0018
    ---------------------------------------------------------

  Density matrix analysis:
  ------------------------
  NOs
    Occupation of frontier NOs:
       1.0011   1.0014
    Number of electrons: 18.000000
    Number of unpaired electrons: n_u =  2.40443, n_u,nl =  2.04903
    NO participation ratio (PR_NO):  2.879311
  
  
  Mulliken Population Analysis
  Atom      Charge (e)              h+              e-           Del q
  --------------------------------------------------------------------
   1 C       -1.176334        0.000001       -0.996338       -0.996338
   2 C       -1.176334        0.000001       -0.996338       -0.996338
   3 H        0.088163        0.000000       -0.001830       -0.001830
   4 H        0.088179        0.000000       -0.001830       -0.001830
   5 H        0.088173        0.000000       -0.001830       -0.001830
   6 H        0.088157        0.000000       -0.001830       -0.001830
   7 H        0.999996        1.999994       -0.000000        1.999994
  --------------------------------------------------------------------
  Sum:       -1.000000        1.999996       -1.999996        0.000000
  
  Multipole moment analysis of the density matrix
    Molecular charge:                      -1.000000
    Number of electrons:                   18.000000
      Center of electronic charge [Ang]: [  0.000000,  -0.000000,  -0.691993]
    Total nuclear charge:                  17.000000
      Center of nuclear charge [Ang]:    [  0.000000,  -0.000000,  -0.000000]
    Dipole moment [D]:                     59.828042
      Cartesian components [D]:          [ -0.000000,   0.000003,  59.828042]
    RMS size of the density [Ang]:         1.762443
      Cartesian components [Ang]:        [  1.174389,   1.014843,   0.834930]
  
  Exciton analysis of the difference density matrix
    <r_h> [Ang]:                  [  0.000000,   0.000000,  10.247247]
    <r_e> [Ang]:                  [  0.000000,  -0.000000,  -1.092916]
    |<r_e - r_h>| [Ang]:           11.340163
    Hole size [Ang]:                1.111247
      Cartesian components [Ang]: [  0.641559,   0.641557,   0.641620]
    Electron size [Ang]:            4.041605
      Cartesian components [Ang]: [  2.391706,   2.484355,   2.107675]

  Transition density matrix analysis:
  -----------------------------------
  
  CT numbers (Mulliken)
    omega =     0.0000
    <Phe> =    -0.0000
  
  Exciton analysis of the transition density matrix
    Trans. dipole moment [D]:             0.000000
      Cartesian components [D]:         [  0.000000,   0.000000,  -0.000000]
    <r_h> [Ang]:                        [  0.000000,   0.000000,  10.247356]
    <r_e> [Ang]:                        [  0.000000,  -0.000000,  -0.640018]
    |<r_e - r_h>| [Ang]:                 10.887373
    Hole size [Ang]:                      1.078379
      Cartesian components [Ang]:       [  0.621460,   0.621457,   0.624885]
    Electron size [Ang]:                  3.559104
      Cartesian components [Ang]:       [  1.727437,   2.713941,   1.522402]
    RMS electron-hole separation [Ang]:  11.505368
      Cartesian components [Ang]:       [  1.835818,   2.784174,  11.011432]
    Covariance(r_h, r_e) [Ang^2]:        -0.004229
    Correlation coefficient:             -0.001102
    Center-of-mass size [Ang]:            1.858875
      Cartesian components [Ang]:       [  0.917915,   1.392098,   0.821530]

  Decomposition into state-averaged NTOs
                   omega =   0.0%
  ----------------------------------------------------------------------------


  Excited state 3 (singlet, B2)                                    [converged]
  ----------------------------------------------------------------------------
  Term symbol:  3 (1) B2                                    R^2 =  8.18367e-07

  Total energy:                                            -78.5862624111 a.u.
  Excitation energy:                                               5.397368 eV

  Osc. strength:                                                      0.000000
  Trans. dip. moment [a.u.]:           [   0.000000,    0.000000,   -0.000000]
  <i|r^2|0> [a.u.]:                    [  -0.000000,   -0.000000,    0.000000]

  Dip. moment [a.u.]:                  [  -0.000000,    0.000001,   23.024465]
  Total dipole [Debye]:                                              58.522364
  <r^2> [a.u.]:                        [ 126.961903,   66.385896,   63.623555]
  Total <r^2> [a.u.]:                                               256.971354

  V1^2 = 0.0000, V2^2 = 1.0000

  Important amplitudes:
      occ i      occ j       vir a       vir b          v   
    ---------------------------------------------------------
     5 (A1) A   5 (A1) B    2 (A2) A    3 (B1) B      0.3536
     5 (A1) A               3 (B2) A                 -0.0000
    ---------------------------------------------------------

  Density matrix analysis:
  ------------------------
  NOs
    Occupation of frontier NOs:
       1.0006   1.0007
    Number of electrons: 18.000000
    Number of unpaired electrons: n_u =  2.40683, n_u,nl =  2.04912
    NO participation ratio (PR_NO):  2.881687
  
  
  Mulliken Population Analysis
  Atom      Charge (e)              h+              e-           Del q
  --------------------------------------------------------------------
   1 C       -1.033760        0.000001       -0.853765       -0.853764
   2 C       -1.033760        0.000001       -0.853765       -0.853764
   3 H        0.016875        0.000000       -0.073118       -0.073118
   4 H        0.016891        0.000000       -0.073118       -0.073118
   5 H        0.016885        0.000000       -0.073118       -0.073118
   6 H        0.016869        0.000000       -0.073118       -0.073118
   7 H        1.000000        1.999998       -0.000000        1.999998
  --------------------------------------------------------------------
  Sum:       -1.000000        2.000000       -2.000000       -0.000000
  
  Multipole moment analysis of the density matrix
    Molecular charge:                      -1.000000
    Number of electrons:                   18.000000
      Center of electronic charge [Ang]: [  0.000000,  -0.000000,  -0.676890]
    Total nuclear charge:                  17.000000
      Center of nuclear charge [Ang]:    [  0.000000,  -0.000000,  -0.000000]
    Dipole moment [D]:                     58.522346
      Cartesian components [D]:          [ -0.000000,   0.000002,  58.522346]
    RMS size of the density [Ang]:         1.881371
      Cartesian components [Ang]:        [  1.405405,   1.016255,   0.729123]
  
  Exciton analysis of the difference density matrix
    <r_h> [Ang]:                  [  0.000000,  -0.000000,  10.247244]
    <r_e> [Ang]:                  [ -0.000000,  -0.000000,  -0.956976]
    |<r_e - r_h>| [Ang]:           11.204220
    Hole size [Ang]:                1.111264
      Cartesian components [Ang]: [  0.641559,   0.641559,   0.641648]
    Electron size [Ang]:            4.508606
      Cartesian components [Ang]: [  3.329266,   2.489542,   1.745191]

  Transition density matrix analysis:
  -----------------------------------
  
  CT numbers (Mulliken)
    omega =     0.0000
    <Phe> =    -0.0000
  
  Exciton analysis of the transition density matrix
    ... vanishing.

  Decomposition into state-averaged NTOs
                   omega =   0.0%
  ----------------------------------------------------------------------------


  Excited state 4 (singlet, B2)                                    [converged]
  ----------------------------------------------------------------------------
  Term symbol:  4 (1) B2                                    R^2 =  1.40456e-06

  Total energy:                                            -78.5845656000 a.u.
  Excitation energy:                                               5.443540 eV

  Osc. strength:                                                      0.000000
  Trans. dip. moment [a.u.]:           [   0.000000,    0.000000,   -0.000000]
  <i|r^2|0> [a.u.]:                    [  -0.000000,   -0.000000,    0.000000]

  Dip. moment [a.u.]:                  [  -0.000000,    0.000001,   20.892353]
  Total dipole [Debye]:                                              53.103073
  <r^2> [a.u.]:                        [  93.021898,   66.674776,   68.672748]
  Total <r^2> [a.u.]:                                               228.369422

  V1^2 = 0.0000, V2^2 = 1.0000

  Important amplitudes:
      occ i      occ j       vir a       vir b          v   
    ---------------------------------------------------------
     5 (A1) A   5 (A1) B    7 (A1) A    2 (B2) B      0.3536
     5 (A1) A               2 (B2) A                 -0.0013
    ---------------------------------------------------------

  Density matrix analysis:
  ------------------------
  NOs
    Occupation of frontier NOs:
       1.0010   1.0011
    Number of electrons: 18.000000
    Number of unpaired electrons: n_u =  2.40518, n_u,nl =  2.04906
    NO participation ratio (PR_NO):  2.880042
  
  
  Mulliken Population Analysis
  Atom      Charge (e)              h+              e-           Del q
  --------------------------------------------------------------------
   1 C       -1.150706        0.000001       -0.970711       -0.970710
   2 C       -1.150706        0.000001       -0.970711       -0.970710
   3 H        0.075349        0.000000       -0.014644       -0.014644
   4 H        0.075364        0.000000       -0.014644       -0.014644
   5 H        0.075358        0.000000       -0.014644       -0.014644
   6 H        0.075343        0.000000       -0.014644       -0.014644
   7 H        0.999998        1.999996       -0.000000        1.999996
  --------------------------------------------------------------------
  Sum:       -1.000000        1.999998       -1.999998        0.000000
  
  Multipole moment analysis of the density matrix
    Molecular charge:                      -1.000000
    Number of electrons:                   18.000000
      Center of electronic charge [Ang]: [  0.000000,  -0.000000,  -0.614209]
    Total nuclear charge:                  17.000000
      Center of nuclear charge [Ang]:    [  0.000000,  -0.000000,  -0.000000]
    Dipole moment [D]:                     53.103058
      Cartesian components [D]:          [ -0.000000,   0.000003,  53.103058]
    RMS size of the density [Ang]:         1.782000
      Cartesian components [Ang]:        [  1.202977,   1.018464,   0.831323]
  
  Exciton analysis of the difference density matrix
    <r_h> [Ang]:                  [ -0.000000,  -0.000000,  10.247245]
    <r_e> [Ang]:                  [  0.000000,  -0.000000,  -0.392855]
    |<r_e - r_h>| [Ang]:           10.640100
    Hole size [Ang]:                1.111259
      Cartesian components [Ang]: [  0.641561,   0.641558,   0.641638]
    Electron size [Ang]:            4.133306
      Cartesian components [Ang]: [  2.516334,   2.497653,   2.124619]

  Transition density matrix analysis:
  -----------------------------------
  
  CT numbers (Mulliken)
    omega =     0.0000
    <Phe> =     0.0000
  
  Exciton analysis of the transition density matrix
    Trans. dipole moment [D]:             0.000000
      Cartesian components [D]:         [  0.000000,   0.000000,  -0.000000]
    <r_h> [Ang]:                        [  0.000000,   0.000000,  10.247308]
    <r_e> [Ang]:                        [  0.000000,  -0.000000,  -0.639972]
    |<r_e - r_h>| [Ang]:                 10.887280
    Hole size [Ang]:                      1.078882
      Cartesian components [Ang]:       [  0.621559,   0.621555,   0.625557]
    Electron size [Ang]:                  3.440548
      Cartesian components [Ang]:       [  1.693427,   2.616192,   1.457812]
    RMS electron-hole separation [Ang]:  11.469271
      Cartesian components [Ang]:       [  1.803887,   2.689014,  11.002699]
    Covariance(r_h, r_e) [Ang^2]:        -0.004976
    Correlation coefficient:             -0.001341
    Center-of-mass size [Ang]:            1.802179
      Cartesian components [Ang]:       [  0.901950,   1.344505,   0.791607]

  Decomposition into state-averaged NTOs
                   omega =   0.0%
  ----------------------------------------------------------------------------


  Excited state 5 (singlet, B2)                                    [converged]
  ----------------------------------------------------------------------------
  Term symbol:  5 (1) B2                                    R^2 =  2.37867e-07

  Total energy:                                            -78.5619291180 a.u.
  Excitation energy:                                               6.059510 eV

  Osc. strength:                                                      0.000000
  Trans. dip. moment [a.u.]:           [   0.000000,    0.000013,    0.000000]
  <i|r^2|0> [a.u.]:                    [  -0.000000,    0.000000,   -0.000000]

  Dip. moment [a.u.]:                  [  -0.000000,    0.000001,    1.226053]
  Total dipole [Debye]:                                               3.116317
  <r^2> [a.u.]:                        [  57.684033,   44.200578,  419.959410]
  Total <r^2> [a.u.]:                                               521.844021

  V1^2 = 0.9601, V2^2 = 0.0399

  Important amplitudes:
      occ i      occ j       vir a       vir b          v   
    ---------------------------------------------------------
     5 (A1) A               3 (B2) A                 -0.6763
     5 (A1) A               4 (B2) A                 -0.1417
    ---------------------------------------------------------

  Density matrix analysis:
  ------------------------
  NOs
    Occupation of frontier NOs:
       0.9827   1.0014
    Number of electrons: 18.000000
    Number of unpaired electrons: n_u =  2.44021, n_u,nl =  2.05677
    NO participation ratio (PR_NO):  3.010435
  
  
  Mulliken Population Analysis
  Atom      Charge (e)              h+              e-           Del q
  --------------------------------------------------------------------
   1 C       -0.515674        0.073402       -0.409079       -0.335677
   2 C       -0.515674        0.073402       -0.409079       -0.335677
   3 H        0.007832        0.007001       -0.089162       -0.082161
   4 H        0.007846        0.007000       -0.089163       -0.082163
   5 H        0.007840        0.007000       -0.089163       -0.082163
   6 H        0.007826        0.007001       -0.089162       -0.082161
   7 H        0.000005        1.019180       -0.019178        1.000002
  --------------------------------------------------------------------
  Sum:       -1.000000        1.193985       -1.193985       -0.000000
  
  Multipole moment analysis of the density matrix
    Molecular charge:                      -1.000000
    Number of electrons:                   18.000000
      Center of electronic charge [Ang]: [  0.000000,  -0.000000,  -0.036045]
    Total nuclear charge:                  17.000000
      Center of nuclear charge [Ang]:    [  0.000000,  -0.000000,  -0.000000]
    Dipole moment [D]:                     3.116316
      Cartesian components [D]:          [ -0.000000,   0.000001,   3.116316]
    RMS size of the density [Ang]:         2.849053
      Cartesian components [Ang]:        [  0.947311,   0.829237,   2.555791]
  
  Exciton analysis of the difference density matrix
    <r_h> [Ang]:                  [ -0.000000,   0.000000,   8.654982]
    <r_e> [Ang]:                  [  0.000000,   0.000000,  -0.451678]
    |<r_e - r_h>| [Ang]:            9.106660
    Hole size [Ang]:                4.045690
      Cartesian components [Ang]: [  0.758646,   0.720076,   3.908139]
    Electron size [Ang]:            3.288968
      Cartesian components [Ang]: [  1.484785,   2.237769,   1.898714]

  Transition density matrix analysis:
  -----------------------------------
  
  CT numbers (Mulliken)
    omega =     0.9515
    <Phe> =     0.0000
  
  Exciton analysis of the transition density matrix
    Trans. dipole moment [D]:             0.000016
      Cartesian components [D]:         [  0.000000,   0.000016,   0.000000]
    <r_h> [Ang]:                        [  0.000000,   0.000000,  10.246365]
    <r_e> [Ang]:                        [  0.000000,   0.000000,  -0.639560]
    |<r_e - r_h>| [Ang]:                 10.885925
    Hole size [Ang]:                      1.114222
      Cartesian components [Ang]:       [  0.640834,   0.640827,   0.648199]
    Electron size [Ang]:                  3.150140
      Cartesian components [Ang]:       [  1.489293,   2.415070,   1.368513]
    RMS electron-hole separation [Ang]:  11.388022
      Cartesian components [Ang]:       [  1.621309,   2.498640,  10.991597]
    Covariance(r_h, r_e) [Ang^2]:        -0.009407
    Correlation coefficient:             -0.002680
    Center-of-mass size [Ang]:            1.669286
      Cartesian components [Ang]:       [  0.810661,   1.249324,   0.754012]

  Decomposition into state-averaged NTOs
    H- 0 -> L+ 1: -0.4864 ( 47.3%)
    H- 0 -> L+ 2:  0.4658 ( 43.4%)
    H- 0 -> L+ 0:  0.1488 (  4.4%)
                   omega =  95.2%
  ----------------------------------------------------------------------------


  Excited state 6 (singlet, B2)                                    [converged]
  ----------------------------------------------------------------------------
  Term symbol:  6 (1) B2                                    R^2 =  8.22628e-07

  Total energy:                                            -78.5542754708 a.u.
  Excitation energy:                                               6.267777 eV

  Osc. strength:                                                      0.000000
  Trans. dip. moment [a.u.]:           [  -0.000000,   -0.000000,   -0.000000]
  <i|r^2|0> [a.u.]:                    [  -0.000000,   -0.000000,   -0.000000]

  Dip. moment [a.u.]:                  [   0.000000,    0.000001,   20.827651]
  Total dipole [Debye]:                                              52.938619
  <r^2> [a.u.]:                        [ 106.726826,   62.567471,   69.836140]
  Total <r^2> [a.u.]:                                               239.130437

  V1^2 = 0.0000, V2^2 = 1.0000

  Important amplitudes:
      occ i      occ j       vir a       vir b          v   
    ---------------------------------------------------------
     5 (A1) A   5 (A1) B    2 (A2) A    4 (B1) B      0.3536
     5 (A1) A               3 (B2) A                 -0.0003
    ---------------------------------------------------------

  Density matrix analysis:
  ------------------------
  NOs
    Occupation of frontier NOs:
       1.0006   1.0057
    Number of electrons: 18.000000
    Number of unpaired electrons: n_u =  2.39682, n_u,nl =  2.04740
    NO participation ratio (PR_NO):  2.872658
  
  
  Mulliken Population Analysis
  Atom      Charge (e)              h+              e-           Del q
  --------------------------------------------------------------------
   1 C       -1.067357        0.000001       -0.887362       -0.887361
   2 C       -1.067357        0.000001       -0.887362       -0.887361
   3 H        0.033674        0.000000       -0.056319       -0.056319
   4 H        0.033690        0.000000       -0.056319       -0.056319
   5 H        0.033684        0.000000       -0.056319       -0.056319
   6 H        0.033668        0.000000       -0.056319       -0.056319
   7 H        1.000000        1.999998       -0.000000        1.999998
  --------------------------------------------------------------------
  Sum:       -1.000000        2.000000       -2.000000       -0.000000
  
  Multipole moment analysis of the density matrix
    Molecular charge:                      -1.000000
    Number of electrons:                   18.000000
      Center of electronic charge [Ang]: [ -0.000000,  -0.000000,  -0.612307]
    Total nuclear charge:                  17.000000
      Center of nuclear charge [Ang]:    [  0.000000,  -0.000000,  -0.000000]
    Dipole moment [D]:                     52.938603
      Cartesian components [D]:          [  0.000000,   0.000001,  52.938603]
    RMS size of the density [Ang]:         1.829007
      Cartesian components [Ang]:        [  1.288551,   0.986596,   0.843523]
  
  Exciton analysis of the difference density matrix
    <r_h> [Ang]:                  [  0.000000,  -0.000000,  10.247244]
    <r_e> [Ang]:                  [ -0.000000,   0.000000,  -0.375725]
    |<r_e - r_h>| [Ang]:           10.622969
    Hole size [Ang]:                1.111265
      Cartesian components [Ang]: [  0.641559,   0.641559,   0.641650]
    Electron size [Ang]:            4.313255
      Cartesian components [Ang]: [  2.872423,   2.379745,   2.165679]

  Transition density matrix analysis:
  -----------------------------------
  
  CT numbers (Mulliken)
    omega =     0.0000
    <Phe> =     0.0000
  
  Exciton analysis of the transition density matrix
    ... vanishing.

  Decomposition into state-averaged NTOs
                   omega =   0.0%
  ----------------------------------------------------------------------------


  Excited state 7 (singlet, B2)                                    [converged]
  ----------------------------------------------------------------------------
  Term symbol:  7 (1) B2                                    R^2 =  3.13729e-07

  Total energy:                                            -78.5410053284 a.u.
  Excitation energy:                                               6.628876 eV

  Osc. strength:                                                      0.000000
  Trans. dip. moment [a.u.]:           [  -0.000000,    0.000000,    0.000000]
  <i|r^2|0> [a.u.]:                    [   0.000000,    0.000000,   -0.000000]

  Dip. moment [a.u.]:                  [  -0.000000,    0.000001,   21.186890]
  Total dipole [Debye]:                                              53.851714
  <r^2> [a.u.]:                        [  71.400589,   67.594486,   62.296522]
  Total <r^2> [a.u.]:                                               201.291598

  V1^2 = 0.0000, V2^2 = 1.0000

  Important amplitudes:
      occ i      occ j       vir a       vir b          v   
    ---------------------------------------------------------
     5 (A1) A   5 (A1) B    8 (A1) A    2 (B2) B     -0.3536
     5 (A1) A               2 (B2) A                  0.0003
    ---------------------------------------------------------

  Density matrix analysis:
  ------------------------
  NOs
    Occupation of frontier NOs:
       1.0011   1.0026
    Number of electrons: 18.000000
    Number of unpaired electrons: n_u =  2.40196, n_u,nl =  2.04895
    NO participation ratio (PR_NO):  2.877037
  
  
  Mulliken Population Analysis
  Atom      Charge (e)              h+              e-           Del q
  --------------------------------------------------------------------
   1 C       -1.261705        0.000001       -1.081709       -1.081708
   2 C       -1.261705        0.000001       -1.081709       -1.081708
   3 H        0.130848       -0.000000        0.040855        0.040855
   4 H        0.130863       -0.000000        0.040854        0.040854
   5 H        0.130857       -0.000000        0.040854        0.040854
   6 H        0.130842       -0.000000        0.040855        0.040855
   7 H        1.000000        1.999998       -0.000000        1.999998
  --------------------------------------------------------------------
  Sum:       -1.000000        2.000000       -2.000000        0.000000
  
  Multipole moment analysis of the density matrix
    Molecular charge:                      -1.000000
    Number of electrons:                   18.000000
      Center of electronic charge [Ang]: [  0.000000,  -0.000000,  -0.622868]
    Total nuclear charge:                  17.000000
      Center of nuclear charge [Ang]:    [  0.000000,  -0.000000,  -0.000000]
    Dipole moment [D]:                     53.851697
      Cartesian components [D]:          [ -0.000000,   0.000002,  53.851697]
    RMS size of the density [Ang]:         1.656369
      Cartesian components [Ang]:        [  1.053940,   1.025464,   0.762359]
  
  Exciton analysis of the difference density matrix
    <r_h> [Ang]:                  [  0.000000,  -0.000000,  10.247244]
    <r_e> [Ang]:                  [  0.000000,  -0.000000,  -0.470775]
    |<r_e - r_h>| [Ang]:           10.718019
    Hole size [Ang]:                1.111266
      Cartesian components [Ang]: [  0.641559,   0.641559,   0.641652]
    Electron size [Ang]:            3.636720
      Cartesian components [Ang]: [  1.817866,   2.523299,   1.885221]

  Transition density matrix analysis:
  -----------------------------------
  
  CT numbers (Mulliken)
    omega =     0.0000
    <Phe> =    -0.0000
  
  Exciton analysis of the transition density matrix
    ... vanishing.

  Decomposition into state-averaged NTOs
                   omega =   0.0%
  ----------------------------------------------------------------------------


  Excited state 8 (singlet, B2)                                    [converged]
  ----------------------------------------------------------------------------
  Term symbol:  8 (1) B2                                    R^2 =  1.13835e-08

  Total energy:                                            -78.4953492500 a.u.
  Excitation energy:                                               7.871241 eV

  Osc. strength:                                                      0.000052
  Trans. dip. moment [a.u.]:           [   0.000001,   -0.016462,   -0.000000]
  <i|r^2|0> [a.u.]:                    [  -0.000000,   -0.000000,   -0.000000]

  Dip. moment [a.u.]:                  [  -0.000000,    0.000001,  -19.337828]
  Total dipole [Debye]:                                              49.151865
  <r^2> [a.u.]:                        [  57.214892,   48.837899,  793.286252]
  Total <r^2> [a.u.]:                                               899.339043

  V1^2 = 0.9535, V2^2 = 0.0465

  Important amplitudes:
      occ i      occ j       vir a       vir b          v   
    ---------------------------------------------------------
     4 (A1) A               2 (B2) A                 -0.6599
     4 (A1) A               3 (B2) A                 -0.1883
    ---------------------------------------------------------

  Density matrix analysis:
  ------------------------
  NOs
    Occupation of frontier NOs:
       0.9861   0.9918
    Number of electrons: 18.000000
    Number of unpaired electrons: n_u =  2.31774, n_u,nl =  2.02572
    NO participation ratio (PR_NO):  2.736810
  
  
  Mulliken Population Analysis
  Atom      Charge (e)              h+              e-           Del q
  --------------------------------------------------------------------
   1 C       -0.264094        0.516257       -0.600356       -0.084098
   2 C       -0.264094        0.516257       -0.600356       -0.084098
   3 H        0.132041        0.090071       -0.048023        0.042048
   4 H        0.132059        0.090073       -0.048023        0.042050
   5 H        0.132053        0.090073       -0.048023        0.042050
   6 H        0.132035        0.090071       -0.048023        0.042048
   7 H       -0.999997        0.000104       -0.000103        0.000000
  --------------------------------------------------------------------
  Sum:       -1.000000        1.392907       -1.392907        0.000000
  
  Multipole moment analysis of the density matrix
    Molecular charge:                      -1.000000
    Number of electrons:                   18.000000
      Center of electronic charge [Ang]: [  0.000000,  -0.000000,   0.568507]
    Total nuclear charge:                  17.000000
      Center of nuclear charge [Ang]:    [  0.000000,  -0.000000,  -0.000000]
    Dipole moment [D]:                     49.151850
      Cartesian components [D]:          [ -0.000000,   0.000002, -49.151850]
    RMS size of the density [Ang]:         3.697018
      Cartesian components [Ang]:        [  0.943451,   0.871652,   3.466708]
  
  Exciton analysis of the difference density matrix
    <r_h> [Ang]:                  [  0.000000,  -0.000000,  -0.647141]
    <r_e> [Ang]:                  [  0.000000,  -0.000000,  -0.640881]
    |<r_e - r_h>| [Ang]:            0.006260
    Hole size [Ang]:                1.569327
      Cartesian components [Ang]: [  1.023280,   0.811518,   0.870130]
    Electron size [Ang]:            3.093266
      Cartesian components [Ang]: [  1.532705,   2.332135,   1.334263]

  Transition density matrix analysis:
  -----------------------------------
  
  CT numbers (Mulliken)
    omega =     0.9223
    <Phe> =    -0.0027
  
  Exciton analysis of the transition density matrix
    Trans. dipole moment [D]:             0.020921
      Cartesian components [D]:         [  0.000001,  -0.020921,  -0.000000]
    <r_h> [Ang]:                        [  0.000000,  -0.000000,  -0.647082]
    <r_e> [Ang]:                        [  0.000000,  -0.000000,  -0.640535]
    |<r_e - r_h>| [Ang]:                  0.006547
    Hole size [Ang]:                      1.253845
      Cartesian components [Ang]:       [  0.756439,   0.510099,   0.860074]
    Electron size [Ang]:                  3.542867
      Cartesian components [Ang]:       [  1.700915,   2.706322,   1.527946]
    RMS electron-hole separation [Ang]:   3.755666
      Cartesian components [Ang]:       [  1.857465,   2.753328,   1.753291]
    Covariance(r_h, r_e) [Ang^2]:         0.009526
    Correlation coefficient:              0.002145
    Center-of-mass size [Ang]:            1.880365
      Cartesian components [Ang]:       [  0.932798,   1.377311,   0.876741]

  Decomposition into state-averaged NTOs
    H- 1 -> L+ 0:  0.6779 ( 91.9%)
                   omega =  92.2%
  ----------------------------------------------------------------------------


  Excited state 9 (singlet, B2)                                    [converged]
  ----------------------------------------------------------------------------
  Term symbol:  9 (1) B2                                    R^2 =  1.06274e-06

  Total energy:                                            -78.4951836643 a.u.
  Excitation energy:                                               7.875747 eV

  Osc. strength:                                                      0.000000
  Trans. dip. moment [a.u.]:           [  -0.000000,   -0.000080,   -0.000000]
  <i|r^2|0> [a.u.]:                    [   0.000000,    0.000000,   -0.000000]

  Dip. moment [a.u.]:                  [   0.000000,    0.000001,    1.226115]
  Total dipole [Debye]:                                               3.116475
  <r^2> [a.u.]:                        [  56.150037,   33.461748,  418.488299]
  Total <r^2> [a.u.]:                                               508.100083

  V1^2 = 0.9647, V2^2 = 0.0353

  Important amplitudes:
      occ i      occ j       vir a       vir b          v   
    ---------------------------------------------------------
     5 (A1) A               4 (B2) A                 -0.6768
     5 (A1) A               3 (B2) A                  0.1525
    ---------------------------------------------------------

  Density matrix analysis:
  ------------------------
  NOs
    Occupation of frontier NOs:
       0.9878   1.0015
    Number of electrons: 18.000000
    Number of unpaired electrons: n_u =  2.43139, n_u,nl =  2.05305
    NO participation ratio (PR_NO):  2.975715
  
  
  Mulliken Population Analysis
  Atom      Charge (e)              h+              e-           Del q
  --------------------------------------------------------------------
   1 C       -0.617847        0.079509       -0.517359       -0.437851
   2 C       -0.617847        0.079509       -0.517359       -0.437851
   3 H        0.058919        0.008566       -0.039639       -0.031074
   4 H        0.058932        0.008566       -0.039642       -0.031077
   5 H        0.058926        0.008566       -0.039642       -0.031077
   6 H        0.058913        0.008566       -0.039639       -0.031074
   7 H        0.000004        1.019454       -0.019452        1.000002
  --------------------------------------------------------------------
  Sum:       -1.000000        1.212735       -1.212735       -0.000000
  
  Multipole moment analysis of the density matrix
    Molecular charge:                      -1.000000
    Number of electrons:                   18.000000
      Center of electronic charge [Ang]: [ -0.000000,  -0.000000,  -0.036047]
    Total nuclear charge:                  17.000000
      Center of nuclear charge [Ang]:    [  0.000000,  -0.000000,  -0.000000]
    Dipole moment [D]:                     3.116474
      Cartesian components [D]:          [  0.000000,   0.000001,   3.116474]
    RMS size of the density [Ang]:         2.811278
      Cartesian components [Ang]:        [  0.934630,   0.721505,   2.551310]
  
  Exciton analysis of the difference density matrix
    <r_h> [Ang]:                  [  0.000000,   0.000000,   8.513804]
    <r_e> [Ang]:                  [ -0.000000,   0.000000,  -0.452091]
    |<r_e - r_h>| [Ang]:            8.965895
    Hole size [Ang]:                4.182704
      Cartesian components [Ang]: [  0.781060,   0.729619,   4.043836]
    Electron size [Ang]:            2.754573
      Cartesian components [Ang]: [  1.363709,   1.572378,   1.804328]

  Transition density matrix analysis:
  -----------------------------------
  
  CT numbers (Mulliken)
    omega =     0.9566
    <Phe> =     0.0001
  
  Exciton analysis of the transition density matrix
    Trans. dipole moment [D]:             0.000102
      Cartesian components [D]:         [ -0.000000,  -0.000102,  -0.000000]
    <r_h> [Ang]:                        [  0.000000,   0.000000,  10.247012]
    <r_e> [Ang]:                        [ -0.000000,   0.000000,  -0.640189]
    |<r_e - r_h>| [Ang]:                 10.887201
    Hole size [Ang]:                      1.111052
      Cartesian components [Ang]:       [  0.640822,   0.640820,   0.642755]
    Electron size [Ang]:                  2.432056
      Cartesian components [Ang]:       [  1.326859,   1.649233,   1.197654]
    RMS electron-hole separation [Ang]:  11.210940
      Cartesian components [Ang]:       [  1.473493,   1.769351,  10.971937]
    Covariance(r_h, r_e) [Ang^2]:        -0.002344
    Correlation coefficient:             -0.000868
    Center-of-mass size [Ang]:            1.336474
      Cartesian components [Ang]:       [  0.736756,   0.884680,   0.678745]

  Decomposition into state-averaged NTOs
    H- 0 -> L+ 2:  0.4922 ( 48.4%)
    H- 0 -> L+ 1:  0.4859 ( 47.2%)
                   omega =  95.7%
  ----------------------------------------------------------------------------


  Excited state 10 (singlet, B2)                                    [converged]
  ----------------------------------------------------------------------------
  Term symbol:  10 (1) B2                                   R^2 =  1.77537e-06

  Total energy:                                            -78.4782012308 a.u.
  Excitation energy:                                               8.337862 eV

  Osc. strength:                                                      0.000000
  Trans. dip. moment [a.u.]:           [   0.000000,    0.000000,   -0.000000]
  <i|r^2|0> [a.u.]:                    [   0.000000,    0.000000,    0.000000]

  Dip. moment [a.u.]:                  [   0.000000,    0.000000,   21.919966]
  Total dipole [Debye]:                                              55.715005
  <r^2> [a.u.]:                        [  94.560585,   58.740701,   61.653970]
  Total <r^2> [a.u.]:                                               214.955257

  V1^2 = 0.0000, V2^2 = 1.0000

  Important amplitudes:
      occ i      occ j       vir a       vir b          v   
    ---------------------------------------------------------
     5 (A1) A   5 (A1) B    2 (A2) A    5 (B1) B      0.3536
     5 (A1) A               4 (B2) A                 -0.0001
    ---------------------------------------------------------

  Density matrix analysis:
  ------------------------
  NOs
    Occupation of frontier NOs:
       1.0006   1.0253
    Number of electrons: 18.000000
    Number of unpaired electrons: n_u =  2.35760, n_u,nl =  2.04182
    NO participation ratio (PR_NO):  2.835795
  
  
  Mulliken Population Analysis
  Atom      Charge (e)              h+              e-           Del q
  --------------------------------------------------------------------
   1 C       -1.061723        0.000001       -0.881728       -0.881727
   2 C       -1.061723        0.000001       -0.881728       -0.881727
   3 H        0.030857        0.000000       -0.059136       -0.059136
   4 H        0.030872        0.000000       -0.059136       -0.059136
   5 H        0.030866        0.000000       -0.059136       -0.059136
   6 H        0.030851        0.000000       -0.059136       -0.059136
   7 H        1.000000        1.999998       -0.000000        1.999998
  --------------------------------------------------------------------
  Sum:       -1.000000        2.000000       -2.000000       -0.000000
  
  Multipole moment analysis of the density matrix
    Molecular charge:                      -1.000000
    Number of electrons:                   18.000000
      Center of electronic charge [Ang]: [ -0.000000,  -0.000000,  -0.644420]
    Total nuclear charge:                  17.000000
      Center of nuclear charge [Ang]:    [  0.000000,  -0.000000,  -0.000000]
    Dipole moment [D]:                     55.714989
      Cartesian components [D]:          [  0.000000,   0.000001,  55.714989]
    RMS size of the density [Ang]:         1.711377
      Cartesian components [Ang]:        [  1.212886,   0.955948,   0.737484]
  
  Exciton analysis of the difference density matrix
    <r_h> [Ang]:                  [  0.000000,  -0.000000,  10.247244]
    <r_e> [Ang]:                  [ -0.000000,   0.000000,  -0.664738]
    |<r_e - r_h>| [Ang]:           10.911982
    Hole size [Ang]:                1.111264
      Cartesian components [Ang]: [  0.641559,   0.641559,   0.641648]
    Electron size [Ang]:            3.862460
      Cartesian components [Ang]: [  2.558782,   2.264372,   1.801069]

  Transition density matrix analysis:
  -----------------------------------
  
  CT numbers (Mulliken)
    omega =     0.0000
    <Phe> =    -0.0001
  
  Exciton analysis of the transition density matrix
    ... vanishing.

  Decomposition into state-averaged NTOs
                   omega =   0.0%
  ----------------------------------------------------------------------------


--------------------------------------------------------------------------------
  Time of ADC calculation:  CPU 3227.70 s  wall 641.96 s
================================================================================
 
 --------------------------------------------------------------
             Orbital Energies (a.u.) and Symmetries
 --------------------------------------------------------------
 
 Alpha MOs, Restricted
 -- Occupied --                  
-11.189 -11.187  -0.993  -0.733  -0.612  -0.519  -0.467  -0.328
  1 A1    1 B1    2 A1    2 B1    1 B2    3 A1    1 A2    4 A1                 
  0.022
  5 A1                                                                         
 -- Virtual --                   
  0.105   0.115   0.125   0.130   0.137   0.138   0.173   0.213
  3 B1    2 B2    6 A1    7 A1    4 B1    2 A2    8 A1    5 B1                 
  0.245   0.310   0.318   0.338   0.340   0.343   0.350   0.388
  6 B1    9 A1    3 B2    7 B1    3 A2   10 A1   11 A1    4 B2                 
  0.413   0.429   0.598   0.651   0.862   0.907   0.943   0.979
  8 B1    9 B1    4 A2   10 B1   12 A1    5 B2   13 A1   11 B1                 
  1.002   1.058   1.080   1.089   1.099   1.123   1.142   1.162
  6 B2   14 A1   15 A1   16 A1    5 A2   12 B1   13 B1    7 B2                 
  1.316   1.333   1.335   1.437   1.665   1.677   1.768   1.916
 14 B1    6 A2   17 A1    7 A2   18 A1    8 A2    8 B2   15 B1                 
  1.968   1.968   1.968   1.991   1.995   2.066   2.094   2.131
 16 B1    9 B2   19 A1   20 A1   17 B1   10 B2   21 A1   11 B2                 
  2.226   2.372   2.461   2.510   2.624   2.631   2.859   2.868
 18 B1   19 B1    9 A2   22 A1   20 B1   10 A2   12 B2   23 A1                 
  3.294   3.387
 21 B1   11 A2                                                                 
 
 Beta MOs, Restricted
 -- Occupied --                  
-11.189 -11.187  -0.993  -0.733  -0.612  -0.519  -0.467  -0.328
  1 A1    1 B1    2 A1    2 B1    1 B2    3 A1    1 A2    4 A1                 
  0.022
  5 A1                                                                         
 -- Virtual --                   
  0.105   0.115   0.125   0.130   0.137   0.138   0.173   0.213
  3 B1    2 B2    6 A1    7 A1    4 B1    2 A2    8 A1    5 B1                 
  0.245   0.310   0.318   0.338   0.340   0.343   0.350   0.388
  6 B1    9 A1    3 B2    7 B1    3 A2   10 A1   11 A1    4 B2                 
  0.413   0.429   0.598   0.651   0.862   0.907   0.943   0.979
  8 B1    9 B1    4 A2   10 B1   12 A1    5 B2   13 A1   11 B1                 
  1.002   1.058   1.080   1.089   1.099   1.123   1.142   1.162
  6 B2   14 A1   15 A1   16 A1    5 A2   12 B1   13 B1    7 B2                 
  1.316   1.333   1.335   1.437   1.665   1.677   1.768   1.916
 14 B1    6 A2   17 A1    7 A2   18 A1    8 A2    8 B2   15 B1                 
  1.968   1.968   1.968   1.991   1.995   2.066   2.094   2.131
 16 B1    9 B2   19 A1   20 A1   17 B1   10 B2   21 A1   11 B2                 
  2.226   2.372   2.461   2.510   2.624   2.631   2.859   2.868
 18 B1   19 B1    9 A2   22 A1   20 B1   10 A2   12 B2   23 A1                 
  3.294   3.387
 21 B1   11 A2                                                                 
 --------------------------------------------------------------
 
          Ground-State Mulliken Net Atomic Charges

     Atom                 Charge (a.u.)
  ----------------------------------------
      1 C                    -0.165257
      2 C                    -0.165257
      3 H                     0.082623
      4 H                     0.082639
      5 H                     0.082633
      6 H                     0.082617
      7 H                    -0.999998
  ----------------------------------------
  Sum of atomic charges =    -1.000000

 -----------------------------------------------------------------
                    Cartesian Multipole Moments
 -----------------------------------------------------------------
    Charge (ESU x 10^10)
                -4.8032
    Dipole Moment (Debye)
         X      -0.0000      Y       0.0000      Z     -49.1064
       Tot      49.1064
    Quadrupole Moments (Debye-Ang)
        XX     -16.8930     XY       0.0000     YY     -15.9280
        XZ       0.0000     YZ      -0.0000     ZZ    -524.5791
    Octopole Moments (Debye-Ang^2)
       XXX      -0.0000    XXY       0.0000    XYY      -0.0000
       YYY       0.0000    XXZ     -32.1092    XYZ      -0.0000
       YYZ     -32.7600    XZZ      -0.0000    YZZ       0.0000
       ZZZ   -5258.5192
    Hexadecapole Moments (Debye-Ang^3)
      XXXX     -74.1265   XXXY       0.0000   XXYY     -15.2382
      XYYY      -0.0000   YYYY     -32.8471   XXXZ       0.0000
      XXYZ      -0.0000   XYYZ       0.0000   YYYZ      -0.0000
      XXZZ    -438.1904   XYZZ       0.0000   YYZZ    -431.1458
      XZZZ       0.0000   YZZZ      -0.0000   ZZZZ  -55520.8045
 -----------------------------------------------------------------
 Total job time:  724.46s(wall), 3271.66s(cpu) 
 Sat Mar 26 07:06:16 2022

        *************************************************************
        *                                                           *
        *  Thank you very much for using Q-Chem.  Have a nice day.  *
        *                                                           *
        *************************************************************


