/src/tsommerfeld/qchem/exe/qcprog.exe .input1.444444.17364.qcin.1 /src/jdavis/qchem.scratch/qchem17364/

                  Welcome to Q-Chem
     A Quantum Leap Into The Future Of Chemistry


 Q-Chem 5.4 (devel), Q-Chem, Inc., Pleasanton, CA (2021)

 E. Epifanovsky,  A. T. B. Gilbert,  Xintian Feng,  Joonho Lee,  Yuezhi Mao,  
 N. Mardirossian,  P. Pokhilko,  A. White,  M. Wormit,  M. P. Coons,  
 A. L. Dempwolff,  Zhengting Gan,  D. Hait,  P. R. Horn,  L. D. Jacobson,  
 I. Kaliman,  J. Kussmann,  A. W. Lange,  Ka Un Lao,  D. S. Levine,  Jie Liu,  
 S. C. McKenzie,  A. F. Morrison,  K. Nanda,  F. Plasser,  D. R. Rehn,  
 M. L. Vidal,  Zhi-Qiang You,  Ying Zhu,  B. Alam,  B. Albrecht,  
 A. Aldossary,  E. Alguire,  J. H. Andersen,  D. Barton,  K. Begam,  A. Behn,  
 Y. A. Bernard,  E. J. Berquist,  H. Burton,  A. Carreras,  K. Carter-Fenk,  
 R. Chakraborty,  A. D. Chien,  K. D. Closser,  V. Cofer-Shabica,  
 S. Dasgupta,  Jia Deng,  M. de Wergifosse,  M. Diedenhofen,  Hainam Do,  
 S. Ehlert,  Po-Tung Fang,  S. Fatehi,  Qingguo Feng,  T. Friedhoff,  
 J. Gayvert,  Qinghui Ge,  G. Gidofalvi,  M. Goldey,  J. Gomes,  
 C. Gonzalez-Espinoza,  S. Gulania,  A. Gunina,  M. W. D. Hanson-Heine,  
 P. H. P. Harbach,  A. W. Hauser,  M. F. Herbst,  M. Hernandez Vera,  
 M. Hodecker,  Z. C. Holden,  S. Houck,  Xunkun Huang,  Kerwin Hui,  
 B. C. Huynh,  M. Ivanov,  Hyunjun Ji,  Hanjie Jiang,  B. Kaduk,  S. Kaehler,  
 K. Khistyaev,  Jaehoon Kim,  P. Klunzinger,  Z. Koczor-Benda,  
 Joong Hoon Koh,  D. Kosenkov,  L. Koulias,  T. Kowalczyk,  C. M. Krauter,  
 K. Kue,  A. Kunitsa,  T. Kus,  A. Landau,  K. V. Lawler,  D. Lefrancois,  
 S. Lehtola,  Rain Li,  Yi-Pei Li,  Jiashu Liang,  M. Liebenthal,  
 Hung-Hsuan Lin,  You-Sheng Lin,  Fenglai Liu,  Kuan-Yu Liu,  
 M. Loipersberger,  A. Luenser,  A. Manjanath,  P. Manohar,  E. Mansoor,  
 S. F. Manzer,  Shan-Ping Mao,  A. V. Marenich,  T. Markovich,  S. Mason,  
 S. A. Maurer,  P. F. McLaughlin,  M. F. S. J. Menger,  J.-M. Mewes,  
 S. A. Mewes,  P. Morgante,  J. W. Mullinax,  K. J. Oosterbaan,  G. Paran,  
 Alexander C. Paul,  Suranjan K. Paul,  F. Pavosevic,  Zheng Pei,  S. Prager,  
 E. I. Proynov,  E. Ramos,  B. Rana,  A. E. Rask,  A. Rettig,  R. M. Richard,  
 F. Rob,  E. Rossomme,  T. Scheele,  M. Scheurer,  M. Schneider,  
 N. Sergueev,  S. M. Sharada,  W. Skomorowski,  D. W. Small,  C. J. Stein,  
 Yu-Chuan Su,  E. J. Sundstrom,  Zhen Tao,  J. Thirman,  T. Tsuchimochi,  
 N. M. Tubman,  S. P. Veccham,  O. Vydrov,  J. Wenzel,  J. Witte,  A. Yamada,  
 Kun Yao,  S. Yeganeh,  S. R. Yost,  A. Zech,  Igor Ying Zhang,  Xing Zhang,  
 Yu Zhang,  D. Zuev,  A. Aspuru-Guzik,  A. T. Bell,  N. A. Besley,  
 K. B. Bravaya,  B. R. Brooks,  D. Casanova,  Jeng-Da Chai,  S. Coriani,  
 C. J. Cramer,  A. E. DePrince, III,  R. A. DiStasio Jr.,  A. Dreuw,  
 B. D. Dunietz,  T. R. Furlani,  W. A. Goddard III,  S. Grimme,  
 S. Hammes-Schiffer,  T. Head-Gordon,  W. J. Hehre,  Chao-Ping Hsu,  
 T.-C. Jagau,  Yousung Jung,  A. Klamt,  Jing Kong,  D. S. Lambrecht,  
 WanZhen Liang,  N. J. Mayhall,  C. W. McCurdy,  J. B. Neaton,  
 C. Ochsenfeld,  J. A. Parkhill,  R. Peverati,  V. A. Rassolov,  Yihan Shao,  
 L. V. Slipchenko,  T. Stauch,  R. P. Steele,  J. E. Subotnik,  
 A. J. W. Thom,  A. Tkatchenko,  D. G. Truhlar,  T. Van Voorhis,  
 T. A. Wesolowski,  K. B. Whaley,  H. L. Woodcock III,  P. M. Zimmerman,  
 S. Faraji,  P. M. W. Gill,  M. Head-Gordon,  J. M. Herbert,  A. I. Krylov

 Additional authors for Version 5.4.1: 
 S. Kotaru,  Shaozhi Li,  Xiangyuan Li,  F. Matz,  A. Molle,  Haisheng Ren,  
 Yingli Su,  Hung-Yi Tsai,  C. Utku,  Fang Wang

 Contributors to earlier versions of Q-Chem not listed above: 
 R. D. Adamson,  B. Austin,  R. Baer,  J. Baker,  G. J. O. Beran,  
 K. Brandhorst,  S. T. Brown,  E. F. C. Byrd,  A. K. Chakraborty,  
 G. K. L. Chan,  Chun-Min Chang,  Yunqing Chen,  C.-L. Cheng,  
 Siu Hung Chien,  D. M. Chipman,  D. L. Crittenden,  H. Dachsel,  
 R. J. Doerksen,  A. D. Dutoi,  R. G. Edgar,  J. Fosso-Tande,  
 L. Fusti-Molnar,  D. Ghosh,  A. Ghysels,  A. Golubeva-Zadorozhnaya,  
 J. Gonthier,  M. S. Gordon,  S. R. Gwaltney,  G. Hawkins,  J. E. Herr,  
 A. Heyden,  S. Hirata,  E. G. Hohenstein,  G. Kedziora,  F. J. Keil,  
 C. Kelley,  Jihan Kim,  R. A. King,  R. Z. Khaliullin,  P. P. Korambath,  
 W. Kurlancheek,  A. Laurent,  A. M. Lee,  M. S. Lee,  S. V. Levchenko,  
 Ching Yeh Lin,  D. Liotard,  E. Livshits,  R. C. Lochan,  I. Lotan,  
 L. A. Martinez-Martinez,  P. E. Maslen,  N. Nair,  D. P. O'Neill,  
 D. Neuhauser,  E. Neuscamman,  C. M. Oana,  R. Olivares-Amaya,  R. Olson,  
 T. M. Perrine,  B. Peters,  P. A. Pieniazek,  A. Prociuk,  Y. M. Rhee,  
 J. Ritchie,  M. A. Rohrdanz,  E. Rosta,  N. J. Russ,  H. F. Schaefer III,  
 M. W. Schmidt,  N. E. Schultz,  S. Sharma,  N. Shenvi,  C. D. Sherrill,  
 A. C. Simmonett,  A. Sodt,  T. Stein,  D. Stuck,  K. S. Thanthiriwatte,  
 V. Vanovschi,  L. Vogt,  Tao Wang,  A. Warshel,  M. A. Watson,  
 C. F. Williams,  Q. Wu,  X. Xu,  Jun Yang,  W. Zhang,  Yan Zhao

 Please cite Q-Chem as follows:
 Y. Shao et al., Mol. Phys. 113, 184-215 (2015)
 DOI: 10.1080/00268976.2014.952696

 Q-Chem 5.4.1 for Intel X86 EM64T Linux

 Parts of Q-Chem use Armadillo 9.900.5 (Nocturnal Misbehaviour).
 http://arma.sourceforge.net/

 Q-Chem begins on Sat Mar 26 08:38:43 2022  

 Host: node01
0

     Scratch files written to /src/jdavis/qchem.scratch/qchem17364//
 Processing $rem in /src/tsommerfeld/qchem/config/preferences:
 Processing $rem in /home/jdavis/.qchemrc:

 Checking the input file for inconsistencies... 	...done.

--------------------------------------------------------------
User input:
--------------------------------------------------------------
$molecule
-1 1
C         0.0000003663    0.4438502432    0.6645000000
C         0.0000003663    0.4438502432   -0.6645000000
H        -0.9623486337    0.4438522630    1.1590800000
H        -0.9623486337    0.4438522630   -1.1590800000
H         0.9623483663    0.4438482235    1.1590800000
H         0.9623483663    0.4438482235   -1.1590800000
H        -0.0000038605   -10.4438482235    0.0000000000
$end

$rem
   METHOD adc(2)
   BASIS gen
   PURECART 11
   EE_STATES [0,0,0,10]
   scf_convergence 8
   ADC_DAVIDSON_MAXITER 120
   ADC_DAVIDSON_MAXSUBSPACE 200
   adc_nguess_singles 100
   THRESH 14
   S2THRESH 14
   adc_davidson_conv 5
   adc_davidson_thresh 14
   THREADS 10
   MEM_TOTAL 95000
   STATE_ANALYSIS TRUE
$end
$basis
C 1
S   9   1.00
      6.665000D+03           6.920000D-04
      1.000000D+03           5.329000D-03
      2.280000D+02           2.707700D-02
      6.471000D+01           1.017180D-01
      2.106000D+01           2.747400D-01
      7.495000D+00           4.485640D-01
      2.797000D+00           2.850740D-01
      5.215000D-01           1.520400D-02
      1.596000D-01          -3.191000D-03
S   9   1.00
      6.665000D+03          -1.460000D-04
      1.000000D+03          -1.154000D-03
      2.280000D+02          -5.725000D-03
      6.471000D+01          -2.331200D-02
      2.106000D+01          -6.395500D-02
      7.495000D+00          -1.499810D-01
      2.797000D+00          -1.272620D-01
      5.215000D-01           5.445290D-01
      1.596000D-01           5.804960D-01
S   1   1.00
      1.596000D-01           1.000000D+00
S   1   1.00
      0.0469000              1.0000000
P   4   1.00
      9.439000D+00           3.810900D-02
      2.002000D+00           2.094800D-01
      5.456000D-01           5.085570D-01
      1.517000D-01           4.688420D-01
P   1   1.00
      1.517000D-01           1.000000D+00
P   1   1.00
      0.0876489      1.0000000
P   1   1.00
      0.0438244      1.0000000
D   1   1.00
      5.500000D-01           1.0000000
****
C 2
S   9   1.00
      6.665000D+03           6.920000D-04
      1.000000D+03           5.329000D-03
      2.280000D+02           2.707700D-02
      6.471000D+01           1.017180D-01
      2.106000D+01           2.747400D-01
      7.495000D+00           4.485640D-01
      2.797000D+00           2.850740D-01
      5.215000D-01           1.520400D-02
      1.596000D-01          -3.191000D-03
S   9   1.00
      6.665000D+03          -1.460000D-04
      1.000000D+03          -1.154000D-03
      2.280000D+02          -5.725000D-03
      6.471000D+01          -2.331200D-02
      2.106000D+01          -6.395500D-02
      7.495000D+00          -1.499810D-01
      2.797000D+00          -1.272620D-01
      5.215000D-01           5.445290D-01
      1.596000D-01           5.804960D-01
S   1   1.00
      1.596000D-01           1.000000D+00
S   1   1.00
      0.0469000              1.0000000
P   4   1.00
      9.439000D+00           3.810900D-02
      2.002000D+00           2.094800D-01
      5.456000D-01           5.085570D-01
      1.517000D-01           4.688420D-01
P   1   1.00
      1.517000D-01           1.000000D+00
P   1   1.00
      0.0876489      1.0000000
P   1   1.00
      0.0438244      1.0000000
D   1   1.00
      5.500000D-01           1.0000000
****
H 3
cc-pVDZ
****
H 4
cc-pVDZ
****
H 5
cc-pVDZ
****
H 6
cc-pVDZ
****
H 7
aug-cc-pVDZ
****
$end
--------------------------------------------------------------
 Atom   2: (  0.6645000000,  0.0000001629, -0.6404528510)
         ->(  0.6645000000, -0.0000001629, -0.6404528510)
 Atom   1: ( -0.6645000000,  0.0000001629, -0.6404528510)
         ->( -0.6645000000,  0.0000000000, -0.6404528510)
 Atom   6: (  1.1590800000,  0.9623481629, -0.6404511369)
         ->(  1.1590800000,  0.9623488371, -0.6404545651)
 Atom   5: ( -1.1590800000,  0.9623481629, -0.6404511369)
         ->( -1.1590800000,  0.9623488371, -0.6404545651)
 Atom   7: ( -0.0000000000, -0.0000006060, 10.2472456157)
         ->(  0.0000000000,  0.0000000000, 10.2472456157)
 ----------------------------------------------------------------
             Standard Nuclear Orientation (Angstroms)
    I     Atom           X                Y                Z
 ----------------------------------------------------------------
    1      C      -0.6645000000     0.0000000000    -0.6404528510
    2      C       0.6645000000    -0.0000001629    -0.6404528510
    3      H      -1.1590800000    -0.9623488371    -0.6404545651
    4      H       1.1590800000    -0.9623488371    -0.6404545651
    5      H      -1.1590800000     0.9623488371    -0.6404545651
    6      H       1.1590800000     0.9623488371    -0.6404545651
    7      H       0.0000000000     0.0000000000    10.2472456157
 ----------------------------------------------------------------
 Molecular Point Group                 C2v   NOp =  4
 Largest Abelian Subgroup              C2v   NOp =  4
 Nuclear Repulsion Energy =          34.36395017 hartrees
 There are        9 alpha and        9 beta electrons
 Requested basis set is non-standard
 There are 33 shells and 67 basis functions
 Total memory of 95000 MB is distributed as follows: 
   MEM_STATIC is set to 192 MB
   QALLOC/CCMAN JOB total memory use is  94808 MB
 Warning: actual memory use might exceed 95000 MB

 Total QAlloc Memory Limit  95000 MB
 Mega-Array Size       188 MB
 MEM_STATIC part       192 MB

                       Distance Matrix (Angstroms)
             C (  1)   C (  2)   H (  3)   H (  4)   H (  5)   H (  6)
   C (  2)  1.329000
   H (  3)  1.082000  2.061931
   H (  4)  2.061931  1.082000  2.318160
   H (  5)  1.082000  2.061931  1.924698  3.013026
   H (  6)  2.061931  1.082000  3.013026  1.924698  2.318160
   H (  7) 10.907958 10.907958 10.991433 10.991433 10.991433 10.991433

 
 A cutoff of  1.0D-14 yielded    489 shell pairs
 There are      2077 function pairs (      2214 Cartesian)
 Smallest overlap matrix eigenvalue = 2.07E-04

 Scale SEOQF with 1.000000e-01/1.000000e-01/1.000000e-02

 Standard Electronic Orientation quadrupole field applied
 Nucleus-field energy     =    -0.0000000005 hartrees
 ================ Generating on-the-fly SAD Guess ================
Attempting to make child job directory: /src/jdavis/qchem.scratch/qchem17364//Frg1/
Attempting to make child job directory: /src/jdavis/qchem.scratch/qchem17364//Frg2/
Creating input file /src/jdavis/qchem.scratch/qchem17364/Frg1.input
using default PutDataFrgm: nothing
calling putenv with: QCSCRATCH=/src/jdavis/qchem.scratch/qchem17364/ 
Spawning Job For Fragment 0
Done Job For Fragment 0
calling putenv with: QCSCRATCH=/src/jdavis/qchem.scratch 
calling putenv with: QCTHREADS=1 
Creating input file /src/jdavis/qchem.scratch/qchem17364/Frg2.input
using default PutDataFrgm: nothing
calling putenv with: QCSCRATCH=/src/jdavis/qchem.scratch/qchem17364/ 
Spawning Job For Fragment 1
Done Job For Fragment 1
calling putenv with: QCSCRATCH=/src/jdavis/qchem.scratch 
calling putenv with: QCTHREADS=1 
 Time for running child jobs:  CPU 1.76 s  wall 54.32 s
 ============= Method Specific SAD Guess Constructed =============
 Guess from on-the-fly superposition of atomic densities
 Warning: Energy on first SCF cycle will be non-variational
 A restricted Hartree-Fock SCF calculation will be
 performed using Pulay DIIS extrapolation
 SCF converges when DIIS error is below 1.0E-08
 using 10 threads for integral computing
 -------------------------------------------------------
 OpenMP Integral computing Module                
 Release: version 1.0, May 2013, Q-Chem Inc. Pittsburgh 
 -------------------------------------------------------
 ---------------------------------------
  Cycle       Energy         DIIS Error
 ---------------------------------------
    1     -78.8018621883      7.36E-02
    2     -78.4460832468      6.48E-03
    3     -78.4840043800      1.48E-03
    4     -78.4859317624      4.79E-04
    5     -78.4861017366      7.16E-05
    6     -78.4861090222      1.20E-05
    7     -78.4861094104      3.33E-06
    8     -78.4861094969      3.04E-07
    9     -78.4861095048      6.95E-08
   10     -78.4861095063      1.21E-08
   11     -78.4861095064      1.90E-09 Convergence criterion met
 ---------------------------------------
 SCF time:  CPU 9.92 s  wall 1.00 s
 SCF   energy in the final basis set = -78.48610951
 Total energy in the final basis set = -78.48610951
================================================================================
|                                                                              |
|                                 A D C  M A N                                 |
|                                                                              |
 ------------------------------------------------------------------------------ 
|                                                                              |
| Components:                                                                  |
|                                                                              |
| - libvmm - 1.3-trunk                                                         |
|   Authors:                                                                   |
|   Evgeny Epifanovsky, Ilya Kaliman                                           |
|                                                                              |
| - libtensor - 2.5-trunk                                                      |
|   Authors:                                                                   |
|   Evgeny Epifanovsky, Michael Wormit, Dmitry Zuev, Sam Manzer,               |
|   Ilya Kaliman                                                               |
|                                                                              |
| - libwfa - 1.1-trunk                                                         |
|   Authors:                                                                   |
|   Felix Plasser, Stefanie Mewes (Baeppler), Benjamin Thomitzni,              |
|   Michael Wormit, Feng Chen, Anna I. Krylov, Pavel Pokhilko                  |
|                                                                              |
| - libadc - 1.1-trunk                                                         |
|   Authors:                                                                   |
|   Michael Wormit, Adrian L. Dempwolff, Philipp H. P. Harbach,                |
|   Caroline Krauter, Dirk Rehn, Matthias Schneider, Jan Wenzel                |
|                                                                              |
| - adcman - 2.6-trunk                                                         |
|   Authors:                                                                   |
|   Michael Wormit, Adrian L. Dempwolff, Philipp H. P. Harbach,                |
|   Caroline Krauter, Daniel Lefrancois, Jan-Michael Mewes, Dirk Rehn,         |
|   Matthias Schneider, Jan Wenzel, Andreas Dreuw                              |
|                                                                              |
| Authors of earlier versions of ADCMAN:                                       |
| Andreas Dreuw, Jan Hendrik Starcke, Dirk Rehn, Michael Wormit                |
|                                                                              |
================================================================================

 
 Alpha MOs, Restricted
 -- Occupied --                  
-11.189 -11.187  -0.993  -0.733  -0.612  -0.519  -0.467  -0.328
  1 A1    1 B1    2 A1    2 B1    1 B2    3 A1    1 A2    4 A1                 
  0.022
  5 A1                                                                         
 -- Virtual --                   
  0.125   0.137   0.138   0.151   0.154   0.172   0.194   0.242
  3 B1    6 A1    2 B2    4 B1    7 A1    2 A2    8 A1    5 B1                 
  0.265   0.311   0.371   0.379   0.411   0.416   0.417   0.434
  6 B1    9 A1    3 B2    7 B1    8 B1   10 A1    4 B2   11 A1                 
  0.448   0.518   0.593   0.667   0.887   0.897   0.981   1.028
  3 A2    9 B1    4 A2   10 B1   12 A1    5 B2   11 B1   13 A1                 
  1.058   1.073   1.126   1.141   1.163   1.195   1.210   1.256
 14 A1    5 A2   15 A1    6 B2    7 B2   12 B1   16 A1   13 B1                 
  1.333   1.343   1.360   1.521   1.673   1.769   1.785   1.927
  6 A2   17 A1   14 B1    7 A2   18 A1    8 A2    8 B2   15 B1                 
  1.968   1.968   1.968   1.993   2.015   2.066   2.132   2.149
 16 B1    9 B2   19 A1   20 A1   17 B1   10 B2   21 A1   11 B2                 
  2.232   2.383   2.461   2.525   2.610   2.629   2.904   2.904
 18 B1   19 B1    9 A2   22 A1   10 A2   20 B1   12 B2   23 A1                 
  3.324   3.395
 21 B1   11 A2                                                                 
 
 Beta MOs, Restricted
 -- Occupied --                  
-11.189 -11.187  -0.993  -0.733  -0.612  -0.519  -0.467  -0.328
  1 A1    1 B1    2 A1    2 B1    1 B2    3 A1    1 A2    4 A1                 
  0.022
  5 A1                                                                         
 -- Virtual --                   
  0.125   0.137   0.138   0.151   0.154   0.172   0.194   0.242
  3 B1    6 A1    2 B2    4 B1    7 A1    2 A2    8 A1    5 B1                 
  0.265   0.311   0.371   0.379   0.411   0.416   0.417   0.434
  6 B1    9 A1    3 B2    7 B1    8 B1   10 A1    4 B2   11 A1                 
  0.448   0.518   0.593   0.667   0.887   0.897   0.981   1.028
  3 A2    9 B1    4 A2   10 B1   12 A1    5 B2   11 B1   13 A1                 
  1.058   1.073   1.126   1.141   1.163   1.195   1.210   1.256
 14 A1    5 A2   15 A1    6 B2    7 B2   12 B1   16 A1   13 B1                 
  1.333   1.343   1.360   1.521   1.673   1.769   1.785   1.927
  6 A2   17 A1   14 B1    7 A2   18 A1    8 A2    8 B2   15 B1                 
  1.968   1.968   1.968   1.993   2.015   2.066   2.132   2.149
 16 B1    9 B2   19 A1   20 A1   17 B1   10 B2   21 A1   11 B2                 
  2.232   2.383   2.461   2.525   2.610   2.629   2.904   2.904
 18 B1   19 B1    9 A2   22 A1   10 A2   20 B1   12 B2   23 A1                 
  3.324   3.395
 21 B1   11 A2                                                                 

--------------------------------------------------------------------------------
                                   HF Summary                                   
--------------------------------------------------------------------------------
  Energy:                                                  -78.4861095064 a.u.
  Dip. moment [a.u.]:                  [   0.000000,    0.000001,  -19.319685]
  Total dipole [Debye]:                                              49.105751
  <r^2> [a.u.]:                        [  50.660198,   25.065662,  788.450648]
  Total <r^2> [a.u.]:                                               864.176508
--------------------------------------------------------------------------------

--------------------------------------------------------------------------------
                                 MP(2) Summary                                  
--------------------------------------------------------------------------------
  MP energy contribution:                                   -0.2996411887 a.u.
  Total energy:                                            -78.7857506951 a.u.
  Dip. moment [a.u.]:                  [   0.000000,    0.000002,  -19.321110]
  Total dipole [Debye]:                                              49.109371
  <r^2> [a.u.]:                        [  50.724318,   25.052640,  788.255106]
  Total <r^2> [a.u.]:                                               864.032064

  Density matrix analysis:
  ------------------------
  NOs
    Occupation of frontier NOs:
       0.0448   1.9370
    Number of electrons: 18.000000
    Number of unpaired electrons: n_u =  0.43265, n_u,nl =  0.04687
    NO participation ratio (PR_NO): 15.328185
  
  
  Mulliken Population Analysis
  Atom      Charge (e)              h+              e-           Del q
  --------------------------------------------------------------------
   1 C       -0.222594        0.087110       -0.102566       -0.015456
   2 C       -0.222594        0.087110       -0.102566       -0.015456
   3 H        0.111290        0.018275       -0.010547        0.007728
   4 H        0.111313        0.018275       -0.010547        0.007728
   5 H        0.111304        0.018274       -0.010547        0.007727
   6 H        0.111281        0.018274       -0.010547        0.007728
   7 H       -1.000000        0.021953       -0.021953        0.000000
  --------------------------------------------------------------------
  Sum:       -1.000000        0.269271       -0.269271       -0.000000
  
  Multipole moment analysis of the density matrix
    Molecular charge:                      -1.000000
    Number of electrons:                   18.000000
      Center of electronic charge [Ang]: [ -0.000000,  -0.000000,   0.568016]
    Total nuclear charge:                  17.000000
      Center of nuclear charge [Ang]:    [  0.000000,  -0.000000,  -0.000000]
    Dipole moment [D]:                     49.109357
      Cartesian components [D]:          [  0.000000,   0.000004, -49.109357]
    RMS size of the density [Ang]:         3.622047
      Cartesian components [Ang]:        [  0.888327,   0.624298,   3.455482]
  
  Exciton analysis of the difference density matrix
    <r_h> [Ang]:                  [  0.000000,   0.000000,   0.241656]
    <r_e> [Ang]:                  [  0.000000,  -0.000001,   0.244455]
    |<r_e - r_h>| [Ang]:            0.002799
    Hole size [Ang]:                3.300570
      Cartesian components [Ang]: [  0.951167,   0.731886,   3.074636]
    Electron size [Ang]:            3.277528
      Cartesian components [Ang]: [  0.985596,   0.722576,   3.041163]
--------------------------------------------------------------------------------
  Starting Davidson for singlet states of irrep B2 ... 
--------------------------------------------------------------------------------
   It NVec Conv  Avg. Norm  Max. Norm  Conv. states           Remark
--------------------------------------------------------------------------------
       100    0  1.097e-01  4.544e-01  0.0855 n n n n n n n n Guess.
    1  110    0  6.441e-03  3.105e-02  0.0595 n n n n n n n n 
    2  120    0  1.307e-03  9.672e-03  0.0595 n n n n n n n n 
    3  130    4  7.449e-03  7.448e-02  0.0595 y y y y n n n n 
    4  140    6  1.229e-03  1.228e-02  0.0595 y y y y y n n y 
    5  150    8  1.483e-04  1.483e-03  0.0595 y y y y y y y y 
    6  160    9  1.142e-05  1.142e-04  0.0595 y y y y y y y y 
    7  170   10  6.475e-07  6.475e-06  0.0595 y y y y y y y y Converged.
--------------------------------------------------------------------------------
  Davidson Summary: 
 ------------------------------------------------------------
  State  0: excitation energy =   0.0595 a.u.   (converged)
  State  1: excitation energy =   0.2604 a.u.   (converged)
  State  2: excitation energy =   0.2970 a.u.   (converged)
  State  3: excitation energy =   0.3295 a.u.   (converged)
  State  4: excitation energy =   0.3332 a.u.   (converged)
  State  5: excitation energy =   0.3938 a.u.   (converged)
  State  6: excitation energy =   0.4357 a.u.   (converged)
  State  7: excitation energy =   0.4509 a.u.   (converged)
  State  8: excitation energy =   0.4776 a.u.   (converged)
  State  9: excitation energy =   0.5132 a.u.   (converged)
 ------------------------------------------------------------


--------------------------------------------------------------------------------
                   State-averaged natural transition orbitals
--------------------------------------------------------------------------------
--------------------------------------------------------------------------------

--------------------------------------------------------------------------------
                             Excited State Summary
--------------------------------------------------------------------------------
--------------------------------------------------------------------------------

  Excited state 1 (singlet, B2)                                    [converged]
  ----------------------------------------------------------------------------
  Term symbol:  1 (1) B2                                    R^2 =  3.72902e-15

  Total energy:                                            -78.7262372940 a.u.
  Excitation energy:                                               1.619442 eV

  Osc. strength:                                                      0.000000
  Trans. dip. moment [a.u.]:           [  -0.000000,   -0.000027,    0.000000]
  <i|r^2|0> [a.u.]:                    [   0.000000,    0.000000,   -0.000000]

  Dip. moment [a.u.]:                  [  -0.000000,    0.000003,    1.221971]
  Total dipole [Debye]:                                               3.105940
  <r^2> [a.u.]:                        [  59.010530,   49.505365,  421.635743]
  Total <r^2> [a.u.]:                                               530.151637

  V1^2 = 0.9770, V2^2 = 0.0230

  Important amplitudes:
      occ i      occ j       vir a       vir b          v   
    ---------------------------------------------------------
     5 (A1) A               2 (B2) A                  0.6978
     5 (A1) A   5 (A1) B   14 (A1) A    2 (B2) B     -0.0435
    ---------------------------------------------------------

  Density matrix analysis:
  ------------------------
  NOs
    Occupation of frontier NOs:
       0.9939   1.0019
    Number of electrons: 18.000000
    Number of unpaired electrons: n_u =  2.41721, n_u,nl =  2.04937
    NO participation ratio (PR_NO):  2.925857
  
  
  Mulliken Population Analysis
  Atom      Charge (e)              h+              e-           Del q
  --------------------------------------------------------------------
   1 C       -0.683603        0.023172       -0.484180       -0.461008
   2 C       -0.683603        0.023172       -0.484180       -0.461008
   3 H        0.091794        0.004287       -0.023783       -0.019495
   4 H        0.091818        0.004287       -0.023783       -0.019496
   5 H        0.091808        0.004287       -0.023783       -0.019496
   6 H        0.091785        0.004287       -0.023783       -0.019496
   7 H        0.000000        1.020693       -0.020693        1.000000
  --------------------------------------------------------------------
  Sum:       -1.000000        1.084185       -1.084185        0.000000
  
  Multipole moment analysis of the density matrix
    Molecular charge:                      -1.000000
    Number of electrons:                   18.000000
      Center of electronic charge [Ang]: [  0.000000,  -0.000000,  -0.035925]
    Total nuclear charge:                  17.000000
      Center of nuclear charge [Ang]:    [  0.000000,  -0.000000,  -0.000000]
    Dipole moment [D]:                     3.105939
      Cartesian components [D]:          [ -0.000000,   0.000007,   3.105939]
    RMS size of the density [Ang]:         2.871646
      Cartesian components [Ang]:        [  0.958141,   0.877589,   2.560890]
  
  Exciton analysis of the difference density matrix
    <r_h> [Ang]:                  [  0.000000,   0.000000,   9.612794]
    <r_e> [Ang]:                  [  0.000000,  -0.000001,  -0.414025]
    |<r_e - r_h>| [Ang]:           10.026818
    Hole size [Ang]:                2.832003
      Cartesian components [Ang]: [  0.731174,   0.715452,   2.640787]
    Electron size [Ang]:            3.744117
      Cartesian components [Ang]: [  1.635487,   2.612975,   2.125078]

  Transition density matrix analysis:
  -----------------------------------
  
  CT numbers (Mulliken)
    omega =     0.9704
    <Phe> =    -0.0000
  
  Exciton analysis of the transition density matrix
    Trans. dipole moment [D]:             0.000034
      Cartesian components [D]:         [ -0.000000,  -0.000034,   0.000000]
    <r_h> [Ang]:                        [ -0.000000,   0.000000,  10.247019]
    <r_e> [Ang]:                        [  0.000000,  -0.000001,  -0.640226]
    |<r_e - r_h>| [Ang]:                 10.887245
    Hole size [Ang]:                      1.111120
      Cartesian components [Ang]:       [  0.640880,   0.640878,   0.642756]
    Electron size [Ang]:                  3.534410
      Cartesian components [Ang]:       [  1.654334,   2.712460,   1.548481]
    RMS electron-hole separation [Ang]:  11.500589
      Cartesian components [Ang]:       [  1.774128,   2.787140,  11.015801]
    Covariance(r_h, r_e) [Ang^2]:        -0.002405
    Correlation coefficient:             -0.000612
    Center-of-mass size [Ang]:            1.852150
      Cartesian components [Ang]:       [  0.887069,   1.393573,   0.837569]

  Decomposition into state-averaged NTOs
    H- 0 -> L+ 0: -0.6855 ( 94.0%)
    H- 0 -> L+ 1: -0.0965 (  1.9%)
    H- 0 -> L+ 2: -0.0768 (  1.2%)
                   omega =  97.0%
  ----------------------------------------------------------------------------


  Excited state 2 (singlet, B2)                                    [converged]
  ----------------------------------------------------------------------------
  Term symbol:  2 (1) B2                                    R^2 =  5.88511e-14

  Total energy:                                            -78.5253260116 a.u.
  Excitation energy:                                               7.086516 eV

  Osc. strength:                                                      0.000000
  Trans. dip. moment [a.u.]:           [   0.000000,    0.000013,   -0.000000]
  <i|r^2|0> [a.u.]:                    [  -0.000000,   -0.000000,    0.000000]

  Dip. moment [a.u.]:                  [   0.000000,    0.000000,    1.228526]
  Total dipole [Debye]:                                               3.122602
  <r^2> [a.u.]:                        [  58.150628,   35.551485,  417.647832]
  Total <r^2> [a.u.]:                                               511.349945

  V1^2 = 0.9510, V2^2 = 0.0490

  Important amplitudes:
      occ i      occ j       vir a       vir b          v   
    ---------------------------------------------------------
     5 (A1) A               3 (B2) A                  0.6866
     5 (A1) A               2 (B2) A                 -0.0450
    ---------------------------------------------------------

  Density matrix analysis:
  ------------------------
  NOs
    Occupation of frontier NOs:
       0.9794   1.0011
    Number of electrons: 18.000000
    Number of unpaired electrons: n_u =  2.45030, n_u,nl =  2.06048
    NO participation ratio (PR_NO):  3.042931
  
  
  Mulliken Population Analysis
  Atom      Charge (e)              h+              e-           Del q
  --------------------------------------------------------------------
   1 C       -0.154675        0.098452       -0.030533        0.067920
   2 C       -0.154675        0.098452       -0.030533        0.067920
   3 H       -0.172668        0.012405       -0.296363       -0.283958
   4 H       -0.172647        0.012405       -0.296365       -0.283960
   5 H       -0.172657        0.012404       -0.296366       -0.283962
   6 H       -0.172679        0.012404       -0.296364       -0.283960
   7 H        0.000000        1.018311       -0.018311        1.000000
  --------------------------------------------------------------------
  Sum:       -1.000000        1.264834       -1.264834       -0.000000
  
  Multipole moment analysis of the density matrix
    Molecular charge:                      -1.000000
    Number of electrons:                   18.000000
      Center of electronic charge [Ang]: [ -0.000000,  -0.000000,  -0.036117]
    Total nuclear charge:                  17.000000
      Center of nuclear charge [Ang]:    [  0.000000,  -0.000000,  -0.000000]
    Dipole moment [D]:                     3.122601
      Cartesian components [D]:          [  0.000000,   0.000001,   3.122601]
    RMS size of the density [Ang]:         2.820255
      Cartesian components [Ang]:        [  0.951135,   0.743693,   2.548745]
  
  Exciton analysis of the difference density matrix
    <r_h> [Ang]:                  [ -0.000000,   0.000000,   8.126510]
    <r_e> [Ang]:                  [ -0.000000,   0.000000,  -0.470983]
    |<r_e - r_h>| [Ang]:            8.597493
    Hole size [Ang]:                4.491948
      Cartesian components [Ang]: [  0.773114,   0.719891,   4.365965]
    Electron size [Ang]:            2.813128
      Cartesian components [Ang]: [  1.497283,   1.686013,   1.682019]

  Transition density matrix analysis:
  -----------------------------------
  
  CT numbers (Mulliken)
    omega =     0.9414
    <Phe> =     0.0001
  
  Exciton analysis of the transition density matrix
    Trans. dipole moment [D]:             0.000016
      Cartesian components [D]:         [  0.000000,   0.000016,  -0.000000]
    <r_h> [Ang]:                        [  0.000000,   0.000000,  10.246215]
    <r_e> [Ang]:                        [  0.000000,   0.000001,  -0.639361]
    |<r_e - r_h>| [Ang]:                 10.885576
    Hole size [Ang]:                      1.114872
      Cartesian components [Ang]:       [  0.640792,   0.640784,   0.649401]
    Electron size [Ang]:                  2.598499
      Cartesian components [Ang]:       [  1.518425,   1.814063,   1.075060]
    RMS electron-hole separation [Ang]:  11.247808
      Cartesian components [Ang]:       [  1.648088,   1.923905,  10.958813]
    Covariance(r_h, r_e) [Ang^2]:        -0.011148
    Correlation coefficient:             -0.003848
    Center-of-mass size [Ang]:            1.411811
      Cartesian components [Ang]:       [  0.824055,   0.961957,   0.623524]

  Decomposition into state-averaged NTOs
    H- 0 -> L+ 1:  0.6688 ( 89.5%)
    H- 0 -> L+ 2:  0.1143 (  2.6%)
    H- 0 -> L+ 0: -0.0969 (  1.9%)
                   omega =  94.1%
  ----------------------------------------------------------------------------


  Excited state 3 (singlet, B2)                                    [converged]
  ----------------------------------------------------------------------------
  Term symbol:  3 (1) B2                                    R^2 =  4.82676e-11

  Total energy:                                            -78.4887901435 a.u.
  Excitation energy:                                               8.080708 eV

  Osc. strength:                                                      0.000053
  Trans. dip. moment [a.u.]:           [  -0.000002,    0.016351,   -0.000000]
  <i|r^2|0> [a.u.]:                    [   0.000000,    0.000000,   -0.000000]

  Dip. moment [a.u.]:                  [  -0.000000,    0.000003,  -19.337455]
  Total dipole [Debye]:                                              49.150916
  <r^2> [a.u.]:                        [  55.754277,   44.324302,  791.803925]
  Total <r^2> [a.u.]:                                               891.882503

  V1^2 = 0.9546, V2^2 = 0.0454

  Important amplitudes:
      occ i      occ j       vir a       vir b          v   
    ---------------------------------------------------------
     4 (A1) A               2 (B2) A                  0.6667
     4 (A1) A               3 (B2) A                  0.1552
    ---------------------------------------------------------

  Density matrix analysis:
  ------------------------
  NOs
    Occupation of frontier NOs:
       0.9877   0.9889
    Number of electrons: 18.000000
    Number of unpaired electrons: n_u =  2.32154, n_u,nl =  2.02661
    NO participation ratio (PR_NO):  2.749100
  
  
  Mulliken Population Analysis
  Atom      Charge (e)              h+              e-           Del q
  --------------------------------------------------------------------
   1 C       -0.291123        0.516222       -0.584750       -0.068528
   2 C       -0.291123        0.516222       -0.584750       -0.068528
   3 H        0.145554        0.084613       -0.050350        0.034264
   4 H        0.145577        0.084615       -0.050351        0.034264
   5 H        0.145569        0.084615       -0.050350        0.034265
   6 H        0.145546        0.084614       -0.050349        0.034265
   7 H       -1.000000        0.000084       -0.000084        0.000000
  --------------------------------------------------------------------
  Sum:       -1.000000        1.370985       -1.370985        0.000000
  
  Multipole moment analysis of the density matrix
    Molecular charge:                      -1.000000
    Number of electrons:                   18.000000
      Center of electronic charge [Ang]: [  0.000000,  -0.000000,   0.568496]
    Total nuclear charge:                  17.000000
      Center of nuclear charge [Ang]:    [  0.000000,  -0.000000,  -0.000000]
    Dipole moment [D]:                     49.150901
      Cartesian components [D]:          [ -0.000000,   0.000007, -49.150901]
    RMS size of the density [Ang]:         3.681298
      Cartesian components [Ang]:        [  0.931331,   0.830397,   3.463382]
  
  Exciton analysis of the difference density matrix
    <r_h> [Ang]:                  [ -0.000000,  -0.000000,  -0.647286]
    <r_e> [Ang]:                  [ -0.000000,  -0.000001,  -0.640977]
    |<r_e - r_h>| [Ang]:            0.006309
    Hole size [Ang]:                1.551233
      Cartesian components [Ang]: [  1.010842,   0.795908,   0.866634]
    Electron size [Ang]:            2.846577
      Cartesian components [Ang]: [  1.431498,   2.137703,   1.218212]

  Transition density matrix analysis:
  -----------------------------------
  
  CT numbers (Mulliken)
    omega =     0.9230
    <Phe> =    -0.0035
  
  Exciton analysis of the transition density matrix
    Trans. dipole moment [D]:             0.020781
      Cartesian components [D]:         [ -0.000002,   0.020781,  -0.000000]
    <r_h> [Ang]:                        [  0.000000,  -0.000000,  -0.647121]
    <r_e> [Ang]:                        [  0.000000,  -0.000001,  -0.640585]
    |<r_e - r_h>| [Ang]:                  0.006536
    Hole size [Ang]:                      1.253968
      Cartesian components [Ang]:       [  0.757293,   0.510879,   0.859037]
    Electron size [Ang]:                  3.228509
      Cartesian components [Ang]:       [  1.570093,   2.459713,   1.381265]
    RMS electron-hole separation [Ang]:   3.460464
      Cartesian components [Ang]:       [  1.738503,   2.511369,   1.626482]
    Covariance(r_h, r_e) [Ang^2]:         0.010470
    Correlation coefficient:              0.002586
    Center-of-mass size [Ang]:            1.733252
      Cartesian components [Ang]:       [  0.873924,   1.256523,   0.813369]

  Decomposition into state-averaged NTOs
    H- 2 -> L+ 0:  0.6774 ( 91.8%)
                   omega =  92.3%
  ----------------------------------------------------------------------------


  Excited state 4 (singlet, B2)                                    [converged]
  ----------------------------------------------------------------------------
  Term symbol:  4 (1) B2                                    R^2 =  1.95075e-14

  Total energy:                                            -78.4562845336 a.u.
  Excitation energy:                                               8.965230 eV

  Osc. strength:                                                      0.000000
  Trans. dip. moment [a.u.]:           [   0.000000,    0.000005,    0.000000]
  <i|r^2|0> [a.u.]:                    [   0.000000,    0.000000,   -0.000000]

  Dip. moment [a.u.]:                  [  -0.000000,   -0.000010,    1.224738]
  Total dipole [Debye]:                                               3.112975
  <r^2> [a.u.]:                        [  54.653952,   37.360390,  419.149031]
  Total <r^2> [a.u.]:                                               511.163374

  V1^2 = 0.9704, V2^2 = 0.0296

  Important amplitudes:
      occ i      occ j       vir a       vir b          v   
    ---------------------------------------------------------
     5 (A1) A               4 (B2) A                 -0.6960
     5 (A1) A   5 (A1) B   14 (A1) A    4 (B2) B      0.0430
    ---------------------------------------------------------

  Density matrix analysis:
  ------------------------
  NOs
    Occupation of frontier NOs:
       0.9901   1.0017
    Number of electrons: 18.000000
    Number of unpaired electrons: n_u =  2.42641, n_u,nl =  2.05086
    NO participation ratio (PR_NO):  2.958189
  
  
  Mulliken Population Analysis
  Atom      Charge (e)              h+              e-           Del q
  --------------------------------------------------------------------
   1 C       -1.088440        0.068140       -0.933987       -0.865846
   2 C       -1.088440        0.068140       -0.933987       -0.865846
   3 H        0.294212        0.005882        0.177040        0.182922
   4 H        0.294239        0.005882        0.177044        0.182926
   5 H        0.294228        0.005882        0.177042        0.182924
   6 H        0.294201        0.005882        0.177039        0.182920
   7 H        0.000000        1.020060       -0.020060        1.000000
  --------------------------------------------------------------------
  Sum:       -1.000000        1.179868       -1.179868        0.000000
  
  Multipole moment analysis of the density matrix
    Molecular charge:                      -1.000000
    Number of electrons:                   18.000000
      Center of electronic charge [Ang]: [  0.000000,   0.000000,  -0.036006]
    Total nuclear charge:                  17.000000
      Center of nuclear charge [Ang]:    [  0.000000,  -0.000000,  -0.000000]
    Dipole moment [D]:                     3.112974
      Cartesian components [D]:          [ -0.000000,  -0.000025,   3.112974]
    RMS size of the density [Ang]:         2.819742
      Cartesian components [Ang]:        [  0.922095,   0.762378,   2.553324]
  
  Exciton analysis of the difference density matrix
    <r_h> [Ang]:                  [ -0.000000,  -0.000000,   8.774589]
    <r_e> [Ang]:                  [  0.000000,   0.000005,  -0.440335]
    |<r_e - r_h>| [Ang]:            9.214924
    Hole size [Ang]:                3.933179
      Cartesian components [Ang]: [  0.767135,   0.728849,   3.788163]
    Electron size [Ang]:            2.918899
      Cartesian components [Ang]: [  1.233349,   1.858044,   1.883213]

  Transition density matrix analysis:
  -----------------------------------
  
  CT numbers (Mulliken)
    omega =     0.9634
    <Phe> =    -0.0000
  
  Exciton analysis of the transition density matrix
    Trans. dipole moment [D]:             0.000006
      Cartesian components [D]:         [  0.000000,   0.000006,   0.000000]
    <r_h> [Ang]:                        [ -0.000000,   0.000000,  10.247136]
    <r_e> [Ang]:                        [  0.000000,   0.000006,  -0.640346]
    |<r_e - r_h>| [Ang]:                 10.887482
    Hole size [Ang]:                      1.110487
      Cartesian components [Ang]:       [  0.640846,   0.640845,   0.641728]
    Electron size [Ang]:                  2.622890
      Cartesian components [Ang]:       [  1.166602,   1.968898,   1.281419]
    RMS electron-hole separation [Ang]:  11.253988
      Cartesian components [Ang]:       [  1.331026,   2.070562,  10.981502]
    Covariance(r_h, r_e) [Ang^2]:        -0.001126
    Correlation coefficient:             -0.000387
    Center-of-mass size [Ang]:            1.423945
      Cartesian components [Ang]:       [  0.665517,   1.035284,   0.716166]

  Decomposition into state-averaged NTOs
    H- 0 -> L+ 2: -0.6803 ( 92.6%)
    H- 0 -> L+ 1:  0.1256 (  3.2%)
                   omega =  96.3%
  ----------------------------------------------------------------------------


  Excited state 5 (singlet, B2)                                    [converged]
  ----------------------------------------------------------------------------
  Term symbol:  5 (1) B2                                    R^2 =  4.09328e-10

  Total energy:                                            -78.4525770371 a.u.
  Excitation energy:                                               9.066116 eV

  Osc. strength:                                                      0.000029
  Trans. dip. moment [a.u.]:           [  -0.000001,   -0.011414,   -0.000000]
  <i|r^2|0> [a.u.]:                    [  -0.000000,   -0.000000,   -0.000001]

  Dip. moment [a.u.]:                  [   0.000000,    0.000001,  -19.256745]
  Total dipole [Debye]:                                              48.945772
  <r^2> [a.u.]:                        [  51.562360,   23.657431,  791.667280]
  Total <r^2> [a.u.]:                                               866.887072

  V1^2 = 0.9523, V2^2 = 0.0477

  Important amplitudes:
      occ i      occ j       vir a       vir b          v   
    ---------------------------------------------------------
     1 (A2) A               4 (B1) A                 -0.5134
     1 (A2) A               5 (B1) A                  0.4317
    ---------------------------------------------------------

  Density matrix analysis:
  ------------------------
  NOs
    Occupation of frontier NOs:
       0.9950   1.0157
    Number of electrons: 18.000000
    Number of unpaired electrons: n_u =  2.39592, n_u,nl =  2.04426
    NO participation ratio (PR_NO):  2.913099
  
  
  Mulliken Population Analysis
  Atom      Charge (e)              h+              e-           Del q
  --------------------------------------------------------------------
   1 C       -0.451542        0.284700       -0.513648       -0.228948
   2 C       -0.451542        0.284700       -0.513648       -0.228948
   3 H        0.225762        0.121775       -0.007303        0.114472
   4 H        0.225786        0.121775       -0.007303        0.114473
   5 H        0.225780        0.121777       -0.007302        0.114476
   6 H        0.225756        0.121777       -0.007302        0.114475
   7 H       -1.000000        0.000022       -0.000022       -0.000000
  --------------------------------------------------------------------
  Sum:       -1.000000        1.056527       -1.056527       -0.000000
  
  Multipole moment analysis of the density matrix
    Molecular charge:                      -1.000000
    Number of electrons:                   18.000000
      Center of electronic charge [Ang]: [ -0.000000,  -0.000000,   0.566124]
    Total nuclear charge:                  17.000000
      Center of nuclear charge [Ang]:    [  0.000000,  -0.000000,  -0.000000]
    Dipole moment [D]:                     48.945757
      Cartesian components [D]:          [  0.000000,   0.000003, -48.945757]
    RMS size of the density [Ang]:         3.628469
      Cartesian components [Ang]:        [  0.895635,   0.606665,   3.463464]
  
  Exciton analysis of the difference density matrix
    <r_h> [Ang]:                  [ -0.000000,  -0.000001,  -0.642009]
    <r_e> [Ang]:                  [ -0.000000,  -0.000000,  -0.674247]
    |<r_e - r_h>| [Ang]:            0.032238
    Hole size [Ang]:                1.500324
      Cartesian components [Ang]: [  1.103080,   0.908744,   0.456477]
    Electron size [Ang]:            1.721989
      Cartesian components [Ang]: [  1.199543,   0.675293,   1.034563]

  Transition density matrix analysis:
  -----------------------------------
  
  CT numbers (Mulliken)
    omega =     0.9218
    <Phe> =    -0.0126
  
  Exciton analysis of the transition density matrix
    Trans. dipole moment [D]:             0.014506
      Cartesian components [D]:         [ -0.000001,  -0.014506,  -0.000000]
    <r_h> [Ang]:                        [  0.000000,  -0.000000,  -0.640961]
    <r_e> [Ang]:                        [  0.000000,  -0.000000,  -0.676802]
    |<r_e - r_h>| [Ang]:                  0.035842
    Hole size [Ang]:                      1.507645
      Cartesian components [Ang]:       [  1.113052,   0.927441,   0.417086]
    Electron size [Ang]:                  1.738401
      Cartesian components [Ang]:       [  1.211222,   0.661810,   1.056876]
    RMS electron-hole separation [Ang]:   2.282436
      Cartesian components [Ang]:       [  1.620736,   1.136384,   1.136380]
    Covariance(r_h, r_e) [Ang^2]:         0.043402
    Correlation coefficient:              0.016560
    Center-of-mass size [Ang]:            1.159939
      Cartesian components [Ang]:       [  0.834431,   0.571163,   0.568292]

  Decomposition into state-averaged NTOs
    H- 1 -> L+ 3: -0.6314 ( 79.7%)
    H- 1 -> L+ 5:  0.2096 (  8.8%)
    H- 1 -> L+ 4:  0.1175 (  2.8%)
                   omega =  92.2%
  ----------------------------------------------------------------------------


  Excited state 6 (singlet, B2)                                    [converged]
  ----------------------------------------------------------------------------
  Term symbol:  6 (1) B2                                    R^2 =  1.87681e-08

  Total energy:                                            -78.3919381467 a.u.
  Excitation energy:                                              10.716184 eV

  Osc. strength:                                                      0.105542
  Trans. dip. moment [a.u.]:           [  -0.000002,    0.634034,   -0.000000]
  <i|r^2|0> [a.u.]:                    [   0.000003,    0.000001,   -0.000001]

  Dip. moment [a.u.]:                  [  -0.000000,    0.000001,  -19.079068]
  Total dipole [Debye]:                                              48.494162
  <r^2> [a.u.]:                        [  76.286834,   29.292694,  794.574950]
  Total <r^2> [a.u.]:                                               900.154478

  V1^2 = 0.9405, V2^2 = 0.0595

  Important amplitudes:
      occ i      occ j       vir a       vir b          v   
    ---------------------------------------------------------
     1 (A2) A               3 (B1) A                  0.6500
     1 (A2) A               8 (B1) A                  0.1050
    ---------------------------------------------------------

  Density matrix analysis:
  ------------------------
  NOs
    Occupation of frontier NOs:
       0.9709   1.0379
    Number of electrons: 18.000000
    Number of unpaired electrons: n_u =  2.45461, n_u,nl =  2.07630
    NO participation ratio (PR_NO):  3.188330
  
  
  Mulliken Population Analysis
  Atom      Charge (e)              h+              e-           Del q
  --------------------------------------------------------------------
   1 C       -0.495682        0.274329       -0.547417       -0.273088
   2 C       -0.495682        0.274329       -0.547417       -0.273088
   3 H        0.247832        0.182652       -0.046110        0.136542
   4 H        0.247856        0.182653       -0.046111        0.136543
   5 H        0.247850        0.182655       -0.046109        0.136546
   6 H        0.247826        0.182653       -0.046108        0.136545
   7 H       -1.000000        0.000110       -0.000110        0.000000
  --------------------------------------------------------------------
  Sum:       -1.000000        1.279382       -1.279382        0.000000
  
  Multipole moment analysis of the density matrix
    Molecular charge:                      -1.000000
    Number of electrons:                   18.000000
      Center of electronic charge [Ang]: [  0.000000,  -0.000000,   0.560900]
    Total nuclear charge:                  17.000000
      Center of nuclear charge [Ang]:    [  0.000000,  -0.000000,  -0.000000]
    Dipole moment [D]:                     48.494147
      Cartesian components [D]:          [ -0.000000,   0.000003, -48.494147]
    RMS size of the density [Ang]:         3.699895
      Cartesian components [Ang]:        [  1.089406,   0.675063,   3.470836]
  
  Exciton analysis of the difference density matrix
    <r_h> [Ang]:                  [ -0.000000,  -0.000001,  -0.651621]
    <r_e> [Ang]:                  [  0.000000,  -0.000000,  -0.751734]
    |<r_e - r_h>| [Ang]:            0.100113
    Hole size [Ang]:                1.706794
      Cartesian components [Ang]: [  1.219265,   0.994351,   0.661669]
    Electron size [Ang]:            3.267882
      Cartesian components [Ang]: [  2.661142,   1.384481,   1.296374]

  Transition density matrix analysis:
  -----------------------------------
  
  CT numbers (Mulliken)
    omega =     0.9250
    <Phe> =    -0.0061
  
  Exciton analysis of the transition density matrix
    Trans. dipole moment [D]:             0.805777
      Cartesian components [D]:         [ -0.000002,   0.805777,  -0.000000]
    <r_h> [Ang]:                        [  0.000000,  -0.000000,  -0.641002]
    <r_e> [Ang]:                        [  0.000000,  -0.000000,  -0.778930]
    |<r_e - r_h>| [Ang]:                  0.137928
    Hole size [Ang]:                      1.514617
      Cartesian components [Ang]:       [  1.119382,   0.932750,   0.413555]
    Electron size [Ang]:                  3.607735
      Cartesian components [Ang]:       [  2.954527,   1.520696,   1.404993]
    RMS electron-hole separation [Ang]:   3.757090
      Cartesian components [Ang]:       [  2.987067,   1.740686,   1.470769]
    Covariance(r_h, r_e) [Ang^2]:         0.606560
    Correlation coefficient:              0.111003
    Center-of-mass size [Ang]:            2.032421
      Cartesian components [Ang]:       [  1.661469,   0.913111,   0.732449]

  Decomposition into state-averaged NTOs
    H- 1 -> L+ 4:  0.6549 ( 85.8%)
    H- 1 -> L+ 5: -0.1245 (  3.1%)
    H- 1 -> L+ 3:  0.0807 (  1.3%)
                   omega =  92.5%
  ----------------------------------------------------------------------------


  Excited state 7 (singlet, B2)                                    [converged]
  ----------------------------------------------------------------------------
  Term symbol:  7 (1) B2                                    R^2 =  1.13395e-08

  Total energy:                                            -78.3500335413 a.u.
  Excitation energy:                                              11.856467 eV

  Osc. strength:                                                      0.092580
  Trans. dip. moment [a.u.]:           [   0.000003,   -0.564549,   -0.000000]
  <i|r^2|0> [a.u.]:                    [  -0.000005,   -0.000003,   -0.000001]

  Dip. moment [a.u.]:                  [  -0.000000,    0.000003,  -19.325325]
  Total dipole [Debye]:                                              49.120085
  <r^2> [a.u.]:                        [  54.286891,   44.050485,  793.614636]
  Total <r^2> [a.u.]:                                               891.952013

  V1^2 = 0.9313, V2^2 = 0.0687

  Important amplitudes:
      occ i      occ j       vir a       vir b          v   
    ---------------------------------------------------------
     3 (A1) A               2 (B2) A                 -0.6563
     3 (A1) A               3 (B2) A                 -0.1454
    ---------------------------------------------------------

  Density matrix analysis:
  ------------------------
  NOs
    Occupation of frontier NOs:
       0.9778   1.0183
    Number of electrons: 18.000000
    Number of unpaired electrons: n_u =  2.43616, n_u,nl =  2.06088
    NO participation ratio (PR_NO):  3.064853
  
  
  Mulliken Population Analysis
  Atom      Charge (e)              h+              e-           Del q
  --------------------------------------------------------------------
   1 C       -0.383560        0.432578       -0.593544       -0.160966
   2 C       -0.383560        0.432578       -0.593544       -0.160966
   3 H        0.191772        0.135838       -0.055355        0.080482
   4 H        0.191796        0.135839       -0.055357        0.080482
   5 H        0.191788        0.135840       -0.055356        0.080484
   6 H        0.191765        0.135839       -0.055355        0.080484
   7 H       -1.000000        0.000056       -0.000056        0.000000
  --------------------------------------------------------------------
  Sum:       -1.000000        1.408568       -1.408568        0.000000
  
  Multipole moment analysis of the density matrix
    Molecular charge:                      -1.000000
    Number of electrons:                   18.000000
      Center of electronic charge [Ang]: [  0.000000,  -0.000000,   0.568140]
    Total nuclear charge:                  17.000000
      Center of nuclear charge [Ang]:    [  0.000000,  -0.000000,  -0.000000]
    Dipole moment [D]:                     49.120070
      Cartesian components [D]:          [ -0.000000,   0.000008, -49.120070]
    RMS size of the density [Ang]:         3.681500
      Cartesian components [Ang]:        [  0.918993,   0.827828,   3.467505]
  
  Exciton analysis of the difference density matrix
    <r_h> [Ang]:                  [ -0.000000,  -0.000000,  -0.646475]
    <r_e> [Ang]:                  [  0.000000,  -0.000001,  -0.644892]
    |<r_e - r_h>| [Ang]:            0.001583
    Hole size [Ang]:                1.594006
      Cartesian components [Ang]: [  1.173958,   0.845126,   0.669656]
    Electron size [Ang]:            2.844906
      Cartesian components [Ang]: [  1.444448,   2.119217,   1.231251]

  Transition density matrix analysis:
  -----------------------------------
  
  CT numbers (Mulliken)
    omega =     0.9131
    <Phe> =    -0.0041
  
  Exciton analysis of the transition density matrix
    Trans. dipole moment [D]:             0.717470
      Cartesian components [D]:         [  0.000003,  -0.717470,  -0.000000]
    <r_h> [Ang]:                        [ -0.000000,  -0.000000,  -0.641335]
    <r_e> [Ang]:                        [  0.000000,  -0.000001,  -0.644120]
    |<r_e - r_h>| [Ang]:                  0.002785
    Hole size [Ang]:                      1.324755
      Cartesian components [Ang]:       [  1.101376,   0.614739,   0.405019]
    Electron size [Ang]:                  3.261915
      Cartesian components [Ang]:       [  1.617355,   2.467849,   1.390675]
    RMS electron-hole separation [Ang]:   3.478515
      Cartesian components [Ang]:       [  1.897287,   2.530287,   1.448453]
    Covariance(r_h, r_e) [Ang^2]:         0.147502
    Correlation coefficient:              0.034134
    Center-of-mass size [Ang]:            1.781156
      Cartesian components [Ang]:       [  1.007228,   1.278085,   0.724228]

  Decomposition into state-averaged NTOs
    H- 3 -> L+ 0:  0.6697 ( 89.7%)
    H- 1 -> L+ 4:  0.0716 (  1.0%)
                   omega =  91.3%
  ----------------------------------------------------------------------------


  Excited state 8 (singlet, B2)                                    [converged]
  ----------------------------------------------------------------------------
  Term symbol:  8 (1) B2                                    R^2 =  9.50398e-10

  Total energy:                                            -78.3348553485 a.u.
  Excitation energy:                                              12.269486 eV

  Osc. strength:                                                      0.000019
  Trans. dip. moment [a.u.]:           [  -0.000000,    0.007992,   -0.000001]
  <i|r^2|0> [a.u.]:                    [  -0.000000,    0.000000,   -0.000002]

  Dip. moment [a.u.]:                  [  -0.000000,   -0.000002,  -19.337916]
  Total dipole [Debye]:                                              49.152089
  <r^2> [a.u.]:                        [  54.987880,   34.533752,  789.989125]
  Total <r^2> [a.u.]:                                               879.510756

  V1^2 = 0.9610, V2^2 = 0.0390

  Important amplitudes:
      occ i      occ j       vir a       vir b          v   
    ---------------------------------------------------------
     4 (A1) A               3 (B2) A                 -0.6581
     4 (A1) A               2 (B2) A                  0.1389
    ---------------------------------------------------------

  Density matrix analysis:
  ------------------------
  NOs
    Occupation of frontier NOs:
       0.9740   0.9929
    Number of electrons: 18.000000
    Number of unpaired electrons: n_u =  2.33503, n_u,nl =  2.02856
    NO participation ratio (PR_NO):  2.807081
  
  
  Mulliken Population Analysis
  Atom      Charge (e)              h+              e-           Del q
  --------------------------------------------------------------------
   1 C        0.037245        0.559329       -0.299490        0.259839
   2 C        0.037245        0.559329       -0.299490        0.259839
   3 H       -0.018631        0.031100       -0.161021       -0.129921
   4 H       -0.018604        0.031101       -0.161018       -0.129917
   5 H       -0.018613        0.031101       -0.161019       -0.129918
   6 H       -0.018641        0.031100       -0.161022       -0.129922
   7 H       -1.000000        0.000050       -0.000050        0.000000
  --------------------------------------------------------------------
  Sum:       -1.000000        1.243109       -1.243109       -0.000000
  
  Multipole moment analysis of the density matrix
    Molecular charge:                      -1.000000
    Number of electrons:                   18.000000
      Center of electronic charge [Ang]: [  0.000000,  -0.000000,   0.568510]
    Total nuclear charge:                  17.000000
      Center of nuclear charge [Ang]:    [  0.000000,  -0.000000,  -0.000000]
    Dipole moment [D]:                     49.152074
      Cartesian components [D]:          [ -0.000000,  -0.000005, -49.152074]
    RMS size of the density [Ang]:         3.655061
      Cartesian components [Ang]:        [  0.924908,   0.732971,   3.459302]
  
  Exciton analysis of the difference density matrix
    <r_h> [Ang]:                  [ -0.000000,  -0.000001,  -0.647145]
    <r_e> [Ang]:                  [  0.000000,   0.000001,  -0.639991]
    |<r_e - r_h>| [Ang]:            0.007154
    Hole size [Ang]:                1.479008
      Cartesian components [Ang]: [  0.935761,   0.746123,   0.868975]
    Electron size [Ang]:            2.384004
      Cartesian components [Ang]: [  1.355020,   1.640871,   1.074681]

  Transition density matrix analysis:
  -----------------------------------
  
  CT numbers (Mulliken)
    omega =     0.9277
    <Phe> =    -0.0101
  
  Exciton analysis of the transition density matrix
    Trans. dipole moment [D]:             0.010156
      Cartesian components [D]:         [ -0.000000,   0.010156,  -0.000001]
    <r_h> [Ang]:                        [  0.000000,  -0.000000,  -0.647079]
    <r_e> [Ang]:                        [  0.000000,   0.000002,  -0.639370]
    |<r_e - r_h>| [Ang]:                  0.007708
    Hole size [Ang]:                      1.252426
      Cartesian components [Ang]:       [  0.759308,   0.513957,   0.853153]
    Electron size [Ang]:                  2.570435
      Cartesian components [Ang]:       [  1.447519,   1.783772,   1.153249]
    RMS electron-hole separation [Ang]:   2.847469
      Cartesian components [Ang]:       [  1.616030,   1.854897,   1.433836]
    Covariance(r_h, r_e) [Ang^2]:         0.033843
    Correlation coefficient:              0.010512
    Center-of-mass size [Ang]:            1.435565
      Cartesian components [Ang]:       [  0.826463,   0.928890,   0.717614]

  Decomposition into state-averaged NTOs
    H- 2 -> L+ 1:  0.6757 ( 91.3%)
                   omega =  92.8%
  ----------------------------------------------------------------------------


  Excited state 9 (singlet, B2)                                    [converged]
  ----------------------------------------------------------------------------
  Term symbol:  9 (1) B2                                    R^2 =  1.74376e-08

  Total energy:                                            -78.3081204070 a.u.
  Excitation energy:                                              12.996981 eV

  Osc. strength:                                                      0.000207
  Trans. dip. moment [a.u.]:           [  -0.000001,    0.025506,    0.000000]
  <i|r^2|0> [a.u.]:                    [   0.000000,   -0.000000,    0.000000]

  Dip. moment [a.u.]:                  [  -0.000000,    0.000001,  -19.377781]
  Total dipole [Debye]:                                              49.253417
  <r^2> [a.u.]:                        [  67.238766,   28.299421,  807.890964]
  Total <r^2> [a.u.]:                                               903.429152

  V1^2 = 0.9396, V2^2 = 0.0604

  Important amplitudes:
      occ i      occ j       vir a       vir b          v   
    ---------------------------------------------------------
     1 (A2) A               5 (B1) A                 -0.5016
     1 (A2) A               4 (B1) A                 -0.4337
    ---------------------------------------------------------

  Density matrix analysis:
  ------------------------
  NOs
    Occupation of frontier NOs:
       0.9744   1.0342
    Number of electrons: 18.000000
    Number of unpaired electrons: n_u =  2.45541, n_u,nl =  2.07687
    NO participation ratio (PR_NO):  3.166815
  
  
  Mulliken Population Analysis
  Atom      Charge (e)              h+              e-           Del q
  --------------------------------------------------------------------
   1 C       -0.539796        0.300004       -0.617205       -0.317201
   2 C       -0.539796        0.300004       -0.617205       -0.317201
   3 H        0.269889        0.168068       -0.009469        0.158599
   4 H        0.269914        0.168069       -0.009469        0.158600
   5 H        0.269907        0.168070       -0.009468        0.158603
   6 H        0.269882        0.168069       -0.009468        0.158601
   7 H       -1.000000        0.000070       -0.000070        0.000000
  --------------------------------------------------------------------
  Sum:       -1.000000        1.272354       -1.272354        0.000000
  
  Multipole moment analysis of the density matrix
    Molecular charge:                      -1.000000
    Number of electrons:                   18.000000
      Center of electronic charge [Ang]: [  0.000000,  -0.000000,   0.569682]
    Total nuclear charge:                  17.000000
      Center of nuclear charge [Ang]:    [  0.000000,  -0.000000,  -0.000000]
    Dipole moment [D]:                     49.253402
      Cartesian components [D]:          [ -0.000000,   0.000003, -49.253402]
    RMS size of the density [Ang]:         3.705433
      Cartesian components [Ang]:        [  1.022762,   0.663519,   3.499134]
  
  Exciton analysis of the difference density matrix
    <r_h> [Ang]:                  [ -0.000000,  -0.000000,  -0.644324]
    <r_e> [Ang]:                  [ -0.000000,  -0.000000,  -0.620754]
    |<r_e - r_h>| [Ang]:            0.023570
    Hole size [Ang]:                1.694621
      Cartesian components [Ang]: [  1.203331,   0.994346,   0.659553]
    Electron size [Ang]:            3.401815
      Cartesian components [Ang]: [  2.254466,   1.305105,   2.187790]

  Transition density matrix analysis:
  -----------------------------------
  
  CT numbers (Mulliken)
    omega =     0.9230
    <Phe> =    -0.0026
  
  Exciton analysis of the transition density matrix
    Trans. dipole moment [D]:             0.032415
      Cartesian components [D]:         [ -0.000001,   0.032415,   0.000000]
    <r_h> [Ang]:                        [  0.000000,  -0.000000,  -0.640916]
    <r_e> [Ang]:                        [ -0.000000,  -0.000000,  -0.612815]
    |<r_e - r_h>| [Ang]:                  0.028101
    Hole size [Ang]:                      1.513509
      Cartesian components [Ang]:       [  1.115911,   0.932312,   0.419818]
    Electron size [Ang]:                  3.754913
      Cartesian components [Ang]:       [  2.480385,   1.418551,   2.436139]
    RMS electron-hole separation [Ang]:   3.980786
      Cartesian components [Ang]:       [  2.618451,   1.697151,   2.471851]
    Covariance(r_h, r_e) [Ang^2]:         0.272106
    Correlation coefficient:              0.047880
    Center-of-mass size [Ang]:            2.057565
      Cartesian components [Ang]:       [  1.408798,   0.848920,   1.236202]

  Decomposition into state-averaged NTOs
    H- 1 -> L+ 5: -0.6276 ( 78.8%)
    H- 1 -> L+ 3: -0.2238 ( 10.0%)
    H- 1 -> L+ 4: -0.0916 (  1.7%)
                   omega =  92.3%
  ----------------------------------------------------------------------------


  Excited state 10 (singlet, B2)                                    [converged]
  ----------------------------------------------------------------------------
  Term symbol:  10 (1) B2                                   R^2 =  6.47470e-06

  Total energy:                                            -78.2725144012 a.u.
  Excitation energy:                                              13.965870 eV

  Osc. strength:                                                      0.228156
  Trans. dip. moment [a.u.]:           [   0.000002,   -0.816587,    0.000000]
  <i|r^2|0> [a.u.]:                    [  -0.000001,    0.000001,    0.000002]

  Dip. moment [a.u.]:                  [   0.000000,    0.000000,  -18.538241]
  Total dipole [Debye]:                                              47.119518
  <r^2> [a.u.]:                        [  60.970386,   29.682174,  797.876448]
  Total <r^2> [a.u.]:                                               888.529008

  V1^2 = 0.9257, V2^2 = 0.0743

  Important amplitudes:
      occ i      occ j       vir a       vir b          v   
    ---------------------------------------------------------
     1 (B2) A               6 (A1) A                  0.5427
     1 (B2) A               8 (A1) A                 -0.3244
    ---------------------------------------------------------

  Density matrix analysis:
  ------------------------
  NOs
    Occupation of frontier NOs:
       0.8952   1.1234
    Number of electrons: 18.000000
    Number of unpaired electrons: n_u =  2.49017, n_u,nl =  2.14328
    NO participation ratio (PR_NO):  3.816306
  
  
  Mulliken Population Analysis
  Atom      Charge (e)              h+              e-           Del q
  --------------------------------------------------------------------
   1 C       -0.509431        0.350498       -0.637335       -0.286836
   2 C       -0.509431        0.350498       -0.637335       -0.286836
   3 H        0.254706        0.138419        0.004998        0.143416
   4 H        0.254730        0.138421        0.004996        0.143416
   5 H        0.254725        0.138424        0.004996        0.143420
   6 H        0.254701        0.138422        0.004998        0.143420
   7 H       -1.000000        0.000093       -0.000093        0.000000
  --------------------------------------------------------------------
  Sum:       -1.000000        1.254775       -1.254775        0.000000
  
  Multipole moment analysis of the density matrix
    Molecular charge:                      -1.000000
    Number of electrons:                   18.000000
      Center of electronic charge [Ang]: [ -0.000000,  -0.000000,   0.545000]
    Total nuclear charge:                  17.000000
      Center of nuclear charge [Ang]:    [  0.000000,  -0.000000,  -0.000000]
    Dipole moment [D]:                     47.119504
      Cartesian components [D]:          [  0.000000,   0.000000, -47.119504]
    RMS size of the density [Ang]:         3.677764
      Cartesian components [Ang]:        [  0.973922,   0.679536,   3.480754]
  
  Exciton analysis of the difference density matrix
    <r_h> [Ang]:                  [ -0.000000,  -0.000000,  -0.648569]
    <r_e> [Ang]:                  [ -0.000000,   0.000000,  -0.978728]
    |<r_e - r_h>| [Ang]:            0.330160
    Hole size [Ang]:                1.601449
      Cartesian components [Ang]: [  1.102753,   0.962049,   0.650412]
    Electron size [Ang]:            2.737583
      Cartesian components [Ang]: [  1.871545,   1.399540,   1.425821]

  Transition density matrix analysis:
  -----------------------------------
  
  CT numbers (Mulliken)
    omega =     0.9105
    <Phe> =    -0.0109
  
  Exciton analysis of the transition density matrix
    Trans. dipole moment [D]:             1.037779
      Cartesian components [D]:         [  0.000003,  -1.037779,   0.000000]
    <r_h> [Ang]:                        [  0.000000,  -0.000000,  -0.641163]
    <r_e> [Ang]:                        [ -0.000000,   0.000001,  -1.074155]
    |<r_e - r_h>| [Ang]:                  0.432992
    Hole size [Ang]:                      1.383226
      Cartesian components [Ang]:       [  0.960734,   0.900384,   0.423808]
    Electron size [Ang]:                  2.961135
      Cartesian components [Ang]:       [  2.015355,   1.534170,   1.533945]
    RMS electron-hole separation [Ang]:   3.344967
      Cartesian components [Ang]:       [  2.313652,   1.765758,   1.648612]
    Covariance(r_h, r_e) [Ang^2]:        -0.159845
    Correlation coefficient:             -0.039025
    Center-of-mass size [Ang]:            1.609499
      Cartesian components [Ang]:       [  1.074284,   0.895941,   0.796047]

  Decomposition into state-averaged NTOs
    H- 4 -> L+ 6: -0.6395 ( 81.8%)
    H- 1 -> L+ 7:  0.2030 (  8.2%)
                   omega =  91.0%
  ----------------------------------------------------------------------------


--------------------------------------------------------------------------------
  Time of ADC calculation:  CPU 248.73 s  wall 60.78 s
================================================================================
 
 --------------------------------------------------------------
             Orbital Energies (a.u.) and Symmetries
 --------------------------------------------------------------
 
 Alpha MOs, Restricted
 -- Occupied --                  
-11.189 -11.187  -0.993  -0.733  -0.612  -0.519  -0.467  -0.328
  1 A1    1 B1    2 A1    2 B1    1 B2    3 A1    1 A2    4 A1                 
  0.022
  5 A1                                                                         
 -- Virtual --                   
  0.125   0.137   0.138   0.151   0.154   0.172   0.194   0.242
  3 B1    6 A1    2 B2    4 B1    7 A1    2 A2    8 A1    5 B1                 
  0.265   0.311   0.371   0.379   0.411   0.416   0.417   0.434
  6 B1    9 A1    3 B2    7 B1    8 B1   10 A1    4 B2   11 A1                 
  0.448   0.518   0.593   0.667   0.887   0.897   0.981   1.028
  3 A2    9 B1    4 A2   10 B1   12 A1    5 B2   11 B1   13 A1                 
  1.058   1.073   1.126   1.141   1.163   1.195   1.210   1.256
 14 A1    5 A2   15 A1    6 B2    7 B2   12 B1   16 A1   13 B1                 
  1.333   1.343   1.360   1.521   1.673   1.769   1.785   1.927
  6 A2   17 A1   14 B1    7 A2   18 A1    8 A2    8 B2   15 B1                 
  1.968   1.968   1.968   1.993   2.015   2.066   2.132   2.149
 16 B1    9 B2   19 A1   20 A1   17 B1   10 B2   21 A1   11 B2                 
  2.232   2.383   2.461   2.525   2.610   2.629   2.904   2.904
 18 B1   19 B1    9 A2   22 A1   10 A2   20 B1   12 B2   23 A1                 
  3.324   3.395
 21 B1   11 A2                                                                 
 
 Beta MOs, Restricted
 -- Occupied --                  
-11.189 -11.187  -0.993  -0.733  -0.612  -0.519  -0.467  -0.328
  1 A1    1 B1    2 A1    2 B1    1 B2    3 A1    1 A2    4 A1                 
  0.022
  5 A1                                                                         
 -- Virtual --                   
  0.125   0.137   0.138   0.151   0.154   0.172   0.194   0.242
  3 B1    6 A1    2 B2    4 B1    7 A1    2 A2    8 A1    5 B1                 
  0.265   0.311   0.371   0.379   0.411   0.416   0.417   0.434
  6 B1    9 A1    3 B2    7 B1    8 B1   10 A1    4 B2   11 A1                 
  0.448   0.518   0.593   0.667   0.887   0.897   0.981   1.028
  3 A2    9 B1    4 A2   10 B1   12 A1    5 B2   11 B1   13 A1                 
  1.058   1.073   1.126   1.141   1.163   1.195   1.210   1.256
 14 A1    5 A2   15 A1    6 B2    7 B2   12 B1   16 A1   13 B1                 
  1.333   1.343   1.360   1.521   1.673   1.769   1.785   1.927
  6 A2   17 A1   14 B1    7 A2   18 A1    8 A2    8 B2   15 B1                 
  1.968   1.968   1.968   1.993   2.015   2.066   2.132   2.149
 16 B1    9 B2   19 A1   20 A1   17 B1   10 B2   21 A1   11 B2                 
  2.232   2.383   2.461   2.525   2.610   2.629   2.904   2.904
 18 B1   19 B1    9 A2   22 A1   10 A2   20 B1   12 B2   23 A1                 
  3.324   3.395
 21 B1   11 A2                                                                 
 --------------------------------------------------------------
 
          Ground-State Mulliken Net Atomic Charges

     Atom                 Charge (a.u.)
  ----------------------------------------
      1 C                    -0.207139
      2 C                    -0.207139
      3 H                     0.103561
      4 H                     0.103585
      5 H                     0.103577
      6 H                     0.103553
      7 H                    -1.000000
  ----------------------------------------
  Sum of atomic charges =    -1.000000

 -----------------------------------------------------------------
                    Cartesian Multipole Moments
 -----------------------------------------------------------------
    Charge (ESU x 10^10)
                -4.8032
    Dipole Moment (Debye)
         X       0.0000      Y       0.0000      Z     -49.1057
       Tot      49.1057
    Quadrupole Moments (Debye-Ang)
        XX     -16.8771     XY       0.0000     YY     -15.9209
        XZ      -0.0000     YZ      -0.0000     ZZ    -524.6047
    Octopole Moments (Debye-Ang^2)
       XXX      -0.0000    XXY       0.0000    XYY      -0.0000
       YYY       0.0000    XXZ     -32.1180    XYZ      -0.0000
       YYZ     -32.7626    XZZ      -0.0000    YZZ       0.0000
       ZZZ   -5258.4766
    Hexadecapole Moments (Debye-Ang^3)
      XXXX     -73.9646   XXXY       0.0000   XXYY     -15.1639
      XYYY       0.0000   YYYY     -32.7904   XXXZ       0.0000
      XXYZ      -0.0000   XYYZ       0.0000   YYYZ      -0.0000
      XXZZ    -438.2382   XYZZ       0.0000   YYZZ    -431.1962
      XZZZ       0.0000   YZZZ      -0.0000   ZZZZ  -55521.1673
 -----------------------------------------------------------------
 Total job time:  143.21s(wall), 292.54s(cpu) 
 Sat Mar 26 08:41:06 2022

        *************************************************************
        *                                                           *
        *  Thank you very much for using Q-Chem.  Have a nice day.  *
        *                                                           *
        *************************************************************


