/src/tsommerfeld/qchem/exe/qcprog.exe .input1.611111.17860.qcin.1 /src/jdavis/qchem.scratch/qchem17860/

                  Welcome to Q-Chem
     A Quantum Leap Into The Future Of Chemistry


 Q-Chem 5.4 (devel), Q-Chem, Inc., Pleasanton, CA (2021)

 E. Epifanovsky,  A. T. B. Gilbert,  Xintian Feng,  Joonho Lee,  Yuezhi Mao,  
 N. Mardirossian,  P. Pokhilko,  A. White,  M. Wormit,  M. P. Coons,  
 A. L. Dempwolff,  Zhengting Gan,  D. Hait,  P. R. Horn,  L. D. Jacobson,  
 I. Kaliman,  J. Kussmann,  A. W. Lange,  Ka Un Lao,  D. S. Levine,  Jie Liu,  
 S. C. McKenzie,  A. F. Morrison,  K. Nanda,  F. Plasser,  D. R. Rehn,  
 M. L. Vidal,  Zhi-Qiang You,  Ying Zhu,  B. Alam,  B. Albrecht,  
 A. Aldossary,  E. Alguire,  J. H. Andersen,  D. Barton,  K. Begam,  A. Behn,  
 Y. A. Bernard,  E. J. Berquist,  H. Burton,  A. Carreras,  K. Carter-Fenk,  
 R. Chakraborty,  A. D. Chien,  K. D. Closser,  V. Cofer-Shabica,  
 S. Dasgupta,  Jia Deng,  M. de Wergifosse,  M. Diedenhofen,  Hainam Do,  
 S. Ehlert,  Po-Tung Fang,  S. Fatehi,  Qingguo Feng,  T. Friedhoff,  
 J. Gayvert,  Qinghui Ge,  G. Gidofalvi,  M. Goldey,  J. Gomes,  
 C. Gonzalez-Espinoza,  S. Gulania,  A. Gunina,  M. W. D. Hanson-Heine,  
 P. H. P. Harbach,  A. W. Hauser,  M. F. Herbst,  M. Hernandez Vera,  
 M. Hodecker,  Z. C. Holden,  S. Houck,  Xunkun Huang,  Kerwin Hui,  
 B. C. Huynh,  M. Ivanov,  Hyunjun Ji,  Hanjie Jiang,  B. Kaduk,  S. Kaehler,  
 K. Khistyaev,  Jaehoon Kim,  P. Klunzinger,  Z. Koczor-Benda,  
 Joong Hoon Koh,  D. Kosenkov,  L. Koulias,  T. Kowalczyk,  C. M. Krauter,  
 K. Kue,  A. Kunitsa,  T. Kus,  A. Landau,  K. V. Lawler,  D. Lefrancois,  
 S. Lehtola,  Rain Li,  Yi-Pei Li,  Jiashu Liang,  M. Liebenthal,  
 Hung-Hsuan Lin,  You-Sheng Lin,  Fenglai Liu,  Kuan-Yu Liu,  
 M. Loipersberger,  A. Luenser,  A. Manjanath,  P. Manohar,  E. Mansoor,  
 S. F. Manzer,  Shan-Ping Mao,  A. V. Marenich,  T. Markovich,  S. Mason,  
 S. A. Maurer,  P. F. McLaughlin,  M. F. S. J. Menger,  J.-M. Mewes,  
 S. A. Mewes,  P. Morgante,  J. W. Mullinax,  K. J. Oosterbaan,  G. Paran,  
 Alexander C. Paul,  Suranjan K. Paul,  F. Pavosevic,  Zheng Pei,  S. Prager,  
 E. I. Proynov,  E. Ramos,  B. Rana,  A. E. Rask,  A. Rettig,  R. M. Richard,  
 F. Rob,  E. Rossomme,  T. Scheele,  M. Scheurer,  M. Schneider,  
 N. Sergueev,  S. M. Sharada,  W. Skomorowski,  D. W. Small,  C. J. Stein,  
 Yu-Chuan Su,  E. J. Sundstrom,  Zhen Tao,  J. Thirman,  T. Tsuchimochi,  
 N. M. Tubman,  S. P. Veccham,  O. Vydrov,  J. Wenzel,  J. Witte,  A. Yamada,  
 Kun Yao,  S. Yeganeh,  S. R. Yost,  A. Zech,  Igor Ying Zhang,  Xing Zhang,  
 Yu Zhang,  D. Zuev,  A. Aspuru-Guzik,  A. T. Bell,  N. A. Besley,  
 K. B. Bravaya,  B. R. Brooks,  D. Casanova,  Jeng-Da Chai,  S. Coriani,  
 C. J. Cramer,  A. E. DePrince, III,  R. A. DiStasio Jr.,  A. Dreuw,  
 B. D. Dunietz,  T. R. Furlani,  W. A. Goddard III,  S. Grimme,  
 S. Hammes-Schiffer,  T. Head-Gordon,  W. J. Hehre,  Chao-Ping Hsu,  
 T.-C. Jagau,  Yousung Jung,  A. Klamt,  Jing Kong,  D. S. Lambrecht,  
 WanZhen Liang,  N. J. Mayhall,  C. W. McCurdy,  J. B. Neaton,  
 C. Ochsenfeld,  J. A. Parkhill,  R. Peverati,  V. A. Rassolov,  Yihan Shao,  
 L. V. Slipchenko,  T. Stauch,  R. P. Steele,  J. E. Subotnik,  
 A. J. W. Thom,  A. Tkatchenko,  D. G. Truhlar,  T. Van Voorhis,  
 T. A. Wesolowski,  K. B. Whaley,  H. L. Woodcock III,  P. M. Zimmerman,  
 S. Faraji,  P. M. W. Gill,  M. Head-Gordon,  J. M. Herbert,  A. I. Krylov

 Additional authors for Version 5.4.1: 
 S. Kotaru,  Shaozhi Li,  Xiangyuan Li,  F. Matz,  A. Molle,  Haisheng Ren,  
 Yingli Su,  Hung-Yi Tsai,  C. Utku,  Fang Wang

 Contributors to earlier versions of Q-Chem not listed above: 
 R. D. Adamson,  B. Austin,  R. Baer,  J. Baker,  G. J. O. Beran,  
 K. Brandhorst,  S. T. Brown,  E. F. C. Byrd,  A. K. Chakraborty,  
 G. K. L. Chan,  Chun-Min Chang,  Yunqing Chen,  C.-L. Cheng,  
 Siu Hung Chien,  D. M. Chipman,  D. L. Crittenden,  H. Dachsel,  
 R. J. Doerksen,  A. D. Dutoi,  R. G. Edgar,  J. Fosso-Tande,  
 L. Fusti-Molnar,  D. Ghosh,  A. Ghysels,  A. Golubeva-Zadorozhnaya,  
 J. Gonthier,  M. S. Gordon,  S. R. Gwaltney,  G. Hawkins,  J. E. Herr,  
 A. Heyden,  S. Hirata,  E. G. Hohenstein,  G. Kedziora,  F. J. Keil,  
 C. Kelley,  Jihan Kim,  R. A. King,  R. Z. Khaliullin,  P. P. Korambath,  
 W. Kurlancheek,  A. Laurent,  A. M. Lee,  M. S. Lee,  S. V. Levchenko,  
 Ching Yeh Lin,  D. Liotard,  E. Livshits,  R. C. Lochan,  I. Lotan,  
 L. A. Martinez-Martinez,  P. E. Maslen,  N. Nair,  D. P. O'Neill,  
 D. Neuhauser,  E. Neuscamman,  C. M. Oana,  R. Olivares-Amaya,  R. Olson,  
 T. M. Perrine,  B. Peters,  P. A. Pieniazek,  A. Prociuk,  Y. M. Rhee,  
 J. Ritchie,  M. A. Rohrdanz,  E. Rosta,  N. J. Russ,  H. F. Schaefer III,  
 M. W. Schmidt,  N. E. Schultz,  S. Sharma,  N. Shenvi,  C. D. Sherrill,  
 A. C. Simmonett,  A. Sodt,  T. Stein,  D. Stuck,  K. S. Thanthiriwatte,  
 V. Vanovschi,  L. Vogt,  Tao Wang,  A. Warshel,  M. A. Watson,  
 C. F. Williams,  Q. Wu,  X. Xu,  Jun Yang,  W. Zhang,  Yan Zhao

 Please cite Q-Chem as follows:
 Y. Shao et al., Mol. Phys. 113, 184-215 (2015)
 DOI: 10.1080/00268976.2014.952696

 Q-Chem 5.4.1 for Intel X86 EM64T Linux

 Parts of Q-Chem use Armadillo 9.900.5 (Nocturnal Misbehaviour).
 http://arma.sourceforge.net/

 Q-Chem begins on Sat Mar 26 09:18:51 2022  

 Host: node01
0

     Scratch files written to /src/jdavis/qchem.scratch/qchem17860//
 Processing $rem in /src/tsommerfeld/qchem/config/preferences:
 Processing $rem in /home/jdavis/.qchemrc:

 Checking the input file for inconsistencies... 	...done.

--------------------------------------------------------------
User input:
--------------------------------------------------------------
$molecule
-1 1
C         0.0000003663    0.4438502432    0.6645000000
C         0.0000003663    0.4438502432   -0.6645000000
H        -0.9623486337    0.4438522630    1.1590800000
H        -0.9623486337    0.4438522630   -1.1590800000
H         0.9623483663    0.4438482235    1.1590800000
H         0.9623483663    0.4438482235   -1.1590800000
H        -0.0000038605   -10.4438482235    0.0000000000
$end

$rem
   METHOD adc(2)
   BASIS gen
   PURECART 11
   EE_STATES [0,0,0,10]
   scf_convergence 8
   ADC_DAVIDSON_MAXITER 120
   ADC_DAVIDSON_MAXSUBSPACE 200
   adc_nguess_singles 100
   THRESH 14
   S2THRESH 14
   adc_davidson_conv 5
   adc_davidson_thresh 14
   THREADS 10
   MEM_TOTAL 95000
   STATE_ANALYSIS TRUE
$end
$basis
C 1
S   9   1.00
      6.665000D+03           6.920000D-04
      1.000000D+03           5.329000D-03
      2.280000D+02           2.707700D-02
      6.471000D+01           1.017180D-01
      2.106000D+01           2.747400D-01
      7.495000D+00           4.485640D-01
      2.797000D+00           2.850740D-01
      5.215000D-01           1.520400D-02
      1.596000D-01          -3.191000D-03
S   9   1.00
      6.665000D+03          -1.460000D-04
      1.000000D+03          -1.154000D-03
      2.280000D+02          -5.725000D-03
      6.471000D+01          -2.331200D-02
      2.106000D+01          -6.395500D-02
      7.495000D+00          -1.499810D-01
      2.797000D+00          -1.272620D-01
      5.215000D-01           5.445290D-01
      1.596000D-01           5.804960D-01
S   1   1.00
      1.596000D-01           1.000000D+00
S   1   1.00
      0.0469000              1.0000000
P   4   1.00
      9.439000D+00           3.810900D-02
      2.002000D+00           2.094800D-01
      5.456000D-01           5.085570D-01
      1.517000D-01           4.688420D-01
P   1   1.00
      1.517000D-01           1.000000D+00
P   1   1.00
      0.0977622      1.0000000
P   1   1.00
      0.0488811      1.0000000
D   1   1.00
      5.500000D-01           1.0000000
****
C 2
S   9   1.00
      6.665000D+03           6.920000D-04
      1.000000D+03           5.329000D-03
      2.280000D+02           2.707700D-02
      6.471000D+01           1.017180D-01
      2.106000D+01           2.747400D-01
      7.495000D+00           4.485640D-01
      2.797000D+00           2.850740D-01
      5.215000D-01           1.520400D-02
      1.596000D-01          -3.191000D-03
S   9   1.00
      6.665000D+03          -1.460000D-04
      1.000000D+03          -1.154000D-03
      2.280000D+02          -5.725000D-03
      6.471000D+01          -2.331200D-02
      2.106000D+01          -6.395500D-02
      7.495000D+00          -1.499810D-01
      2.797000D+00          -1.272620D-01
      5.215000D-01           5.445290D-01
      1.596000D-01           5.804960D-01
S   1   1.00
      1.596000D-01           1.000000D+00
S   1   1.00
      0.0469000              1.0000000
P   4   1.00
      9.439000D+00           3.810900D-02
      2.002000D+00           2.094800D-01
      5.456000D-01           5.085570D-01
      1.517000D-01           4.688420D-01
P   1   1.00
      1.517000D-01           1.000000D+00
P   1   1.00
      0.0977622      1.0000000
P   1   1.00
      0.0488811      1.0000000
D   1   1.00
      5.500000D-01           1.0000000
****
H 3
cc-pVDZ
****
H 4
cc-pVDZ
****
H 5
cc-pVDZ
****
H 6
cc-pVDZ
****
H 7
aug-cc-pVDZ
****
$end
--------------------------------------------------------------
 Atom   2: (  0.6645000000,  0.0000001629, -0.6404528510)
         ->(  0.6645000000, -0.0000001629, -0.6404528510)
 Atom   1: ( -0.6645000000,  0.0000001629, -0.6404528510)
         ->( -0.6645000000,  0.0000000000, -0.6404528510)
 Atom   6: (  1.1590800000,  0.9623481629, -0.6404511369)
         ->(  1.1590800000,  0.9623488371, -0.6404545651)
 Atom   5: ( -1.1590800000,  0.9623481629, -0.6404511369)
         ->( -1.1590800000,  0.9623488371, -0.6404545651)
 Atom   7: ( -0.0000000000, -0.0000006060, 10.2472456157)
         ->(  0.0000000000,  0.0000000000, 10.2472456157)
 ----------------------------------------------------------------
             Standard Nuclear Orientation (Angstroms)
    I     Atom           X                Y                Z
 ----------------------------------------------------------------
    1      C      -0.6645000000     0.0000000000    -0.6404528510
    2      C       0.6645000000    -0.0000001629    -0.6404528510
    3      H      -1.1590800000    -0.9623488371    -0.6404545651
    4      H       1.1590800000    -0.9623488371    -0.6404545651
    5      H      -1.1590800000     0.9623488371    -0.6404545651
    6      H       1.1590800000     0.9623488371    -0.6404545651
    7      H       0.0000000000     0.0000000000    10.2472456157
 ----------------------------------------------------------------
 Molecular Point Group                 C2v   NOp =  4
 Largest Abelian Subgroup              C2v   NOp =  4
 Nuclear Repulsion Energy =          34.36395017 hartrees
 There are        9 alpha and        9 beta electrons
 Requested basis set is non-standard
 There are 33 shells and 67 basis functions
 Total memory of 95000 MB is distributed as follows: 
   MEM_STATIC is set to 192 MB
   QALLOC/CCMAN JOB total memory use is  94808 MB
 Warning: actual memory use might exceed 95000 MB

 Total QAlloc Memory Limit  95000 MB
 Mega-Array Size       188 MB
 MEM_STATIC part       192 MB

                       Distance Matrix (Angstroms)
             C (  1)   C (  2)   H (  3)   H (  4)   H (  5)   H (  6)
   C (  2)  1.329000
   H (  3)  1.082000  2.061931
   H (  4)  2.061931  1.082000  2.318160
   H (  5)  1.082000  2.061931  1.924698  3.013026
   H (  6)  2.061931  1.082000  3.013026  1.924698  2.318160
   H (  7) 10.907958 10.907958 10.991433 10.991433 10.991433 10.991433

 
 A cutoff of  1.0D-14 yielded    489 shell pairs
 There are      2077 function pairs (      2214 Cartesian)
 Smallest overlap matrix eigenvalue = 1.73E-04

 Scale SEOQF with 1.000000e-01/1.000000e-01/1.000000e-02

 Standard Electronic Orientation quadrupole field applied
 Nucleus-field energy     =    -0.0000000005 hartrees
 ================ Generating on-the-fly SAD Guess ================
Attempting to make child job directory: /src/jdavis/qchem.scratch/qchem17860//Frg1/
Attempting to make child job directory: /src/jdavis/qchem.scratch/qchem17860//Frg2/
Creating input file /src/jdavis/qchem.scratch/qchem17860/Frg1.input
using default PutDataFrgm: nothing
calling putenv with: QCSCRATCH=/src/jdavis/qchem.scratch/qchem17860/ 
Spawning Job For Fragment 0
Done Job For Fragment 0
calling putenv with: QCSCRATCH=/src/jdavis/qchem.scratch 
calling putenv with: QCTHREADS=1 
Creating input file /src/jdavis/qchem.scratch/qchem17860/Frg2.input
using default PutDataFrgm: nothing
calling putenv with: QCSCRATCH=/src/jdavis/qchem.scratch/qchem17860/ 
Spawning Job For Fragment 1
Done Job For Fragment 1
calling putenv with: QCSCRATCH=/src/jdavis/qchem.scratch 
calling putenv with: QCTHREADS=1 
 Time for running child jobs:  CPU 1.81 s  wall 54.35 s
 ============= Method Specific SAD Guess Constructed =============
 Guess from on-the-fly superposition of atomic densities
 Warning: Energy on first SCF cycle will be non-variational
 A restricted Hartree-Fock SCF calculation will be
 performed using Pulay DIIS extrapolation
 SCF converges when DIIS error is below 1.0E-08
 using 10 threads for integral computing
 -------------------------------------------------------
 OpenMP Integral computing Module                
 Release: version 1.0, May 2013, Q-Chem Inc. Pittsburgh 
 -------------------------------------------------------
 ---------------------------------------
  Cycle       Energy         DIIS Error
 ---------------------------------------
    1     -78.8025432575      7.36E-02
    2     -78.4461672395      6.49E-03
    3     -78.4840857906      1.49E-03
    4     -78.4860145065      4.80E-04
    5     -78.4861843763      7.16E-05
    6     -78.4861915789      1.20E-05
    7     -78.4861919830      3.34E-06
    8     -78.4861920831      3.05E-07
    9     -78.4861920928      6.98E-08
   10     -78.4861920946      1.22E-08
   11     -78.4861920947      1.91E-09 Convergence criterion met
 ---------------------------------------
 SCF time:  CPU 9.99 s  wall 1.01 s
 SCF   energy in the final basis set = -78.48619209
 Total energy in the final basis set = -78.48619209
================================================================================
|                                                                              |
|                                 A D C  M A N                                 |
|                                                                              |
 ------------------------------------------------------------------------------ 
|                                                                              |
| Components:                                                                  |
|                                                                              |
| - libvmm - 1.3-trunk                                                         |
|   Authors:                                                                   |
|   Evgeny Epifanovsky, Ilya Kaliman                                           |
|                                                                              |
| - libtensor - 2.5-trunk                                                      |
|   Authors:                                                                   |
|   Evgeny Epifanovsky, Michael Wormit, Dmitry Zuev, Sam Manzer,               |
|   Ilya Kaliman                                                               |
|                                                                              |
| - libwfa - 1.1-trunk                                                         |
|   Authors:                                                                   |
|   Felix Plasser, Stefanie Mewes (Baeppler), Benjamin Thomitzni,              |
|   Michael Wormit, Feng Chen, Anna I. Krylov, Pavel Pokhilko                  |
|                                                                              |
| - libadc - 1.1-trunk                                                         |
|   Authors:                                                                   |
|   Michael Wormit, Adrian L. Dempwolff, Philipp H. P. Harbach,                |
|   Caroline Krauter, Dirk Rehn, Matthias Schneider, Jan Wenzel                |
|                                                                              |
| - adcman - 2.6-trunk                                                         |
|   Authors:                                                                   |
|   Michael Wormit, Adrian L. Dempwolff, Philipp H. P. Harbach,                |
|   Caroline Krauter, Daniel Lefrancois, Jan-Michael Mewes, Dirk Rehn,         |
|   Matthias Schneider, Jan Wenzel, Andreas Dreuw                              |
|                                                                              |
| Authors of earlier versions of ADCMAN:                                       |
| Andreas Dreuw, Jan Hendrik Starcke, Dirk Rehn, Michael Wormit                |
|                                                                              |
================================================================================

 
 Alpha MOs, Restricted
 -- Occupied --                  
-11.189 -11.187  -0.993  -0.733  -0.612  -0.519  -0.467  -0.328
  1 A1    1 B1    2 A1    2 B1    1 B2    3 A1    1 A2    4 A1                 
  0.022
  5 A1                                                                         
 -- Virtual --                   
  0.140   0.141   0.148   0.157   0.165   0.186   0.203   0.254
  3 B1    6 A1    2 B2    4 B1    7 A1    2 A2    8 A1    5 B1                 
  0.260   0.311   0.375   0.389   0.419   0.448   0.448   0.470
  6 B1    9 A1    3 B2    7 B1    8 B1    4 B2   10 A1   11 A1                 
  0.485   0.556   0.597   0.667   0.889   0.896   0.970   1.048
  3 A2    9 B1    4 A2   10 B1   12 A1    5 B2   11 B1   13 A1                 
  1.058   1.090   1.163   1.170   1.199   1.200   1.260   1.318
 14 A1    5 A2    6 B2   15 A1   12 B1    7 B2   16 A1   13 B1                 
  1.333   1.355   1.421   1.543   1.676   1.792   1.832   1.931
  6 A2   17 A1   14 B1    7 A2   18 A1    8 B2    8 A2   15 B1                 
  1.968   1.968   1.968   1.994   2.024   2.066   2.145   2.154
 16 B1    9 B2   19 A1   20 A1   17 B1   10 B2   21 A1   11 B2                 
  2.234   2.379   2.461   2.530   2.602   2.631   2.926   2.930
 18 B1   19 B1    9 A2   22 A1   10 A2   20 B1   23 A1   12 B2                 
  3.350   3.404
 21 B1   11 A2                                                                 
 
 Beta MOs, Restricted
 -- Occupied --                  
-11.189 -11.187  -0.993  -0.733  -0.612  -0.519  -0.467  -0.328
  1 A1    1 B1    2 A1    2 B1    1 B2    3 A1    1 A2    4 A1                 
  0.022
  5 A1                                                                         
 -- Virtual --                   
  0.140   0.141   0.148   0.157   0.165   0.186   0.203   0.254
  3 B1    6 A1    2 B2    4 B1    7 A1    2 A2    8 A1    5 B1                 
  0.260   0.311   0.375   0.389   0.419   0.448   0.448   0.470
  6 B1    9 A1    3 B2    7 B1    8 B1    4 B2   10 A1   11 A1                 
  0.485   0.556   0.597   0.667   0.889   0.896   0.970   1.048
  3 A2    9 B1    4 A2   10 B1   12 A1    5 B2   11 B1   13 A1                 
  1.058   1.090   1.163   1.170   1.199   1.200   1.260   1.318
 14 A1    5 A2    6 B2   15 A1   12 B1    7 B2   16 A1   13 B1                 
  1.333   1.355   1.421   1.543   1.676   1.792   1.832   1.931
  6 A2   17 A1   14 B1    7 A2   18 A1    8 B2    8 A2   15 B1                 
  1.968   1.968   1.968   1.994   2.024   2.066   2.145   2.154
 16 B1    9 B2   19 A1   20 A1   17 B1   10 B2   21 A1   11 B2                 
  2.234   2.379   2.461   2.530   2.602   2.631   2.926   2.930
 18 B1   19 B1    9 A2   22 A1   10 A2   20 B1   23 A1   12 B2                 
  3.350   3.404
 21 B1   11 A2                                                                 

--------------------------------------------------------------------------------
                                   HF Summary                                   
--------------------------------------------------------------------------------
  Energy:                                                  -78.4861920947 a.u.
  Dip. moment [a.u.]:                  [   0.000000,    0.000001,  -19.319576]
  Total dipole [Debye]:                                              49.105472
  <r^2> [a.u.]:                        [  50.653945,   25.062838,  788.455737]
  Total <r^2> [a.u.]:                                               864.172521
--------------------------------------------------------------------------------

--------------------------------------------------------------------------------
                                 MP(2) Summary                                  
--------------------------------------------------------------------------------
  MP energy contribution:                                   -0.3001305741 a.u.
  Total energy:                                            -78.7863226688 a.u.
  Dip. moment [a.u.]:                  [   0.000000,    0.000001,  -19.321008]
  Total dipole [Debye]:                                              49.109114
  <r^2> [a.u.]:                        [  50.715776,   25.048057,  788.259725]
  Total <r^2> [a.u.]:                                               864.023558

  Density matrix analysis:
  ------------------------
  NOs
    Occupation of frontier NOs:
       0.0448   1.9369
    Number of electrons: 18.000000
    Number of unpaired electrons: n_u =  0.43286, n_u,nl =  0.04690
    NO participation ratio (PR_NO): 15.332731
  
  
  Mulliken Population Analysis
  Atom      Charge (e)              h+              e-           Del q
  --------------------------------------------------------------------
   1 C       -0.237246        0.086645       -0.102785       -0.016140
   2 C       -0.237246        0.086645       -0.102785       -0.016140
   3 H        0.118615        0.018553       -0.010483        0.008070
   4 H        0.118639        0.018553       -0.010483        0.008070
   5 H        0.118631        0.018553       -0.010483        0.008070
   6 H        0.118607        0.018553       -0.010483        0.008070
   7 H       -1.000000        0.021953       -0.021953        0.000000
  --------------------------------------------------------------------
  Sum:       -1.000000        0.269455       -0.269455        0.000000
  
  Multipole moment analysis of the density matrix
    Molecular charge:                      -1.000000
    Number of electrons:                   18.000000
      Center of electronic charge [Ang]: [ -0.000000,  -0.000000,   0.568013]
    Total nuclear charge:                  17.000000
      Center of nuclear charge [Ang]:    [  0.000000,  -0.000000,  -0.000000]
    Dipole moment [D]:                     49.109099
      Cartesian components [D]:          [  0.000000,   0.000002, -49.109099]
    RMS size of the density [Ang]:         3.622029
      Cartesian components [Ang]:        [  0.888252,   0.624240,   3.455492]
  
  Exciton analysis of the difference density matrix
    <r_h> [Ang]:                  [  0.000000,   0.000000,   0.240999]
    <r_e> [Ang]:                  [ -0.000000,   0.000000,   0.243813]
    |<r_e - r_h>| [Ang]:            0.002814
    Hole size [Ang]:                3.299068
      Cartesian components [Ang]: [  0.949640,   0.730990,   3.073709]
    Electron size [Ang]:            3.275313
      Cartesian components [Ang]: [  0.982890,   0.720406,   3.040168]
--------------------------------------------------------------------------------
  Starting Davidson for singlet states of irrep B2 ... 
--------------------------------------------------------------------------------
   It NVec Conv  Avg. Norm  Max. Norm  Conv. states           Remark
--------------------------------------------------------------------------------
       100    0  1.112e-01  4.555e-01  0.0958 n n n n n n n n Guess.
    1  110    0  7.053e-03  3.221e-02  0.0684 n n n n n n n n 
    2  120    0  3.256e-03  2.985e-02  0.0684 n n n n n n n n 
    3  130    3  3.662e-03  3.660e-02  0.0684 y y n n y n n n 
    4  140    6  8.288e-04  8.288e-03  0.0684 y y y y y n n y 
    5  150    8  3.955e-02  3.955e-01  0.0684 y y y y y n y y 
    6  160    9  1.525e-02  1.525e-01  0.0684 y y n y y y y y 
    7  170    9  1.117e-02  1.117e-01  0.0684 y y n y y y y y 
    8  170    9  1.117e-02  1.117e-01  0.0684 y y n y y y y y 
    9  180    9  8.449e-03  8.449e-02  0.0684 y y n y y y y y 
   10  185    9  8.869e-03  8.869e-02  0.0684 y y n y y y y y 
   11  188    9  8.288e-03  8.288e-02  0.0684 y y n y y y y y 
   12  191    8  7.411e-03  7.411e-02  0.0684 y n n y y y y y 
   13  200    6  1.478e-03  1.477e-02  0.0684 n n n y y n y y 
   14   20    7  1.650e-05  1.622e-04  0.0684 y n n y y n y y Subspace collapsed.
   15   30    9  1.295e-06  1.171e-05  0.0684 y y n y y y y y 
   16   40   10  3.889e-07  2.749e-06  0.0684 y y y y y y y y Converged.
--------------------------------------------------------------------------------
  Davidson Summary: 
 ------------------------------------------------------------
  State  0: excitation energy =   0.0684 a.u.   (converged)
  State  1: excitation energy =   0.2657 a.u.   (converged)
  State  2: excitation energy =   0.2685 a.u.   (converged)
  State  3: excitation energy =   0.3011 a.u.   (converged)
  State  4: excitation energy =   0.3332 a.u.   (converged)
  State  5: excitation energy =   0.3580 a.u.   (converged)
  State  6: excitation energy =   0.3998 a.u.   (converged)
  State  7: excitation energy =   0.4402 a.u.   (converged)
  State  8: excitation energy =   0.4538 a.u.   (converged)
  State  9: excitation energy =   0.4869 a.u.   (converged)
 ------------------------------------------------------------


--------------------------------------------------------------------------------
                   State-averaged natural transition orbitals
--------------------------------------------------------------------------------
--------------------------------------------------------------------------------

--------------------------------------------------------------------------------
                             Excited State Summary
--------------------------------------------------------------------------------
--------------------------------------------------------------------------------

  Excited state 1 (singlet, B2)                                    [converged]
  ----------------------------------------------------------------------------
  Term symbol:  1 (1) B2                                    R^2 =  2.49990e-07

  Total energy:                                            -78.7179322800 a.u.
  Excitation energy:                                               1.860997 eV

  Osc. strength:                                                      0.000000
  Trans. dip. moment [a.u.]:           [   0.000000,    0.000030,   -0.000000]
  <i|r^2|0> [a.u.]:                    [   0.000000,   -0.000000,    0.000000]

  Dip. moment [a.u.]:                  [   0.000000,    0.000000,    1.222341]
  Total dipole [Debye]:                                               3.106881
  <r^2> [a.u.]:                        [  58.276014,   47.410807,  420.986747]
  Total <r^2> [a.u.]:                                               526.673568

  V1^2 = 0.9759, V2^2 = 0.0241

  Important amplitudes:
      occ i      occ j       vir a       vir b          v   
    ---------------------------------------------------------
     5 (A1) A               2 (B2) A                 -0.6973
     5 (A1) A   5 (A1) B   14 (A1) A    2 (B2) B      0.0434
    ---------------------------------------------------------

  Density matrix analysis:
  ------------------------
  NOs
    Occupation of frontier NOs:
       0.9931   1.0018
    Number of electrons: 18.000000
    Number of unpaired electrons: n_u =  2.41896, n_u,nl =  2.04985
    NO participation ratio (PR_NO):  2.932171
  
  
  Mulliken Population Analysis
  Atom      Charge (e)              h+              e-           Del q
  --------------------------------------------------------------------
   1 C       -0.700637        0.027053       -0.490444       -0.463391
   2 C       -0.700637        0.027053       -0.490444       -0.463391
   3 H        0.100311        0.004301       -0.022605       -0.018304
   4 H        0.100335        0.004301       -0.022605       -0.018304
   5 H        0.100326        0.004301       -0.022606       -0.018305
   6 H        0.100302        0.004301       -0.022606       -0.018305
   7 H        0.000000        1.020590       -0.020590        1.000000
  --------------------------------------------------------------------
  Sum:       -1.000000        1.091900       -1.091900        0.000000
  
  Multipole moment analysis of the density matrix
    Molecular charge:                      -1.000000
    Number of electrons:                   18.000000
      Center of electronic charge [Ang]: [ -0.000000,  -0.000000,  -0.035936]
    Total nuclear charge:                  17.000000
      Center of nuclear charge [Ang]:    [  0.000000,  -0.000000,  -0.000000]
    Dipole moment [D]:                     3.106880
      Cartesian components [D]:          [  0.000000,   0.000001,   3.106880]
    RMS size of the density [Ang]:         2.862209
      Cartesian components [Ang]:        [  0.952160,   0.858823,   2.558917]
  
  Exciton analysis of the difference density matrix
    <r_h> [Ang]:                  [ -0.000000,   0.000000,   9.539304]
    <r_e> [Ang]:                  [ -0.000000,   0.000000,  -0.416801]
    |<r_e - r_h>| [Ang]:            9.956105
    Hole size [Ang]:                2.953971
      Cartesian components [Ang]: [  0.733889,   0.715736,   2.770393]
    Electron size [Ang]:            3.610239
      Cartesian components [Ang]: [  1.574005,   2.499485,   2.075791]

  Transition density matrix analysis:
  -----------------------------------
  
  CT numbers (Mulliken)
    omega =     0.9691
    <Phe> =    -0.0000
  
  Exciton analysis of the transition density matrix
    Trans. dipole moment [D]:             0.000038
      Cartesian components [D]:         [  0.000000,   0.000038,  -0.000000]
    <r_h> [Ang]:                        [  0.000000,   0.000000,  10.246981]
    <r_e> [Ang]:                        [ -0.000000,   0.000000,  -0.640187]
    |<r_e - r_h>| [Ang]:                 10.887168
    Hole size [Ang]:                      1.111297
      Cartesian components [Ang]:       [  0.640876,   0.640874,   0.643071]
    Electron size [Ang]:                  3.390860
      Cartesian components [Ang]:       [  1.587868,   2.601470,   1.486258]
    RMS electron-hole separation [Ang]:  11.457268
      Cartesian components [Ang]:       [  1.712317,   2.679244,  11.007207]
    Covariance(r_h, r_e) [Ang^2]:        -0.002819
    Correlation coefficient:             -0.000748
    Center-of-mass size [Ang]:            1.783766
      Cartesian components [Ang]:       [  0.856163,   1.339625,   0.808831]

  Decomposition into state-averaged NTOs
    H- 0 -> L+ 0:  0.6867 ( 94.3%)
    H- 0 -> L+ 1:  0.0851 (  1.5%)
    H- 0 -> L+ 2: -0.0756 (  1.1%)
                   omega =  96.9%
  ----------------------------------------------------------------------------


  Excited state 2 (singlet, B2)                                    [converged]
  ----------------------------------------------------------------------------
  Term symbol:  2 (1) B2                                    R^2 =  2.74939e-06

  Total energy:                                            -78.5206656446 a.u.
  Excitation energy:                                               7.228895 eV

  Osc. strength:                                                      0.000000
  Trans. dip. moment [a.u.]:           [   0.000000,   -0.000012,   -0.000000]
  <i|r^2|0> [a.u.]:                    [  -0.000000,    0.000000,    0.000000]

  Dip. moment [a.u.]:                  [   0.000000,   -0.000011,    1.228479]
  Total dipole [Debye]:                                               3.122483
  <r^2> [a.u.]:                        [  57.930221,   34.056528,  417.536429]
  Total <r^2> [a.u.]:                                               509.523178

  V1^2 = 0.9523, V2^2 = 0.0477

  Important amplitudes:
      occ i      occ j       vir a       vir b          v   
    ---------------------------------------------------------
     5 (A1) A               3 (B2) A                 -0.6854
     5 (A1) A               4 (B2) A                 -0.0497
    ---------------------------------------------------------

  Density matrix analysis:
  ------------------------
  NOs
    Occupation of frontier NOs:
       0.9805   1.0012
    Number of electrons: 18.000000
    Number of unpaired electrons: n_u =  2.44856, n_u,nl =  2.05970
    NO participation ratio (PR_NO):  3.035892
  
  
  Mulliken Population Analysis
  Atom      Charge (e)              h+              e-           Del q
  --------------------------------------------------------------------
   1 C       -0.196081        0.099083       -0.057918        0.041165
   2 C       -0.196081        0.099083       -0.057918        0.041165
   3 H       -0.151964        0.012157       -0.282736       -0.270579
   4 H       -0.151943        0.012157       -0.282740       -0.270583
   5 H       -0.151956        0.012157       -0.282743       -0.270586
   6 H       -0.151976        0.012157       -0.282740       -0.270583
   7 H        0.000000        1.018398       -0.018398        1.000000
  --------------------------------------------------------------------
  Sum:       -1.000000        1.265192       -1.265192        0.000000
  
  Multipole moment analysis of the density matrix
    Molecular charge:                      -1.000000
    Number of electrons:                   18.000000
      Center of electronic charge [Ang]: [ -0.000000,   0.000000,  -0.036116]
    Total nuclear charge:                  17.000000
      Center of nuclear charge [Ang]:    [  0.000000,  -0.000000,  -0.000000]
    Dipole moment [D]:                     3.122482
      Cartesian components [D]:          [  0.000000,  -0.000027,   3.122482]
    RMS size of the density [Ang]:         2.815212
      Cartesian components [Ang]:        [  0.949331,   0.727889,   2.548405]
  
  Exciton analysis of the difference density matrix
    <r_h> [Ang]:                  [ -0.000000,   0.000000,   8.124825]
    <r_e> [Ang]:                  [ -0.000000,   0.000005,  -0.470175]
    |<r_e - r_h>| [Ang]:            8.594999
    Hole size [Ang]:                4.493549
      Cartesian components [Ang]: [  0.775110,   0.720164,   4.367213]
    Electron size [Ang]:            2.742461
      Cartesian components [Ang]: [  1.482427,   1.585089,   1.676602]

  Transition density matrix analysis:
  -----------------------------------
  
  CT numbers (Mulliken)
    omega =     0.9428
    <Phe> =     0.0001
  
  Exciton analysis of the transition density matrix
    Trans. dipole moment [D]:             0.000015
      Cartesian components [D]:         [  0.000000,  -0.000015,  -0.000000]
    <r_h> [Ang]:                        [  0.000000,   0.000000,  10.246342]
    <r_e> [Ang]:                        [ -0.000000,   0.000007,  -0.639486]
    |<r_e - r_h>| [Ang]:                 10.885828
    Hole size [Ang]:                      1.114251
      Cartesian components [Ang]:       [  0.640790,   0.640783,   0.648337]
    Electron size [Ang]:                  2.494684
      Cartesian components [Ang]:       [  1.498389,   1.690032,   1.059278]
    RMS electron-hole separation [Ang]:  11.224339
      Cartesian components [Ang]:       [  1.629646,   1.807427,  10.957338]
    Covariance(r_h, r_e) [Ang^2]:        -0.009761
    Correlation coefficient:             -0.003511
    Center-of-mass size [Ang]:            1.364320
      Cartesian components [Ang]:       [  0.814834,   0.903719,   0.617016]

  Decomposition into state-averaged NTOs
    H- 0 -> L+ 1: -0.6770 ( 91.7%)
    H- 0 -> L+ 0:  0.0820 (  1.3%)
    H- 0 -> L+ 2:  0.0731 (  1.1%)
                   omega =  94.3%
  ----------------------------------------------------------------------------


  Excited state 3 (singlet, B2)                                    [converged]
  ----------------------------------------------------------------------------
  Term symbol:  3 (1) B2                                    R^2 =  2.57008e-06

  Total energy:                                            -78.5177888482 a.u.
  Excitation energy:                                               7.307177 eV

  Osc. strength:                                                      0.000000
  Trans. dip. moment [a.u.]:           [   0.000000,    0.000000,   -0.000000]
  <i|r^2|0> [a.u.]:                    [   0.000000,    0.000000,   -0.000000]

  Dip. moment [a.u.]:                  [   0.000000,    0.000001,   21.293379]
  Total dipole [Debye]:                                              54.122382
  <r^2> [a.u.]:                        [  67.914040,   55.688280,   69.566634]
  Total <r^2> [a.u.]:                                               193.168954

  V1^2 = 0.0000, V2^2 = 1.0000

  Important amplitudes:
      occ i      occ j       vir a       vir b          v   
    ---------------------------------------------------------
     5 (A1) A   5 (A1) B    7 (A1) A    2 (B2) B     -0.3536
     5 (A1) A               3 (B2) A                 -0.0003
    ---------------------------------------------------------

  Density matrix analysis:
  ------------------------
  NOs
    Occupation of frontier NOs:
       1.0020   1.0023
    Number of electrons: 18.000000
    Number of unpaired electrons: n_u =  2.40129, n_u,nl =  2.04895
    NO participation ratio (PR_NO):  2.877103
  
  
  Mulliken Population Analysis
  Atom      Charge (e)              h+              e-           Del q
  --------------------------------------------------------------------
   1 C       -1.217237        0.000000       -0.979991       -0.979991
   2 C       -1.217237        0.000000       -0.979991       -0.979991
   3 H        0.108611        0.000000       -0.010005       -0.010005
   4 H        0.108635        0.000000       -0.010004       -0.010004
   5 H        0.108627        0.000000       -0.010004       -0.010004
   6 H        0.108602        0.000000       -0.010005       -0.010005
   7 H        1.000000        2.000000       -0.000000        2.000000
  --------------------------------------------------------------------
  Sum:       -1.000000        2.000000       -2.000000       -0.000000
  
  Multipole moment analysis of the density matrix
    Molecular charge:                      -1.000000
    Number of electrons:                   18.000000
      Center of electronic charge [Ang]: [ -0.000000,  -0.000000,  -0.625999]
    Total nuclear charge:                  17.000000
      Center of nuclear charge [Ang]:    [  0.000000,  -0.000000,  -0.000000]
    Dipole moment [D]:                     54.122366
      Cartesian components [D]:          [  0.000000,   0.000004,  54.122366]
    RMS size of the density [Ang]:         1.616565
      Cartesian components [Ang]:        [  1.027885,   0.930779,   0.830893]
  
  Exciton analysis of the difference density matrix
    <r_h> [Ang]:                  [ -0.000000,   0.000000,  10.247255]
    <r_e> [Ang]:                  [  0.000000,  -0.000000,  -0.498850]
    |<r_e - r_h>| [Ang]:           10.746105
    Hole size [Ang]:                1.111207
      Cartesian components [Ang]: [  0.641555,   0.641555,   0.641557]
    Electron size [Ang]:            3.473174
      Cartesian components [Ang]: [  1.679165,   2.168332,   2.131122]

  Transition density matrix analysis:
  -----------------------------------
  
  CT numbers (Mulliken)
    omega =     0.0000
    <Phe> =     0.0001
  
  Exciton analysis of the transition density matrix
    ... vanishing.

  Decomposition into state-averaged NTOs
                   omega =   0.0%
  ----------------------------------------------------------------------------


  Excited state 4 (singlet, B2)                                    [converged]
  ----------------------------------------------------------------------------
  Term symbol:  4 (1) B2                                    R^2 =  2.54845e-09

  Total energy:                                            -78.4851829124 a.u.
  Excitation energy:                                               8.194430 eV

  Osc. strength:                                                      0.000052
  Trans. dip. moment [a.u.]:           [  -0.000003,    0.016080,    0.000004]
  <i|r^2|0> [a.u.]:                    [   0.000000,    0.000000,    0.000009]

  Dip. moment [a.u.]:                  [   0.000000,   -0.000006,  -19.337197]
  Total dipole [Debye]:                                              49.150262
  <r^2> [a.u.]:                        [  55.250279,   42.828877,  791.332722]
  Total <r^2> [a.u.]:                                               889.411878

  V1^2 = 0.9551, V2^2 = 0.0449

  Important amplitudes:
      occ i      occ j       vir a       vir b          v   
    ---------------------------------------------------------
     4 (A1) A               2 (B2) A                  0.6678
     4 (A1) A               3 (B2) A                  0.1364
    ---------------------------------------------------------

  Density matrix analysis:
  ------------------------
  NOs
    Occupation of frontier NOs:
       0.9868   0.9892
    Number of electrons: 18.000000
    Number of unpaired electrons: n_u =  2.32483, n_u,nl =  2.02737
    NO participation ratio (PR_NO):  2.758272
  
  
  Mulliken Population Analysis
  Atom      Charge (e)              h+              e-           Del q
  --------------------------------------------------------------------
   1 C       -0.300649        0.516864       -0.580267       -0.063403
   2 C       -0.300649        0.516864       -0.580267       -0.063403
   3 H        0.150317        0.081479       -0.049777        0.031702
   4 H        0.150340        0.081479       -0.049778        0.031701
   5 H        0.150333        0.081481       -0.049779        0.031702
   6 H        0.150309        0.081481       -0.049778        0.031702
   7 H       -1.000000        0.000079       -0.000079        0.000000
  --------------------------------------------------------------------
  Sum:       -1.000000        1.359726       -1.359726        0.000000
  
  Multipole moment analysis of the density matrix
    Molecular charge:                      -1.000000
    Number of electrons:                   18.000000
      Center of electronic charge [Ang]: [ -0.000000,   0.000000,   0.568489]
    Total nuclear charge:                  17.000000
      Center of nuclear charge [Ang]:    [  0.000000,  -0.000000,  -0.000000]
    Dipole moment [D]:                     49.150248
      Cartesian components [D]:          [  0.000000,  -0.000016, -49.150248]
    RMS size of the density [Ang]:         3.676075
      Cartesian components [Ang]:        [  0.927112,   0.816269,   3.462325]
  
  Exciton analysis of the difference density matrix
    <r_h> [Ang]:                  [ -0.000000,   0.000000,  -0.647312]
    <r_e> [Ang]:                  [ -0.000000,   0.000003,  -0.641011]
    |<r_e - r_h>| [Ang]:            0.006300
    Hole size [Ang]:                1.543530
      Cartesian components [Ang]: [  1.005198,   0.789411,   0.865386]
    Electron size [Ang]:            2.760289
      Cartesian components [Ang]: [  1.394375,   2.070033,   1.178931]

  Transition density matrix analysis:
  -----------------------------------
  
  CT numbers (Mulliken)
    omega =     0.9233
    <Phe> =    -0.0039
  
  Exciton analysis of the transition density matrix
    Trans. dipole moment [D]:             0.020435
      Cartesian components [D]:         [ -0.000004,   0.020435,   0.000005]
    <r_h> [Ang]:                        [ -0.000000,  -0.000000,  -0.647126]
    <r_e> [Ang]:                        [ -0.000000,   0.000003,  -0.640635]
    |<r_e - r_h>| [Ang]:                  0.006491
    Hole size [Ang]:                      1.254044
      Cartesian components [Ang]:       [  0.757960,   0.511592,   0.858136]
    Electron size [Ang]:                  3.116385
      Cartesian components [Ang]:       [  1.521610,   2.371976,   1.330522]
    RMS electron-hole separation [Ang]:   3.356009
      Cartesian components [Ang]:       [  1.695004,   2.425595,   1.583113]
    Covariance(r_h, r_e) [Ang^2]:         0.010865
    Correlation coefficient:              0.002780
    Center-of-mass size [Ang]:            1.681236
      Cartesian components [Ang]:       [  0.852432,   1.213722,   0.791702]

  Decomposition into state-averaged NTOs
    H- 2 -> L+ 0: -0.6770 ( 91.7%)
                   omega =  92.3%
  ----------------------------------------------------------------------------


  Excited state 5 (singlet, B2)                                    [converged]
  ----------------------------------------------------------------------------
  Term symbol:  5 (1) B2                                    R^2 =  1.59918e-10

  Total energy:                                            -78.4531268528 a.u.
  Excitation energy:                                               9.066719 eV

  Osc. strength:                                                      0.000026
  Trans. dip. moment [a.u.]:           [   0.000001,    0.010740,   -0.000001]
  <i|r^2|0> [a.u.]:                    [  -0.000000,    0.000000,   -0.000002]

  Dip. moment [a.u.]:                  [   0.000000,    0.000000,  -19.254535]
  Total dipole [Debye]:                                              48.940156
  <r^2> [a.u.]:                        [  51.502250,   23.665451,  791.628873]
  Total <r^2> [a.u.]:                                               866.796574

  V1^2 = 0.9523, V2^2 = 0.0477

  Important amplitudes:
      occ i      occ j       vir a       vir b          v   
    ---------------------------------------------------------
     1 (A2) A               4 (B1) A                  0.5301
     1 (A2) A               5 (B1) A                 -0.3509
    ---------------------------------------------------------

  Density matrix analysis:
  ------------------------
  NOs
    Occupation of frontier NOs:
       0.9934   1.0171
    Number of electrons: 18.000000
    Number of unpaired electrons: n_u =  2.39598, n_u,nl =  2.04487
    NO participation ratio (PR_NO):  2.921646
  
  
  Mulliken Population Analysis
  Atom      Charge (e)              h+              e-           Del q
  --------------------------------------------------------------------
   1 C       -0.461740        0.289302       -0.513796       -0.224494
   2 C       -0.461740        0.289302       -0.513796       -0.224494
   3 H        0.230862        0.119248       -0.007000        0.112247
   4 H        0.230886        0.119248       -0.007000        0.112247
   5 H        0.230878        0.119247       -0.007000        0.112247
   6 H        0.230854        0.119247       -0.007000        0.112247
   7 H       -1.000000        0.000022       -0.000022       -0.000000
  --------------------------------------------------------------------
  Sum:       -1.000000        1.055615       -1.055615       -0.000000
  
  Multipole moment analysis of the density matrix
    Molecular charge:                      -1.000000
    Number of electrons:                   18.000000
      Center of electronic charge [Ang]: [ -0.000000,  -0.000000,   0.566059]
    Total nuclear charge:                  17.000000
      Center of nuclear charge [Ang]:    [  0.000000,  -0.000000,  -0.000000]
    Dipole moment [D]:                     48.940142
      Cartesian components [D]:          [  0.000000,   0.000001, -48.940142]
    RMS size of the density [Ang]:         3.628285
      Cartesian components [Ang]:        [  0.895113,   0.606767,   3.463388]
  
  Exciton analysis of the difference density matrix
    <r_h> [Ang]:                  [ -0.000000,  -0.000000,  -0.642180]
    <r_e> [Ang]:                  [ -0.000000,  -0.000000,  -0.675503]
    |<r_e - r_h>| [Ang]:            0.033323
    Hole size [Ang]:                1.499988
      Cartesian components [Ang]: [  1.102350,   0.908502,   0.457615]
    Electron size [Ang]:            1.715129
      Cartesian components [Ang]: [  1.193234,   0.677204,   1.029201]

  Transition density matrix analysis:
  -----------------------------------
  
  CT numbers (Mulliken)
    omega =     0.9217
    <Phe> =    -0.0125
  
  Exciton analysis of the transition density matrix
    Trans. dipole moment [D]:             0.013649
      Cartesian components [D]:         [  0.000001,   0.013649,  -0.000001]
    <r_h> [Ang]:                        [ -0.000000,  -0.000000,  -0.640970]
    <r_e> [Ang]:                        [ -0.000000,  -0.000000,  -0.678134]
    |<r_e - r_h>| [Ang]:                  0.037164
    Hole size [Ang]:                      1.507027
      Cartesian components [Ang]:       [  1.112184,   0.926664,   0.418896]
    Electron size [Ang]:                  1.730665
      Cartesian components [Ang]:       [  1.204601,   0.663342,   1.050769]
    RMS electron-hole separation [Ang]:   2.276271
      Cartesian components [Ang]:       [  1.615350,   1.136643,   1.131413]
    Covariance(r_h, r_e) [Ang^2]:         0.043153
    Correlation coefficient:              0.016545
    Center-of-mass size [Ang]:            1.156788
      Cartesian components [Ang]:       [  0.831667,   0.571292,   0.565787]

  Decomposition into state-averaged NTOs
    H- 1 -> L+ 3: -0.6509 ( 84.7%)
    H- 1 -> L+ 5: -0.1773 (  6.3%)
                   omega =  92.2%
  ----------------------------------------------------------------------------


  Excited state 6 (singlet, B2)                                    [converged]
  ----------------------------------------------------------------------------
  Term symbol:  6 (1) B2                                    R^2 =  9.48820e-07

  Total energy:                                            -78.4283412173 a.u.
  Excitation energy:                                               9.741171 eV

  Osc. strength:                                                      0.000000
  Trans. dip. moment [a.u.]:           [   0.000000,   -0.000003,   -0.000000]
  <i|r^2|0> [a.u.]:                    [   0.000000,   -0.000000,    0.000000]

  Dip. moment [a.u.]:                  [   0.000000,    0.000092,    1.225324]
  Total dipole [Debye]:                                               3.114462
  <r^2> [a.u.]:                        [  54.574513,   37.565623,  418.793089]
  Total <r^2> [a.u.]:                                               510.933224

  V1^2 = 0.9673, V2^2 = 0.0327

  Important amplitudes:
      occ i      occ j       vir a       vir b          v   
    ---------------------------------------------------------
     5 (A1) A               4 (B2) A                 -0.6925
     5 (A1) A               3 (B2) A                  0.0566
    ---------------------------------------------------------

  Density matrix analysis:
  ------------------------
  NOs
    Occupation of frontier NOs:
       0.9874   1.0016
    Number of electrons: 18.000000
    Number of unpaired electrons: n_u =  2.43237, n_u,nl =  2.05266
    NO participation ratio (PR_NO):  2.979636
  
  
  Mulliken Population Analysis
  Atom      Charge (e)              h+              e-           Del q
  --------------------------------------------------------------------
   1 C       -1.077186        0.073405       -0.913344       -0.839940
   2 C       -1.077186        0.073405       -0.913344       -0.839940
   3 H        0.288577        0.006005        0.163957        0.169962
   4 H        0.288601        0.006005        0.163957        0.169961
   5 H        0.288609        0.006004        0.163973        0.169978
   6 H        0.288585        0.006004        0.163974        0.169978
   7 H        0.000000        1.019828       -0.019828        1.000000
  --------------------------------------------------------------------
  Sum:       -1.000000        1.190655       -1.190655       -0.000000
  
  Multipole moment analysis of the density matrix
    Molecular charge:                      -1.000000
    Number of electrons:                   18.000000
      Center of electronic charge [Ang]: [ -0.000000,  -0.000003,  -0.036023]
    Total nuclear charge:                  17.000000
      Center of nuclear charge [Ang]:    [  0.000000,  -0.000000,  -0.000000]
    Dipole moment [D]:                     3.114461
      Cartesian components [D]:          [  0.000000,   0.000233,   3.114461]
    RMS size of the density [Ang]:         2.819107
      Cartesian components [Ang]:        [  0.921425,   0.764470,   2.552239]
  
  Exciton analysis of the difference density matrix
    <r_h> [Ang]:                  [  0.000000,   0.000001,   8.687053]
    <r_e> [Ang]:                  [ -0.000000,  -0.000040,  -0.444605]
    |<r_e - r_h>| [Ang]:            9.131657
    Hole size [Ang]:                4.017782
      Cartesian components [Ang]: [  0.764454,   0.724867,   3.877209]
    Electron size [Ang]:            2.892563
      Cartesian components [Ang]: [  1.221442,   1.862639,   1.845421]

  Transition density matrix analysis:
  -----------------------------------
  
  CT numbers (Mulliken)
    omega =     0.9602
    <Phe> =    -0.0000
  
  Exciton analysis of the transition density matrix
    Trans. dipole moment [D]:             0.000003
      Cartesian components [D]:         [  0.000000,  -0.000003,  -0.000000]
    <r_h> [Ang]:                        [  0.000000,   0.000000,  10.246971]
    <r_e> [Ang]:                        [ -0.000000,  -0.000049,  -0.640184]
    |<r_e - r_h>| [Ang]:                 10.887154
    Hole size [Ang]:                      1.111286
      Cartesian components [Ang]:       [  0.640841,   0.640839,   0.643121]
    Electron size [Ang]:                  2.606838
      Cartesian components [Ang]:       [  1.151112,   1.983977,   1.238702]
    RMS electron-hole separation [Ang]:  11.250180
      Cartesian components [Ang]:       [  1.317470,   2.084905,  10.976521]
    Covariance(r_h, r_e) [Ang^2]:        -0.002933
    Correlation coefficient:             -0.001013
    Center-of-mass size [Ang]:            1.416395
      Cartesian components [Ang]:       [  0.658738,   1.042455,   0.696796]

  Decomposition into state-averaged NTOs
    H- 0 -> L+ 2:  0.6850 ( 93.9%)
    H- 0 -> L+ 1:  0.0856 (  1.5%)
                   omega =  96.0%
  ----------------------------------------------------------------------------


  Excited state 7 (singlet, B2)                                    [converged]
  ----------------------------------------------------------------------------
  Term symbol:  7 (1) B2                                    R^2 =  8.55660e-11

  Total energy:                                            -78.3865273364 a.u.
  Excitation energy:                                              10.878984 eV

  Osc. strength:                                                      0.126130
  Trans. dip. moment [a.u.]:           [  -0.000000,   -0.687916,   -0.000000]
  <i|r^2|0> [a.u.]:                    [   0.000005,   -0.000006,   -0.000001]

  Dip. moment [a.u.]:                  [   0.000000,   -0.000001,  -19.101576]
  Total dipole [Debye]:                                              48.551372
  <r^2> [a.u.]:                        [  72.224649,   28.961348,  794.236003]
  Total <r^2> [a.u.]:                                               895.422000

  V1^2 = 0.9413, V2^2 = 0.0587

  Important amplitudes:
      occ i      occ j       vir a       vir b          v   
    ---------------------------------------------------------
     1 (A2) A               3 (B1) A                 -0.6382
     1 (A2) A               4 (B1) A                  0.1759
    ---------------------------------------------------------

  Density matrix analysis:
  ------------------------
  NOs
    Occupation of frontier NOs:
       0.9659   1.0417
    Number of electrons: 18.000000
    Number of unpaired electrons: n_u =  2.45396, n_u,nl =  2.07709
    NO participation ratio (PR_NO):  3.214802
  
  
  Mulliken Population Analysis
  Atom      Charge (e)              h+              e-           Del q
  --------------------------------------------------------------------
   1 C       -0.509109        0.278748       -0.550611       -0.271863
   2 C       -0.509109        0.278748       -0.550611       -0.271863
   3 H        0.254544        0.177622       -0.041693        0.135929
   4 H        0.254569        0.177623       -0.041692        0.135930
   5 H        0.254564        0.177625       -0.041691        0.135934
   6 H        0.254539        0.177625       -0.041692        0.135932
   7 H       -1.000000        0.000092       -0.000092        0.000000
  --------------------------------------------------------------------
  Sum:       -1.000000        1.268082       -1.268082       -0.000000
  
  Multipole moment analysis of the density matrix
    Molecular charge:                      -1.000000
    Number of electrons:                   18.000000
      Center of electronic charge [Ang]: [ -0.000000,  -0.000000,   0.561562]
    Total nuclear charge:                  17.000000
      Center of nuclear charge [Ang]:    [  0.000000,  -0.000000,  -0.000000]
    Dipole moment [D]:                     48.551358
      Cartesian components [D]:          [  0.000000,  -0.000003, -48.551358]
    RMS size of the density [Ang]:         3.689831
      Cartesian components [Ang]:        [  1.060004,   0.671234,   3.469970]
  
  Exciton analysis of the difference density matrix
    <r_h> [Ang]:                  [ -0.000000,  -0.000001,  -0.651769]
    <r_e> [Ang]:                  [ -0.000000,   0.000000,  -0.743339]
    |<r_e - r_h>| [Ang]:            0.091570
    Hole size [Ang]:                1.698228
      Cartesian components [Ang]: [  1.213712,   0.990759,   0.655194]
    Electron size [Ang]:            3.112860
      Cartesian components [Ang]: [  2.494568,   1.358591,   1.273287]

  Transition density matrix analysis:
  -----------------------------------
  
  CT numbers (Mulliken)
    omega =     0.9256
    <Phe> =    -0.0071
  
  Exciton analysis of the transition density matrix
    Trans. dipole moment [D]:             0.874254
      Cartesian components [D]:         [ -0.000000,  -0.874254,  -0.000000]
    <r_h> [Ang]:                        [ -0.000000,  -0.000000,  -0.641009]
    <r_e> [Ang]:                        [ -0.000000,   0.000000,  -0.767162]
    |<r_e - r_h>| [Ang]:                  0.126154
    Hole size [Ang]:                      1.513484
      Cartesian components [Ang]:       [  1.118648,   0.931478,   0.414258]
    Electron size [Ang]:                  3.419157
      Cartesian components [Ang]:       [  2.754314,   1.487563,   1.375334]
    RMS electron-hole separation [Ang]:   3.570929
      Cartesian components [Ang]:       [  2.785574,   1.707066,   1.441541]
    Covariance(r_h, r_e) [Ang^2]:         0.622823
    Correlation coefficient:              0.120356
    Center-of-mass size [Ang]:            1.951084
      Cartesian components [Ang]:       [  1.574469,   0.900960,   0.718363]

  Decomposition into state-averaged NTOs
    H- 1 -> L+ 4: -0.6660 ( 88.7%)
    H- 3 -> L+ 0: -0.0792 (  1.3%)
    H- 1 -> L+ 5: -0.0755 (  1.1%)
                   omega =  92.6%
  ----------------------------------------------------------------------------


  Excited state 8 (singlet, B2)                                    [converged]
  ----------------------------------------------------------------------------
  Term symbol:  8 (1) B2                                    R^2 =  1.01684e-08

  Total energy:                                            -78.3461232004 a.u.
  Excitation energy:                                              11.978437 eV

  Osc. strength:                                                      0.092513
  Trans. dip. moment [a.u.]:           [  -0.000002,   -0.561465,   -0.000000]
  <i|r^2|0> [a.u.]:                    [   0.000049,    0.000013,    0.000006]

  Dip. moment [a.u.]:                  [   0.000000,   -0.000006,  -19.324647]
  Total dipole [Debye]:                                              49.118363
  <r^2> [a.u.]:                        [  53.732980,   42.530958,  793.141416]
  Total <r^2> [a.u.]:                                               889.405354

  V1^2 = 0.9320, V2^2 = 0.0680

  Important amplitudes:
      occ i      occ j       vir a       vir b          v   
    ---------------------------------------------------------
     3 (A1) A               2 (B2) A                 -0.6570
     3 (A1) A               3 (B2) A                 -0.1273
    ---------------------------------------------------------

  Density matrix analysis:
  ------------------------
  NOs
    Occupation of frontier NOs:
       0.9746   1.0209
    Number of electrons: 18.000000
    Number of unpaired electrons: n_u =  2.43623, n_u,nl =  2.06191
    NO participation ratio (PR_NO):  3.082697
  
  
  Mulliken Population Analysis
  Atom      Charge (e)              h+              e-           Del q
  --------------------------------------------------------------------
   1 C       -0.395890        0.431221       -0.589866       -0.158644
   2 C       -0.395890        0.431221       -0.589866       -0.158644
   3 H        0.197937        0.133876       -0.054555        0.079322
   4 H        0.197961        0.133877       -0.054556        0.079322
   5 H        0.197953        0.133880       -0.054557        0.079322
   6 H        0.197929        0.133878       -0.054556        0.079323
   7 H       -1.000000        0.000051       -0.000051        0.000000
  --------------------------------------------------------------------
  Sum:       -1.000000        1.398005       -1.398005       -0.000000
  
  Multipole moment analysis of the density matrix
    Molecular charge:                      -1.000000
    Number of electrons:                   18.000000
      Center of electronic charge [Ang]: [ -0.000000,   0.000000,   0.568120]
    Total nuclear charge:                  17.000000
      Center of nuclear charge [Ang]:    [  0.000000,  -0.000000,  -0.000000]
    Dipole moment [D]:                     49.118348
      Cartesian components [D]:          [  0.000000,  -0.000016, -49.118348]
    RMS size of the density [Ang]:         3.676118
      Cartesian components [Ang]:        [  0.914293,   0.813425,   3.466447]
  
  Exciton analysis of the difference density matrix
    <r_h> [Ang]:                  [ -0.000000,  -0.000000,  -0.646438]
    <r_e> [Ang]:                  [ -0.000000,   0.000002,  -0.645060]
    |<r_e - r_h>| [Ang]:            0.001377
    Hole size [Ang]:                1.586654
      Cartesian components [Ang]: [  1.170687,   0.839586,   0.664875]
    Electron size [Ang]:            2.757421
      Cartesian components [Ang]: [  1.405301,   2.051056,   1.192338]

  Transition density matrix analysis:
  -----------------------------------
  
  CT numbers (Mulliken)
    omega =     0.9137
    <Phe> =    -0.0044
  
  Exciton analysis of the transition density matrix
    Trans. dipole moment [D]:             0.713551
      Cartesian components [D]:         [ -0.000002,  -0.713551,  -0.000000]
    <r_h> [Ang]:                        [ -0.000000,  -0.000000,  -0.641334]
    <r_e> [Ang]:                        [ -0.000000,   0.000003,  -0.644372]
    |<r_e - r_h>| [Ang]:                  0.003038
    Hole size [Ang]:                      1.324977
      Cartesian components [Ang]:       [  1.101140,   0.615641,   0.405018]
    Electron size [Ang]:                  3.148201
      Cartesian components [Ang]:       [  1.566357,   2.379524,   1.339985]
    RMS electron-hole separation [Ang]:   3.373852
      Cartesian components [Ang]:       [  1.855975,   2.445124,   1.399857]
    Covariance(r_h, r_e) [Ang^2]:         0.141933
    Correlation coefficient:              0.034026
    Center-of-mass size [Ang]:            1.728482
      Cartesian components [Ang]:       [  0.985815,   1.235280,   0.699930]

  Decomposition into state-averaged NTOs
    H- 3 -> L+ 0: -0.6689 ( 89.5%)
    H- 1 -> L+ 4:  0.0811 (  1.3%)
                   omega =  91.4%
  ----------------------------------------------------------------------------


  Excited state 9 (singlet, B2)                                    [converged]
  ----------------------------------------------------------------------------
  Term symbol:  9 (1) B2                                    R^2 =  5.06828e-10

  Total energy:                                            -78.3324928669 a.u.
  Excitation energy:                                              12.349337 eV

  Osc. strength:                                                      0.000023
  Trans. dip. moment [a.u.]:           [   0.000001,   -0.008754,   -0.000001]
  <i|r^2|0> [a.u.]:                    [   0.000000,    0.000000,   -0.000003]

  Dip. moment [a.u.]:                  [   0.000000,    0.000006,  -19.336512]
  Total dipole [Debye]:                                              49.148520
  <r^2> [a.u.]:                        [  54.567117,   33.354870,  789.773241]
  Total <r^2> [a.u.]:                                               877.695228

  V1^2 = 0.9614, V2^2 = 0.0386

  Important amplitudes:
      occ i      occ j       vir a       vir b          v   
    ---------------------------------------------------------
     4 (A1) A               3 (B2) A                  0.6695
     4 (A1) A               2 (B2) A                 -0.1301
    ---------------------------------------------------------

  Density matrix analysis:
  ------------------------
  NOs
    Occupation of frontier NOs:
       0.9774   0.9905
    Number of electrons: 18.000000
    Number of unpaired electrons: n_u =  2.32922, n_u,nl =  2.02751
    NO participation ratio (PR_NO):  2.791047
  
  
  Mulliken Population Analysis
  Atom      Charge (e)              h+              e-           Del q
  --------------------------------------------------------------------
   1 C       -0.015321        0.566605       -0.344680        0.221925
   2 C       -0.015321        0.566605       -0.344680        0.221925
   3 H        0.007653        0.028627       -0.139590       -0.110962
   4 H        0.007675        0.028627       -0.139592       -0.110965
   5 H        0.007669        0.028628       -0.139590       -0.110962
   6 H        0.007647        0.028628       -0.139588       -0.110960
   7 H       -1.000000        0.000044       -0.000044        0.000000
  --------------------------------------------------------------------
  Sum:       -1.000000        1.247765       -1.247765        0.000000
  
  Multipole moment analysis of the density matrix
    Molecular charge:                      -1.000000
    Number of electrons:                   18.000000
      Center of electronic charge [Ang]: [ -0.000000,  -0.000000,   0.568469]
    Total nuclear charge:                  17.000000
      Center of nuclear charge [Ang]:    [  0.000000,  -0.000000,  -0.000000]
    Dipole moment [D]:                     49.148505
      Cartesian components [D]:          [  0.000000,   0.000016, -49.148505]
    RMS size of the density [Ang]:         3.651201
      Cartesian components [Ang]:        [  0.921362,   0.720352,   3.458823]
  
  Exciton analysis of the difference density matrix
    <r_h> [Ang]:                  [ -0.000000,  -0.000000,  -0.647254]
    <r_e> [Ang]:                  [ -0.000000,  -0.000003,  -0.640679]
    |<r_e - r_h>| [Ang]:            0.006575
    Hole size [Ang]:                1.471735
      Cartesian components [Ang]: [  0.931512,   0.738955,   0.867315]
    Electron size [Ang]:            2.289700
      Cartesian components [Ang]: [  1.316073,   1.552515,   1.048987]

  Transition density matrix analysis:
  -----------------------------------
  
  CT numbers (Mulliken)
    omega =     0.9282
    <Phe> =    -0.0105
  
  Exciton analysis of the transition density matrix
    Trans. dipole moment [D]:             0.011126
      Cartesian components [D]:         [  0.000001,  -0.011126,  -0.000002]
    <r_h> [Ang]:                        [ -0.000000,  -0.000000,  -0.647132]
    <r_e> [Ang]:                        [  0.000000,  -0.000003,  -0.640172]
    |<r_e - r_h>| [Ang]:                  0.006960
    Hole size [Ang]:                      1.251571
      Cartesian components [Ang]:       [  0.758102,   0.512139,   0.854064]
    Electron size [Ang]:                  2.472495
      Cartesian components [Ang]:       [  1.407461,   1.690813,   1.128467]
    RMS electron-hole separation [Ang]:   2.759154
      Cartesian components [Ang]:       [  1.579939,   1.765156,   1.414549]
    Covariance(r_h, r_e) [Ang^2]:         0.033391
    Correlation coefficient:              0.010790
    Center-of-mass size [Ang]:            1.391622
      Cartesian components [Ang]:       [  0.808567,   0.884095,   0.707959]

  Decomposition into state-averaged NTOs
    H- 2 -> L+ 1:  0.6768 ( 91.6%)
                   omega =  92.8%
  ----------------------------------------------------------------------------


  Excited state 10 (singlet, B2)                                    [converged]
  ----------------------------------------------------------------------------
  Term symbol:  10 (1) B2                                   R^2 =  1.37429e-09

  Total energy:                                            -78.2994435890 a.u.
  Excitation energy:                                              13.248654 eV

  Osc. strength:                                                      0.000013
  Trans. dip. moment [a.u.]:           [  -0.000001,    0.006365,    0.000000]
  <i|r^2|0> [a.u.]:                    [   0.000000,    0.000001,    0.000001]

  Dip. moment [a.u.]:                  [   0.000000,   -0.000000,  -19.111917]
  Total dipole [Debye]:                                              48.577656
  <r^2> [a.u.]:                        [  65.480771,   27.697544,  806.699652]
  Total <r^2> [a.u.]:                                               899.877967

  V1^2 = 0.9401, V2^2 = 0.0599

  Important amplitudes:
      occ i      occ j       vir a       vir b          v   
    ---------------------------------------------------------
     1 (A2) A               5 (B1) A                 -0.4909
     1 (A2) A               4 (B1) A                 -0.3872
    ---------------------------------------------------------

  Density matrix analysis:
  ------------------------
  NOs
    Occupation of frontier NOs:
       0.9736   1.0336
    Number of electrons: 18.000000
    Number of unpaired electrons: n_u =  2.45551, n_u,nl =  2.07631
    NO participation ratio (PR_NO):  3.168083
  
  
  Mulliken Population Analysis
  Atom      Charge (e)              h+              e-           Del q
  --------------------------------------------------------------------
   1 C       -0.545745        0.304720       -0.613220       -0.308499
   2 C       -0.545745        0.304720       -0.613220       -0.308499
   3 H        0.272864        0.163748       -0.009499        0.154249
   4 H        0.272888        0.163748       -0.009499        0.154249
   5 H        0.272882        0.163750       -0.009499        0.154251
   6 H        0.272857        0.163750       -0.009499        0.154251
   7 H       -1.000000        0.000034       -0.000034        0.000000
  --------------------------------------------------------------------
  Sum:       -1.000000        1.264470       -1.264470       -0.000000
  
  Multipole moment analysis of the density matrix
    Molecular charge:                      -1.000000
    Number of electrons:                   18.000000
      Center of electronic charge [Ang]: [ -0.000000,  -0.000000,   0.561866]
    Total nuclear charge:                  17.000000
      Center of nuclear charge [Ang]:    [  0.000000,  -0.000000,  -0.000000]
    Dipole moment [D]:                     48.577641
      Cartesian components [D]:          [  0.000000,  -0.000001, -48.577641]
    RMS size of the density [Ang]:         3.699167
      Cartesian components [Ang]:        [  1.009303,   0.656426,   3.497749]
  
  Exciton analysis of the difference density matrix
    <r_h> [Ang]:                  [ -0.000000,  -0.000000,  -0.647231]
    <r_e> [Ang]:                  [ -0.000000,   0.000000,  -0.734735]
    |<r_e - r_h>| [Ang]:            0.087504
    Hole size [Ang]:                1.687078
      Cartesian components [Ang]: [  1.200845,   0.991550,   0.648871]
    Electron size [Ang]:            3.265822
      Cartesian components [Ang]: [  2.170685,   1.252966,   2.093752]

  Transition density matrix analysis:
  -----------------------------------
  
  CT numbers (Mulliken)
    omega =     0.9235
    <Phe> =    -0.0028
  
  Exciton analysis of the transition density matrix
    Trans. dipole moment [D]:             0.008090
      Cartesian components [D]:         [ -0.000001,   0.008090,   0.000000]
    <r_h> [Ang]:                        [ -0.000000,  -0.000000,  -0.640899]
    <r_e> [Ang]:                        [ -0.000000,  -0.000000,  -0.756801]
    |<r_e - r_h>| [Ang]:                  0.115903
    Hole size [Ang]:                      1.513285
      Cartesian components [Ang]:       [  1.115764,   0.932653,   0.418645]
    Electron size [Ang]:                  3.590886
      Cartesian components [Ang]:       [  2.377989,   1.355529,   2.324258]
    RMS electron-hole separation [Ang]:   3.821420
      Cartesian components [Ang]:       [  2.511687,   1.644942,   2.364075]
    Covariance(r_h, r_e) [Ang^2]:         0.297338
    Correlation coefficient:              0.054718
    Center-of-mass size [Ang]:            1.986150
      Cartesian components [Ang]:       [  1.368480,   0.822916,   1.181044]

  Decomposition into state-averaged NTOs
    H- 1 -> L+ 5: -0.6448 ( 83.1%)
    H- 1 -> L+ 3:  0.1778 (  6.3%)
    H- 1 -> L+ 4:  0.0719 (  1.0%)
                   omega =  92.3%
  ----------------------------------------------------------------------------


--------------------------------------------------------------------------------
  Time of ADC calculation:  CPU 523.36 s  wall 120.47 s
================================================================================
 
 --------------------------------------------------------------
             Orbital Energies (a.u.) and Symmetries
 --------------------------------------------------------------
 
 Alpha MOs, Restricted
 -- Occupied --                  
-11.189 -11.187  -0.993  -0.733  -0.612  -0.519  -0.467  -0.328
  1 A1    1 B1    2 A1    2 B1    1 B2    3 A1    1 A2    4 A1                 
  0.022
  5 A1                                                                         
 -- Virtual --                   
  0.140   0.141   0.148   0.157   0.165   0.186   0.203   0.254
  3 B1    6 A1    2 B2    4 B1    7 A1    2 A2    8 A1    5 B1                 
  0.260   0.311   0.375   0.389   0.419   0.448   0.448   0.470
  6 B1    9 A1    3 B2    7 B1    8 B1    4 B2   10 A1   11 A1                 
  0.485   0.556   0.597   0.667   0.889   0.896   0.970   1.048
  3 A2    9 B1    4 A2   10 B1   12 A1    5 B2   11 B1   13 A1                 
  1.058   1.090   1.163   1.170   1.199   1.200   1.260   1.318
 14 A1    5 A2    6 B2   15 A1   12 B1    7 B2   16 A1   13 B1                 
  1.333   1.355   1.421   1.543   1.676   1.792   1.832   1.931
  6 A2   17 A1   14 B1    7 A2   18 A1    8 B2    8 A2   15 B1                 
  1.968   1.968   1.968   1.994   2.024   2.066   2.145   2.154
 16 B1    9 B2   19 A1   20 A1   17 B1   10 B2   21 A1   11 B2                 
  2.234   2.379   2.461   2.530   2.602   2.631   2.926   2.930
 18 B1   19 B1    9 A2   22 A1   10 A2   20 B1   23 A1   12 B2                 
  3.350   3.404
 21 B1   11 A2                                                                 
 
 Beta MOs, Restricted
 -- Occupied --                  
-11.189 -11.187  -0.993  -0.733  -0.612  -0.519  -0.467  -0.328
  1 A1    1 B1    2 A1    2 B1    1 B2    3 A1    1 A2    4 A1                 
  0.022
  5 A1                                                                         
 -- Virtual --                   
  0.140   0.141   0.148   0.157   0.165   0.186   0.203   0.254
  3 B1    6 A1    2 B2    4 B1    7 A1    2 A2    8 A1    5 B1                 
  0.260   0.311   0.375   0.389   0.419   0.448   0.448   0.470
  6 B1    9 A1    3 B2    7 B1    8 B1    4 B2   10 A1   11 A1                 
  0.485   0.556   0.597   0.667   0.889   0.896   0.970   1.048
  3 A2    9 B1    4 A2   10 B1   12 A1    5 B2   11 B1   13 A1                 
  1.058   1.090   1.163   1.170   1.199   1.200   1.260   1.318
 14 A1    5 A2    6 B2   15 A1   12 B1    7 B2   16 A1   13 B1                 
  1.333   1.355   1.421   1.543   1.676   1.792   1.832   1.931
  6 A2   17 A1   14 B1    7 A2   18 A1    8 B2    8 A2   15 B1                 
  1.968   1.968   1.968   1.994   2.024   2.066   2.145   2.154
 16 B1    9 B2   19 A1   20 A1   17 B1   10 B2   21 A1   11 B2                 
  2.234   2.379   2.461   2.530   2.602   2.631   2.926   2.930
 18 B1   19 B1    9 A2   22 A1   10 A2   20 B1   23 A1   12 B2                 
  3.350   3.404
 21 B1   11 A2                                                                 
 --------------------------------------------------------------
 
          Ground-State Mulliken Net Atomic Charges

     Atom                 Charge (a.u.)
  ----------------------------------------
      1 C                    -0.221106
      2 C                    -0.221106
      3 H                     0.110545
      4 H                     0.110569
      5 H                     0.110561
      6 H                     0.110537
      7 H                    -1.000000
  ----------------------------------------
  Sum of atomic charges =    -1.000000

 -----------------------------------------------------------------
                    Cartesian Multipole Moments
 -----------------------------------------------------------------
    Charge (ESU x 10^10)
                -4.8032
    Dipole Moment (Debye)
         X       0.0000      Y       0.0000      Z     -49.1055
       Tot      49.1055
    Quadrupole Moments (Debye-Ang)
        XX     -16.8687     XY       0.0000     YY     -15.9171
        XZ      -0.0000     YZ      -0.0000     ZZ    -524.6116
    Octopole Moments (Debye-Ang^2)
       XXX      -0.0000    XXY       0.0000    XYY      -0.0000
       YYY       0.0000    XXZ     -32.1231    XYZ      -0.0000
       YYZ     -32.7648    XZZ      -0.0000    YZZ       0.0000
       ZZZ   -5258.4625
    Hexadecapole Moments (Debye-Ang^3)
      XXXX     -73.8521   XXXY       0.0000   XXYY     -15.1185
      XYYY       0.0000   YYYY     -32.7378   XXXZ       0.0000
      XXYZ      -0.0000   XYYZ       0.0000   YYYZ      -0.0000
      XXZZ    -438.2327   XYZZ       0.0000   YYZZ    -431.1939
      XZZZ       0.0000   YZZZ      -0.0000   ZZZZ  -55521.1652
 -----------------------------------------------------------------
 Total job time:  202.99s(wall), 567.45s(cpu) 
 Sat Mar 26 09:22:14 2022

        *************************************************************
        *                                                           *
        *  Thank you very much for using Q-Chem.  Have a nice day.  *
        *                                                           *
        *************************************************************


