/src/tsommerfeld/qchem/exe/qcprog.exe .input1.333333.17072.qcin.1 /src/jdavis/qchem.scratch/qchem17072/

                  Welcome to Q-Chem
     A Quantum Leap Into The Future Of Chemistry


 Q-Chem 5.4 (devel), Q-Chem, Inc., Pleasanton, CA (2021)

 E. Epifanovsky,  A. T. B. Gilbert,  Xintian Feng,  Joonho Lee,  Yuezhi Mao,  
 N. Mardirossian,  P. Pokhilko,  A. White,  M. Wormit,  M. P. Coons,  
 A. L. Dempwolff,  Zhengting Gan,  D. Hait,  P. R. Horn,  L. D. Jacobson,  
 I. Kaliman,  J. Kussmann,  A. W. Lange,  Ka Un Lao,  D. S. Levine,  Jie Liu,  
 S. C. McKenzie,  A. F. Morrison,  K. Nanda,  F. Plasser,  D. R. Rehn,  
 M. L. Vidal,  Zhi-Qiang You,  Ying Zhu,  B. Alam,  B. Albrecht,  
 A. Aldossary,  E. Alguire,  J. H. Andersen,  D. Barton,  K. Begam,  A. Behn,  
 Y. A. Bernard,  E. J. Berquist,  H. Burton,  A. Carreras,  K. Carter-Fenk,  
 R. Chakraborty,  A. D. Chien,  K. D. Closser,  V. Cofer-Shabica,  
 S. Dasgupta,  Jia Deng,  M. de Wergifosse,  M. Diedenhofen,  Hainam Do,  
 S. Ehlert,  Po-Tung Fang,  S. Fatehi,  Qingguo Feng,  T. Friedhoff,  
 J. Gayvert,  Qinghui Ge,  G. Gidofalvi,  M. Goldey,  J. Gomes,  
 C. Gonzalez-Espinoza,  S. Gulania,  A. Gunina,  M. W. D. Hanson-Heine,  
 P. H. P. Harbach,  A. W. Hauser,  M. F. Herbst,  M. Hernandez Vera,  
 M. Hodecker,  Z. C. Holden,  S. Houck,  Xunkun Huang,  Kerwin Hui,  
 B. C. Huynh,  M. Ivanov,  Hyunjun Ji,  Hanjie Jiang,  B. Kaduk,  S. Kaehler,  
 K. Khistyaev,  Jaehoon Kim,  P. Klunzinger,  Z. Koczor-Benda,  
 Joong Hoon Koh,  D. Kosenkov,  L. Koulias,  T. Kowalczyk,  C. M. Krauter,  
 K. Kue,  A. Kunitsa,  T. Kus,  A. Landau,  K. V. Lawler,  D. Lefrancois,  
 S. Lehtola,  Rain Li,  Yi-Pei Li,  Jiashu Liang,  M. Liebenthal,  
 Hung-Hsuan Lin,  You-Sheng Lin,  Fenglai Liu,  Kuan-Yu Liu,  
 M. Loipersberger,  A. Luenser,  A. Manjanath,  P. Manohar,  E. Mansoor,  
 S. F. Manzer,  Shan-Ping Mao,  A. V. Marenich,  T. Markovich,  S. Mason,  
 S. A. Maurer,  P. F. McLaughlin,  M. F. S. J. Menger,  J.-M. Mewes,  
 S. A. Mewes,  P. Morgante,  J. W. Mullinax,  K. J. Oosterbaan,  G. Paran,  
 Alexander C. Paul,  Suranjan K. Paul,  F. Pavosevic,  Zheng Pei,  S. Prager,  
 E. I. Proynov,  E. Ramos,  B. Rana,  A. E. Rask,  A. Rettig,  R. M. Richard,  
 F. Rob,  E. Rossomme,  T. Scheele,  M. Scheurer,  M. Schneider,  
 N. Sergueev,  S. M. Sharada,  W. Skomorowski,  D. W. Small,  C. J. Stein,  
 Yu-Chuan Su,  E. J. Sundstrom,  Zhen Tao,  J. Thirman,  T. Tsuchimochi,  
 N. M. Tubman,  S. P. Veccham,  O. Vydrov,  J. Wenzel,  J. Witte,  A. Yamada,  
 Kun Yao,  S. Yeganeh,  S. R. Yost,  A. Zech,  Igor Ying Zhang,  Xing Zhang,  
 Yu Zhang,  D. Zuev,  A. Aspuru-Guzik,  A. T. Bell,  N. A. Besley,  
 K. B. Bravaya,  B. R. Brooks,  D. Casanova,  Jeng-Da Chai,  S. Coriani,  
 C. J. Cramer,  A. E. DePrince, III,  R. A. DiStasio Jr.,  A. Dreuw,  
 B. D. Dunietz,  T. R. Furlani,  W. A. Goddard III,  S. Grimme,  
 S. Hammes-Schiffer,  T. Head-Gordon,  W. J. Hehre,  Chao-Ping Hsu,  
 T.-C. Jagau,  Yousung Jung,  A. Klamt,  Jing Kong,  D. S. Lambrecht,  
 WanZhen Liang,  N. J. Mayhall,  C. W. McCurdy,  J. B. Neaton,  
 C. Ochsenfeld,  J. A. Parkhill,  R. Peverati,  V. A. Rassolov,  Yihan Shao,  
 L. V. Slipchenko,  T. Stauch,  R. P. Steele,  J. E. Subotnik,  
 A. J. W. Thom,  A. Tkatchenko,  D. G. Truhlar,  T. Van Voorhis,  
 T. A. Wesolowski,  K. B. Whaley,  H. L. Woodcock III,  P. M. Zimmerman,  
 S. Faraji,  P. M. W. Gill,  M. Head-Gordon,  J. M. Herbert,  A. I. Krylov

 Additional authors for Version 5.4.1: 
 S. Kotaru,  Shaozhi Li,  Xiangyuan Li,  F. Matz,  A. Molle,  Haisheng Ren,  
 Yingli Su,  Hung-Yi Tsai,  C. Utku,  Fang Wang

 Contributors to earlier versions of Q-Chem not listed above: 
 R. D. Adamson,  B. Austin,  R. Baer,  J. Baker,  G. J. O. Beran,  
 K. Brandhorst,  S. T. Brown,  E. F. C. Byrd,  A. K. Chakraborty,  
 G. K. L. Chan,  Chun-Min Chang,  Yunqing Chen,  C.-L. Cheng,  
 Siu Hung Chien,  D. M. Chipman,  D. L. Crittenden,  H. Dachsel,  
 R. J. Doerksen,  A. D. Dutoi,  R. G. Edgar,  J. Fosso-Tande,  
 L. Fusti-Molnar,  D. Ghosh,  A. Ghysels,  A. Golubeva-Zadorozhnaya,  
 J. Gonthier,  M. S. Gordon,  S. R. Gwaltney,  G. Hawkins,  J. E. Herr,  
 A. Heyden,  S. Hirata,  E. G. Hohenstein,  G. Kedziora,  F. J. Keil,  
 C. Kelley,  Jihan Kim,  R. A. King,  R. Z. Khaliullin,  P. P. Korambath,  
 W. Kurlancheek,  A. Laurent,  A. M. Lee,  M. S. Lee,  S. V. Levchenko,  
 Ching Yeh Lin,  D. Liotard,  E. Livshits,  R. C. Lochan,  I. Lotan,  
 L. A. Martinez-Martinez,  P. E. Maslen,  N. Nair,  D. P. O'Neill,  
 D. Neuhauser,  E. Neuscamman,  C. M. Oana,  R. Olivares-Amaya,  R. Olson,  
 T. M. Perrine,  B. Peters,  P. A. Pieniazek,  A. Prociuk,  Y. M. Rhee,  
 J. Ritchie,  M. A. Rohrdanz,  E. Rosta,  N. J. Russ,  H. F. Schaefer III,  
 M. W. Schmidt,  N. E. Schultz,  S. Sharma,  N. Shenvi,  C. D. Sherrill,  
 A. C. Simmonett,  A. Sodt,  T. Stein,  D. Stuck,  K. S. Thanthiriwatte,  
 V. Vanovschi,  L. Vogt,  Tao Wang,  A. Warshel,  M. A. Watson,  
 C. F. Williams,  Q. Wu,  X. Xu,  Jun Yang,  W. Zhang,  Yan Zhao

 Please cite Q-Chem as follows:
 Y. Shao et al., Mol. Phys. 113, 184-215 (2015)
 DOI: 10.1080/00268976.2014.952696

 Q-Chem 5.4.1 for Intel X86 EM64T Linux

 Parts of Q-Chem use Armadillo 9.900.5 (Nocturnal Misbehaviour).
 http://arma.sourceforge.net/

 Q-Chem begins on Sat Mar 26 08:29:11 2022  

 Host: node01
0

     Scratch files written to /src/jdavis/qchem.scratch/qchem17072//
 Processing $rem in /src/tsommerfeld/qchem/config/preferences:
 Processing $rem in /home/jdavis/.qchemrc:

 Checking the input file for inconsistencies... 	...done.

--------------------------------------------------------------
User input:
--------------------------------------------------------------
$molecule
-1 1
C         0.0000003663    0.4438502432    0.6645000000
C         0.0000003663    0.4438502432   -0.6645000000
H        -0.9623486337    0.4438522630    1.1590800000
H        -0.9623486337    0.4438522630   -1.1590800000
H         0.9623483663    0.4438482235    1.1590800000
H         0.9623483663    0.4438482235   -1.1590800000
H        -0.0000038605   -10.4438482235    0.0000000000
$end

$rem
   METHOD adc(2)
   BASIS gen
   PURECART 11
   EE_STATES [0,0,0,10]
   scf_convergence 8
   ADC_DAVIDSON_MAXITER 120
   ADC_DAVIDSON_MAXSUBSPACE 200
   adc_nguess_singles 100
   THRESH 14
   S2THRESH 14
   adc_davidson_conv 5
   adc_davidson_thresh 14
   THREADS 10
   MEM_TOTAL 95000
   STATE_ANALYSIS TRUE
$end
$basis
C 1
S   9   1.00
      6.665000D+03           6.920000D-04
      1.000000D+03           5.329000D-03
      2.280000D+02           2.707700D-02
      6.471000D+01           1.017180D-01
      2.106000D+01           2.747400D-01
      7.495000D+00           4.485640D-01
      2.797000D+00           2.850740D-01
      5.215000D-01           1.520400D-02
      1.596000D-01          -3.191000D-03
S   9   1.00
      6.665000D+03          -1.460000D-04
      1.000000D+03          -1.154000D-03
      2.280000D+02          -5.725000D-03
      6.471000D+01          -2.331200D-02
      2.106000D+01          -6.395500D-02
      7.495000D+00          -1.499810D-01
      2.797000D+00          -1.272620D-01
      5.215000D-01           5.445290D-01
      1.596000D-01           5.804960D-01
S   1   1.00
      1.596000D-01           1.000000D+00
S   1   1.00
      0.0469000              1.0000000
P   4   1.00
      9.439000D+00           3.810900D-02
      2.002000D+00           2.094800D-01
      5.456000D-01           5.085570D-01
      1.517000D-01           4.688420D-01
P   1   1.00
      1.517000D-01           1.000000D+00
P   1   1.00
      0.0809067      1.0000000
P   1   1.00
      0.0404533      1.0000000
D   1   1.00
      5.500000D-01           1.0000000
****
C 2
S   9   1.00
      6.665000D+03           6.920000D-04
      1.000000D+03           5.329000D-03
      2.280000D+02           2.707700D-02
      6.471000D+01           1.017180D-01
      2.106000D+01           2.747400D-01
      7.495000D+00           4.485640D-01
      2.797000D+00           2.850740D-01
      5.215000D-01           1.520400D-02
      1.596000D-01          -3.191000D-03
S   9   1.00
      6.665000D+03          -1.460000D-04
      1.000000D+03          -1.154000D-03
      2.280000D+02          -5.725000D-03
      6.471000D+01          -2.331200D-02
      2.106000D+01          -6.395500D-02
      7.495000D+00          -1.499810D-01
      2.797000D+00          -1.272620D-01
      5.215000D-01           5.445290D-01
      1.596000D-01           5.804960D-01
S   1   1.00
      1.596000D-01           1.000000D+00
S   1   1.00
      0.0469000              1.0000000
P   4   1.00
      9.439000D+00           3.810900D-02
      2.002000D+00           2.094800D-01
      5.456000D-01           5.085570D-01
      1.517000D-01           4.688420D-01
P   1   1.00
      1.517000D-01           1.000000D+00
P   1   1.00
      0.0809067      1.0000000
P   1   1.00
      0.0404533      1.0000000
D   1   1.00
      5.500000D-01           1.0000000
****
H 3
cc-pVDZ
****
H 4
cc-pVDZ
****
H 5
cc-pVDZ
****
H 6
cc-pVDZ
****
H 7
aug-cc-pVDZ
****
$end
--------------------------------------------------------------
 Atom   2: (  0.6645000000,  0.0000001629, -0.6404528510)
         ->(  0.6645000000, -0.0000001629, -0.6404528510)
 Atom   1: ( -0.6645000000,  0.0000001629, -0.6404528510)
         ->( -0.6645000000,  0.0000000000, -0.6404528510)
 Atom   6: (  1.1590800000,  0.9623481629, -0.6404511369)
         ->(  1.1590800000,  0.9623488371, -0.6404545651)
 Atom   5: ( -1.1590800000,  0.9623481629, -0.6404511369)
         ->( -1.1590800000,  0.9623488371, -0.6404545651)
 Atom   7: ( -0.0000000000, -0.0000006060, 10.2472456157)
         ->(  0.0000000000,  0.0000000000, 10.2472456157)
 ----------------------------------------------------------------
             Standard Nuclear Orientation (Angstroms)
    I     Atom           X                Y                Z
 ----------------------------------------------------------------
    1      C      -0.6645000000     0.0000000000    -0.6404528510
    2      C       0.6645000000    -0.0000001629    -0.6404528510
    3      H      -1.1590800000    -0.9623488371    -0.6404545651
    4      H       1.1590800000    -0.9623488371    -0.6404545651
    5      H      -1.1590800000     0.9623488371    -0.6404545651
    6      H       1.1590800000     0.9623488371    -0.6404545651
    7      H       0.0000000000     0.0000000000    10.2472456157
 ----------------------------------------------------------------
 Molecular Point Group                 C2v   NOp =  4
 Largest Abelian Subgroup              C2v   NOp =  4
 Nuclear Repulsion Energy =          34.36395017 hartrees
 There are        9 alpha and        9 beta electrons
 Requested basis set is non-standard
 There are 33 shells and 67 basis functions
 Total memory of 95000 MB is distributed as follows: 
   MEM_STATIC is set to 192 MB
   QALLOC/CCMAN JOB total memory use is  94808 MB
 Warning: actual memory use might exceed 95000 MB

 Total QAlloc Memory Limit  95000 MB
 Mega-Array Size       188 MB
 MEM_STATIC part       192 MB

                       Distance Matrix (Angstroms)
             C (  1)   C (  2)   H (  3)   H (  4)   H (  5)   H (  6)
   C (  2)  1.329000
   H (  3)  1.082000  2.061931
   H (  4)  2.061931  1.082000  2.318160
   H (  5)  1.082000  2.061931  1.924698  3.013026
   H (  6)  2.061931  1.082000  3.013026  1.924698  2.318160
   H (  7) 10.907958 10.907958 10.991433 10.991433 10.991433 10.991433

 
 A cutoff of  1.0D-14 yielded    489 shell pairs
 There are      2077 function pairs (      2214 Cartesian)
 Smallest overlap matrix eigenvalue = 2.34E-04

 Scale SEOQF with 1.000000e-01/1.000000e-01/1.000000e-02

 Standard Electronic Orientation quadrupole field applied
 Nucleus-field energy     =    -0.0000000005 hartrees
 ================ Generating on-the-fly SAD Guess ================
Attempting to make child job directory: /src/jdavis/qchem.scratch/qchem17072//Frg1/
Attempting to make child job directory: /src/jdavis/qchem.scratch/qchem17072//Frg2/
Creating input file /src/jdavis/qchem.scratch/qchem17072/Frg1.input
using default PutDataFrgm: nothing
calling putenv with: QCSCRATCH=/src/jdavis/qchem.scratch/qchem17072/ 
Spawning Job For Fragment 0
Done Job For Fragment 0
calling putenv with: QCSCRATCH=/src/jdavis/qchem.scratch 
calling putenv with: QCTHREADS=1 
Creating input file /src/jdavis/qchem.scratch/qchem17072/Frg2.input
using default PutDataFrgm: nothing
calling putenv with: QCSCRATCH=/src/jdavis/qchem.scratch/qchem17072/ 
Spawning Job For Fragment 1
Done Job For Fragment 1
calling putenv with: QCSCRATCH=/src/jdavis/qchem.scratch 
calling putenv with: QCTHREADS=1 
 Time for running child jobs:  CPU 1.76 s  wall 54.36 s
 ============= Method Specific SAD Guess Constructed =============
 Guess from on-the-fly superposition of atomic densities
 Warning: Energy on first SCF cycle will be non-variational
 A restricted Hartree-Fock SCF calculation will be
 performed using Pulay DIIS extrapolation
 SCF converges when DIIS error is below 1.0E-08
 using 10 threads for integral computing
 -------------------------------------------------------
 OpenMP Integral computing Module                
 Release: version 1.0, May 2013, Q-Chem Inc. Pittsburgh 
 -------------------------------------------------------
 ---------------------------------------
  Cycle       Energy         DIIS Error
 ---------------------------------------
    1     -78.8013901222      7.36E-02
    2     -78.4460292126      6.48E-03
    3     -78.4839548454      1.48E-03
    4     -78.4858816637      4.78E-04
    5     -78.4860518073      7.17E-05
    6     -78.4860591432      1.20E-05
    7     -78.4860595206      3.33E-06
    8     -78.4860595981      3.04E-07
    9     -78.4860596048      6.93E-08
   10     -78.4860596061      1.21E-08
   11     -78.4860596062      1.89E-09 Convergence criterion met
 ---------------------------------------
 SCF time:  CPU 9.93 s  wall 1.00 s
 SCF   energy in the final basis set = -78.48605961
 Total energy in the final basis set = -78.48605961
================================================================================
|                                                                              |
|                                 A D C  M A N                                 |
|                                                                              |
 ------------------------------------------------------------------------------ 
|                                                                              |
| Components:                                                                  |
|                                                                              |
| - libvmm - 1.3-trunk                                                         |
|   Authors:                                                                   |
|   Evgeny Epifanovsky, Ilya Kaliman                                           |
|                                                                              |
| - libtensor - 2.5-trunk                                                      |
|   Authors:                                                                   |
|   Evgeny Epifanovsky, Michael Wormit, Dmitry Zuev, Sam Manzer,               |
|   Ilya Kaliman                                                               |
|                                                                              |
| - libwfa - 1.1-trunk                                                         |
|   Authors:                                                                   |
|   Felix Plasser, Stefanie Mewes (Baeppler), Benjamin Thomitzni,              |
|   Michael Wormit, Feng Chen, Anna I. Krylov, Pavel Pokhilko                  |
|                                                                              |
| - libadc - 1.1-trunk                                                         |
|   Authors:                                                                   |
|   Michael Wormit, Adrian L. Dempwolff, Philipp H. P. Harbach,                |
|   Caroline Krauter, Dirk Rehn, Matthias Schneider, Jan Wenzel                |
|                                                                              |
| - adcman - 2.6-trunk                                                         |
|   Authors:                                                                   |
|   Michael Wormit, Adrian L. Dempwolff, Philipp H. P. Harbach,                |
|   Caroline Krauter, Daniel Lefrancois, Jan-Michael Mewes, Dirk Rehn,         |
|   Matthias Schneider, Jan Wenzel, Andreas Dreuw                              |
|                                                                              |
| Authors of earlier versions of ADCMAN:                                       |
| Andreas Dreuw, Jan Hendrik Starcke, Dirk Rehn, Michael Wormit                |
|                                                                              |
================================================================================

 
 Alpha MOs, Restricted
 -- Occupied --                  
-11.189 -11.187  -0.993  -0.733  -0.612  -0.519  -0.467  -0.328
  1 A1    1 B1    2 A1    2 B1    1 B2    3 A1    1 A2    4 A1                 
  0.022
  5 A1                                                                         
 -- Virtual --                   
  0.117   0.131   0.134   0.146   0.147   0.161   0.187   0.233
  3 B1    2 B2    6 A1    7 A1    4 B1    2 A2    8 A1    5 B1                 
  0.261   0.311   0.364   0.367   0.394   0.399   0.409   0.415
  6 B1    9 A1    3 B2    7 B1   10 A1    4 B2   11 A1    3 A2                 
  0.418   0.491   0.598   0.664   0.883   0.899   0.983   1.006
  8 B1    9 B1    4 A2   10 B1   12 A1    5 B2   11 B1   13 A1                 
  1.058   1.071   1.099   1.107   1.163   1.171   1.187   1.215
 14 A1    5 A2    6 B2   15 A1    7 B2   16 A1   12 B1   13 B1                 
  1.333   1.337   1.339   1.500   1.670   1.731   1.780   1.924
  6 A2   14 B1   17 A1    7 A2   18 A1    8 A2    8 B2   15 B1                 
  1.968   1.968   1.968   1.993   2.010   2.066   2.122   2.145
 16 B1    9 B2   19 A1   20 A1   17 B1   10 B2   21 A1   11 B2                 
  2.230   2.380   2.461   2.521   2.618   2.628   2.888   2.891
 18 B1   19 B1    9 A2   22 A1   10 A2   20 B1   12 B2   23 A1                 
  3.313   3.391
 21 B1   11 A2                                                                 
 
 Beta MOs, Restricted
 -- Occupied --                  
-11.189 -11.187  -0.993  -0.733  -0.612  -0.519  -0.467  -0.328
  1 A1    1 B1    2 A1    2 B1    1 B2    3 A1    1 A2    4 A1                 
  0.022
  5 A1                                                                         
 -- Virtual --                   
  0.117   0.131   0.134   0.146   0.147   0.161   0.187   0.233
  3 B1    2 B2    6 A1    7 A1    4 B1    2 A2    8 A1    5 B1                 
  0.261   0.311   0.364   0.367   0.394   0.399   0.409   0.415
  6 B1    9 A1    3 B2    7 B1   10 A1    4 B2   11 A1    3 A2                 
  0.418   0.491   0.598   0.664   0.883   0.899   0.983   1.006
  8 B1    9 B1    4 A2   10 B1   12 A1    5 B2   11 B1   13 A1                 
  1.058   1.071   1.099   1.107   1.163   1.171   1.187   1.215
 14 A1    5 A2    6 B2   15 A1    7 B2   16 A1   12 B1   13 B1                 
  1.333   1.337   1.339   1.500   1.670   1.731   1.780   1.924
  6 A2   14 B1   17 A1    7 A2   18 A1    8 A2    8 B2   15 B1                 
  1.968   1.968   1.968   1.993   2.010   2.066   2.122   2.145
 16 B1    9 B2   19 A1   20 A1   17 B1   10 B2   21 A1   11 B2                 
  2.230   2.380   2.461   2.521   2.618   2.628   2.888   2.891
 18 B1   19 B1    9 A2   22 A1   10 A2   20 B1   12 B2   23 A1                 
  3.313   3.391
 21 B1   11 A2                                                                 

--------------------------------------------------------------------------------
                                   HF Summary                                   
--------------------------------------------------------------------------------
  Energy:                                                  -78.4860596062 a.u.
  Dip. moment [a.u.]:                  [   0.000000,    0.000001,  -19.319783]
  Total dipole [Debye]:                                              49.106001
  <r^2> [a.u.]:                        [  50.664734,   25.067684,  788.445131]
  Total <r^2> [a.u.]:                                               864.177550
--------------------------------------------------------------------------------

--------------------------------------------------------------------------------
                                 MP(2) Summary                                  
--------------------------------------------------------------------------------
  MP energy contribution:                                   -0.2993215649 a.u.
  Total energy:                                            -78.7853811711 a.u.
  Dip. moment [a.u.]:                  [  -0.000000,    0.000001,  -19.321202]
  Total dipole [Debye]:                                              49.109606
  <r^2> [a.u.]:                        [  50.729936,   25.055592,  788.249897]
  Total <r^2> [a.u.]:                                               864.035425

  Density matrix analysis:
  ------------------------
  NOs
    Occupation of frontier NOs:
       0.0448   1.9370
    Number of electrons: 18.000000
    Number of unpaired electrons: n_u =  0.43251, n_u,nl =  0.04685
    NO participation ratio (PR_NO): 15.325426
  
  
  Mulliken Population Analysis
  Atom      Charge (e)              h+              e-           Del q
  --------------------------------------------------------------------
   1 C       -0.209408        0.087406       -0.102484       -0.015078
   2 C       -0.209408        0.087406       -0.102484       -0.015078
   3 H        0.104697        0.018097       -0.010558        0.007539
   4 H        0.104719        0.018097       -0.010558        0.007539
   5 H        0.104711        0.018097       -0.010558        0.007539
   6 H        0.104689        0.018097       -0.010558        0.007539
   7 H       -1.000000        0.021953       -0.021953        0.000000
  --------------------------------------------------------------------
  Sum:       -1.000000        0.269153       -0.269153       -0.000000
  
  Multipole moment analysis of the density matrix
    Molecular charge:                      -1.000000
    Number of electrons:                   18.000000
      Center of electronic charge [Ang]: [  0.000000,  -0.000000,   0.568018]
    Total nuclear charge:                  17.000000
      Center of nuclear charge [Ang]:    [  0.000000,  -0.000000,  -0.000000]
    Dipole moment [D]:                     49.109591
      Cartesian components [D]:          [ -0.000000,   0.000002, -49.109591]
    RMS size of the density [Ang]:         3.622054
      Cartesian components [Ang]:        [  0.888376,   0.624334,   3.455469]
  
  Exciton analysis of the difference density matrix
    <r_h> [Ang]:                  [ -0.000000,  -0.000000,   0.242083]
    <r_e> [Ang]:                  [  0.000000,   0.000000,   0.244872]
    |<r_e - r_h>| [Ang]:            0.002789
    Hole size [Ang]:                3.301627
      Cartesian components [Ang]: [  0.952307,   0.732619,   3.075243]
    Electron size [Ang]:            3.278950
      Cartesian components [Ang]: [  0.987282,   0.723982,   3.041815]
--------------------------------------------------------------------------------
  Starting Davidson for singlet states of irrep B2 ... 
--------------------------------------------------------------------------------
   It NVec Conv  Avg. Norm  Max. Norm  Conv. states           Remark
--------------------------------------------------------------------------------
       100    0  1.093e-01  4.537e-01  0.0785 n n n n n n n n Guess.
    1  110    0  6.347e-03  3.017e-02  0.0534 n n n n n n n n 
    2  120    0  1.252e-03  9.014e-03  0.0534 n n n n n n n n 
    3  130    4  1.787e-04  1.154e-03  0.0534 y y y y n n n n 
    4  140    6  3.651e-05  3.321e-04  0.0534 y y y y y n n y 
    5  150    9  4.699e-06  4.497e-05  0.0534 y y y y y y y y 
    6  160   10  3.553e-07  3.509e-06  0.0534 y y y y y y y y Converged.
--------------------------------------------------------------------------------
  Davidson Summary: 
 ------------------------------------------------------------
  State  0: excitation energy =   0.0534 a.u.   (converged)
  State  1: excitation energy =   0.2544 a.u.   (converged)
  State  2: excitation energy =   0.2943 a.u.   (converged)
  State  3: excitation energy =   0.3122 a.u.   (converged)
  State  4: excitation energy =   0.3332 a.u.   (converged)
  State  5: excitation energy =   0.3911 a.u.   (converged)
  State  6: excitation energy =   0.4329 a.u.   (converged)
  State  7: excitation energy =   0.4481 a.u.   (converged)
  State  8: excitation energy =   0.4714 a.u.   (converged)
  State  9: excitation energy =   0.5095 a.u.   (converged)
 ------------------------------------------------------------


--------------------------------------------------------------------------------
                   State-averaged natural transition orbitals
--------------------------------------------------------------------------------
--------------------------------------------------------------------------------

--------------------------------------------------------------------------------
                             Excited State Summary
--------------------------------------------------------------------------------
--------------------------------------------------------------------------------

  Excited state 1 (singlet, B2)                                    [converged]
  ----------------------------------------------------------------------------
  Term symbol:  1 (1) B2                                    R^2 =  3.23742e-13

  Total energy:                                            -78.7319564530 a.u.
  Excitation energy:                                               1.453761 eV

  Osc. strength:                                                      0.000000
  Trans. dip. moment [a.u.]:           [  -0.000000,   -0.000021,    0.000000]
  <i|r^2|0> [a.u.]:                    [   0.000000,    0.000000,   -0.000000]

  Dip. moment [a.u.]:                  [  -0.000000,    0.000001,    1.221702]
  Total dipole [Debye]:                                               3.105258
  <r^2> [a.u.]:                        [  59.605800,   51.215170,  422.169500]
  Total <r^2> [a.u.]:                                               532.990470

  V1^2 = 0.9778, V2^2 = 0.0222

  Important amplitudes:
      occ i      occ j       vir a       vir b          v   
    ---------------------------------------------------------
     5 (A1) A               2 (B2) A                  0.6982
     5 (A1) A   5 (A1) B   14 (A1) A    2 (B2) B     -0.0435
    ---------------------------------------------------------

  Density matrix analysis:
  ------------------------
  NOs
    Occupation of frontier NOs:
       0.9944   1.0019
    Number of electrons: 18.000000
    Number of unpaired electrons: n_u =  2.41602, n_u,nl =  2.04905
    NO participation ratio (PR_NO):  2.921563
  
  
  Mulliken Population Analysis
  Atom      Charge (e)              h+              e-           Del q
  --------------------------------------------------------------------
   1 C       -0.668767        0.020550       -0.479909       -0.459359
   2 C       -0.668767        0.020550       -0.479909       -0.459359
   3 H        0.084376        0.004279       -0.024600       -0.020320
   4 H        0.084399        0.004279       -0.024600       -0.020320
   5 H        0.084391        0.004279       -0.024600       -0.020321
   6 H        0.084369        0.004279       -0.024600       -0.020320
   7 H        0.000000        1.020764       -0.020763        1.000000
  --------------------------------------------------------------------
  Sum:       -1.000000        1.078980       -1.078980       -0.000000
  
  Multipole moment analysis of the density matrix
    Molecular charge:                      -1.000000
    Number of electrons:                   18.000000
      Center of electronic charge [Ang]: [  0.000000,  -0.000000,  -0.035917]
    Total nuclear charge:                  17.000000
      Center of nuclear charge [Ang]:    [  0.000000,  -0.000000,  -0.000000]
    Dipole moment [D]:                     3.105258
      Cartesian components [D]:          [ -0.000000,   0.000002,   3.105258]
    RMS size of the density [Ang]:         2.879326
      Cartesian components [Ang]:        [  0.962962,   0.892615,   2.562510]
  
  Exciton analysis of the difference density matrix
    <r_h> [Ang]:                  [  0.000000,  -0.000000,   9.662928]
    <r_e> [Ang]:                  [  0.000000,  -0.000000,  -0.412177]
    |<r_e - r_h>| [Ang]:           10.075105
    Hole size [Ang]:                2.744547
      Cartesian components [Ang]: [  0.729266,   0.715172,   2.547399]
    Electron size [Ang]:            3.849476
      Cartesian components [Ang]: [  1.683861,   2.701978,   2.163884]

  Transition density matrix analysis:
  -----------------------------------
  
  CT numbers (Mulliken)
    omega =     0.9712
    <Phe> =    -0.0000
  
  Exciton analysis of the transition density matrix
    Trans. dipole moment [D]:             0.000027
      Cartesian components [D]:         [ -0.000000,  -0.000027,   0.000000]
    <r_h> [Ang]:                        [  0.000000,   0.000000,  10.247044]
    <r_e> [Ang]:                        [  0.000000,  -0.000000,  -0.640251]
    |<r_e - r_h>| [Ang]:                 10.887296
    Hole size [Ang]:                      1.111004
      Cartesian components [Ang]:       [  0.640883,   0.640881,   0.642550]
    Electron size [Ang]:                  3.647069
      Cartesian components [Ang]:       [  1.705921,   2.799670,   1.597745]
    RMS electron-hole separation [Ang]:  11.535723
      Cartesian components [Ang]:       [  1.822328,   2.872084,  11.022847]
    Covariance(r_h, r_e) [Ang^2]:        -0.002132
    Correlation coefficient:             -0.000526
    Center-of-mass size [Ang]:            1.905989
      Cartesian components [Ang]:       [  0.911169,   1.436045,   0.860431]

  Decomposition into state-averaged NTOs
    H- 0 -> L+ 0: -0.6850 ( 93.8%)
    H- 0 -> L+ 2:  0.1157 (  2.7%)
                   omega =  97.1%
  ----------------------------------------------------------------------------


  Excited state 2 (singlet, B2)                                    [converged]
  ----------------------------------------------------------------------------
  Term symbol:  2 (1) B2                                    R^2 =  4.75857e-12

  Total energy:                                            -78.5309824671 a.u.
  Excitation energy:                                               6.922541 eV

  Osc. strength:                                                      0.000000
  Trans. dip. moment [a.u.]:           [   0.000000,   -0.000012,   -0.000000]
  <i|r^2|0> [a.u.]:                    [   0.000000,    0.000000,   -0.000000]

  Dip. moment [a.u.]:                  [   0.000000,   -0.000002,    1.228275]
  Total dipole [Debye]:                                               3.121964
  <r^2> [a.u.]:                        [  58.189194,   37.501309,  417.953747]
  Total <r^2> [a.u.]:                                               513.644250

  V1^2 = 0.9512, V2^2 = 0.0488

  Important amplitudes:
      occ i      occ j       vir a       vir b          v   
    ---------------------------------------------------------
     5 (A1) A               3 (B2) A                 -0.6822
     5 (A1) A               4 (B2) A                  0.0802
    ---------------------------------------------------------

  Density matrix analysis:
  ------------------------
  NOs
    Occupation of frontier NOs:
       0.9789   1.0011
    Number of electrons: 18.000000
    Number of unpaired electrons: n_u =  2.45058, n_u,nl =  2.06063
    NO participation ratio (PR_NO):  3.045063
  
  
  Mulliken Population Analysis
  Atom      Charge (e)              h+              e-           Del q
  --------------------------------------------------------------------
   1 C       -0.175173        0.094683       -0.060448        0.034235
   2 C       -0.175173        0.094683       -0.060448        0.034235
   3 H       -0.162420        0.011986       -0.279102       -0.267116
   4 H       -0.162399        0.011986       -0.279104       -0.267118
   5 H       -0.162408        0.011986       -0.279105       -0.267119
   6 H       -0.162429        0.011986       -0.279103       -0.267117
   7 H        0.000000        1.018347       -0.018347        1.000000
  --------------------------------------------------------------------
  Sum:       -1.000000        1.255656       -1.255656       -0.000000
  
  Multipole moment analysis of the density matrix
    Molecular charge:                      -1.000000
    Number of electrons:                   18.000000
      Center of electronic charge [Ang]: [ -0.000000,  -0.000000,  -0.036110]
    Total nuclear charge:                  17.000000
      Center of nuclear charge [Ang]:    [  0.000000,  -0.000000,  -0.000000]
    Dipole moment [D]:                     3.121963
      Cartesian components [D]:          [  0.000000,  -0.000004,   3.121963]
    RMS size of the density [Ang]:         2.826576
      Cartesian components [Ang]:        [  0.951450,   0.763815,   2.549679]
  
  Exciton analysis of the difference density matrix
    <r_h> [Ang]:                  [  0.000000,  -0.000000,   8.190908]
    <r_e> [Ang]:                  [ -0.000000,   0.000001,  -0.469360]
    |<r_e - r_h>| [Ang]:            8.660268
    Hole size [Ang]:                4.443327
      Cartesian components [Ang]: [  0.770365,   0.720684,   4.316284]
    Electron size [Ang]:            2.910630
      Cartesian components [Ang]: [  1.502325,   1.815200,   1.708753]

  Transition density matrix analysis:
  -----------------------------------
  
  CT numbers (Mulliken)
    omega =     0.9416
    <Phe> =     0.0001
  
  Exciton analysis of the transition density matrix
    Trans. dipole moment [D]:             0.000016
      Cartesian components [D]:         [  0.000000,  -0.000016,  -0.000000]
    <r_h> [Ang]:                        [  0.000000,   0.000000,  10.246143]
    <r_e> [Ang]:                        [ -0.000000,   0.000001,  -0.639296]
    |<r_e - r_h>| [Ang]:                 10.885439
    Hole size [Ang]:                      1.115230
      Cartesian components [Ang]:       [  0.640797,   0.640788,   0.650005]
    Electron size [Ang]:                  2.726902
      Cartesian components [Ang]:       [  1.523046,   1.965897,   1.118737]
    RMS electron-hole separation [Ang]:  11.278137
      Cartesian components [Ang]:       [  1.652349,   2.067690,  10.963155]
    Covariance(r_h, r_e) [Ang^2]:        -0.011928
    Correlation coefficient:             -0.003922
    Center-of-mass size [Ang]:            1.471043
      Cartesian components [Ang]:       [  0.826184,   1.033850,   0.642295]

  Decomposition into state-averaged NTOs
    H- 0 -> L+ 2:  0.6738 ( 90.8%)
    H- 0 -> L+ 0:  0.1088 (  2.4%)
                   omega =  94.2%
  ----------------------------------------------------------------------------


  Excited state 3 (singlet, B2)                                    [converged]
  ----------------------------------------------------------------------------
  Term symbol:  3 (1) B2                                    R^2 =  8.99823e-10

  Total energy:                                            -78.4910421889 a.u.
  Excitation energy:                                               8.009371 eV

  Osc. strength:                                                      0.000053
  Trans. dip. moment [a.u.]:           [   0.000001,   -0.016473,   -0.000000]
  <i|r^2|0> [a.u.]:                    [  -0.000000,   -0.000000,   -0.000000]

  Dip. moment [a.u.]:                  [   0.000000,    0.000001,  -19.337603]
  Total dipole [Debye]:                                              49.151293
  <r^2> [a.u.]:                        [  56.146271,   45.495174,  792.179015]
  Total <r^2> [a.u.]:                                               893.820461

  V1^2 = 0.9543, V2^2 = 0.0457

  Important amplitudes:
      occ i      occ j       vir a       vir b          v   
    ---------------------------------------------------------
     4 (A1) A               2 (B2) A                 -0.6654
     4 (A1) A               3 (B2) A                 -0.1751
    ---------------------------------------------------------

  Density matrix analysis:
  ------------------------
  NOs
    Occupation of frontier NOs:
       0.9870   0.9900
    Number of electrons: 18.000000
    Number of unpaired electrons: n_u =  2.32002, n_u,nl =  2.02626
    NO participation ratio (PR_NO):  2.744526
  
  
  Mulliken Population Analysis
  Atom      Charge (e)              h+              e-           Del q
  --------------------------------------------------------------------
   1 C       -0.281777        0.515651       -0.588020       -0.072369
   2 C       -0.281777        0.515651       -0.588020       -0.072369
   3 H        0.140881        0.086656       -0.050472        0.036184
   4 H        0.140903        0.086656       -0.050472        0.036184
   5 H        0.140896        0.086657       -0.050472        0.036184
   6 H        0.140874        0.086657       -0.050472        0.036185
   7 H       -1.000000        0.000088       -0.000088        0.000000
  --------------------------------------------------------------------
  Sum:       -1.000000        1.378017       -1.378017        0.000000
  
  Multipole moment analysis of the density matrix
    Molecular charge:                      -1.000000
    Number of electrons:                   18.000000
      Center of electronic charge [Ang]: [ -0.000000,  -0.000000,   0.568501]
    Total nuclear charge:                  17.000000
      Center of nuclear charge [Ang]:    [  0.000000,  -0.000000,  -0.000000]
    Dipole moment [D]:                     49.151278
      Cartesian components [D]:          [  0.000000,   0.000003, -49.151278]
    RMS size of the density [Ang]:         3.685390
      Cartesian components [Ang]:        [  0.934599,   0.841294,   3.464224]
  
  Exciton analysis of the difference density matrix
    <r_h> [Ang]:                  [  0.000000,   0.000000,  -0.647256]
    <r_e> [Ang]:                  [  0.000000,  -0.000000,  -0.640957]
    |<r_e - r_h>| [Ang]:            0.006298
    Hole size [Ang]:                1.556569
      Cartesian components [Ang]: [  1.014668,   0.800510,   0.867489]
    Electron size [Ang]:            2.912675
      Cartesian components [Ang]: [  1.459525,   2.189605,   1.248636]

  Transition density matrix analysis:
  -----------------------------------
  
  CT numbers (Mulliken)
    omega =     0.9228
    <Phe> =    -0.0032
  
  Exciton analysis of the transition density matrix
    Trans. dipole moment [D]:             0.020935
      Cartesian components [D]:         [  0.000002,  -0.020935,  -0.000000]
    <r_h> [Ang]:                        [  0.000000,  -0.000000,  -0.647109]
    <r_e> [Ang]:                        [  0.000000,  -0.000000,  -0.640564]
    |<r_e - r_h>| [Ang]:                  0.006545
    Hole size [Ang]:                      1.253923
      Cartesian components [Ang]:       [  0.756963,   0.510561,   0.859453]
    Electron size [Ang]:                  3.313424
      Cartesian components [Ang]:       [  1.606466,   2.526130,   1.420112]
    RMS electron-hole separation [Ang]:   3.539879
      Cartesian components [Ang]:       [  1.771370,   2.576429,   1.659821]
    Covariance(r_h, r_e) [Ang^2]:         0.010201
    Correlation coefficient:              0.002455
    Center-of-mass size [Ang]:            1.772816
      Cartesian components [Ang]:       [  0.890182,   1.288994,   0.830029]

  Decomposition into state-averaged NTOs
    H- 1 -> L+ 0: -0.6776 ( 91.8%)
                   omega =  92.3%
  ----------------------------------------------------------------------------


  Excited state 4 (singlet, B2)                                    [converged]
  ----------------------------------------------------------------------------
  Term symbol:  4 (1) B2                                    R^2 =  7.78553e-13

  Total energy:                                            -78.4732246967 a.u.
  Excitation energy:                                               8.494210 eV

  Osc. strength:                                                      0.000000
  Trans. dip. moment [a.u.]:           [  -0.000000,   -0.000015,   -0.000000]
  <i|r^2|0> [a.u.]:                    [  -0.000000,   -0.000000,    0.000000]

  Dip. moment [a.u.]:                  [   0.000000,   -0.000001,    1.224597]
  Total dipole [Debye]:                                               3.112615
  <r^2> [a.u.]:                        [  54.852949,   36.500721,  419.235568]
  Total <r^2> [a.u.]:                                               510.589238

  V1^2 = 0.9714, V2^2 = 0.0286

  Important amplitudes:
      occ i      occ j       vir a       vir b          v   
    ---------------------------------------------------------
     5 (A1) A               4 (B2) A                  0.6917
     5 (A1) A               3 (B2) A                  0.0829
    ---------------------------------------------------------

  Density matrix analysis:
  ------------------------
  NOs
    Occupation of frontier NOs:
       0.9912   1.0017
    Number of electrons: 18.000000
    Number of unpaired electrons: n_u =  2.42388, n_u,nl =  2.05013
    NO participation ratio (PR_NO):  2.948999
  
  
  Mulliken Population Analysis
  Atom      Charge (e)              h+              e-           Del q
  --------------------------------------------------------------------
   1 C       -1.039223        0.066350       -0.896165       -0.829815
   2 C       -1.039223        0.066350       -0.896165       -0.829815
   3 H        0.269606        0.006104        0.158805        0.164909
   4 H        0.269625        0.006103        0.158803        0.164906
   5 H        0.269617        0.006103        0.158803        0.164906
   6 H        0.269598        0.006104        0.158805        0.164909
   7 H        0.000000        1.020114       -0.020114        1.000000
  --------------------------------------------------------------------
  Sum:       -1.000000        1.177228       -1.177228       -0.000000
  
  Multipole moment analysis of the density matrix
    Molecular charge:                      -1.000000
    Number of electrons:                   18.000000
      Center of electronic charge [Ang]: [ -0.000000,  -0.000000,  -0.036002]
    Total nuclear charge:                  17.000000
      Center of nuclear charge [Ang]:    [  0.000000,  -0.000000,  -0.000000]
    Dipole moment [D]:                     3.112614
      Cartesian components [D]:          [  0.000000,  -0.000002,   3.112614]
    RMS size of the density [Ang]:         2.818158
      Cartesian components [Ang]:        [  0.923772,   0.753556,   2.553588]
  
  Exciton analysis of the difference density matrix
    <r_h> [Ang]:                  [  0.000000,  -0.000000,   8.796235]
    <r_e> [Ang]:                  [ -0.000000,   0.000001,  -0.439335]
    |<r_e - r_h>| [Ang]:            9.235570
    Hole size [Ang]:                3.913001
      Cartesian components [Ang]: [  0.771198,   0.731709,   3.765824]
    Electron size [Ang]:            2.901320
      Cartesian components [Ang]: [  1.255186,   1.804956,   1.893224]

  Transition density matrix analysis:
  -----------------------------------
  
  CT numbers (Mulliken)
    omega =     0.9644
    <Phe> =    -0.0000
  
  Exciton analysis of the transition density matrix
    Trans. dipole moment [D]:             0.000020
      Cartesian components [D]:         [ -0.000000,  -0.000020,  -0.000000]
    <r_h> [Ang]:                        [  0.000000,   0.000000,  10.247227]
    <r_e> [Ang]:                        [ -0.000000,   0.000001,  -0.640429]
    |<r_e - r_h>| [Ang]:                 10.887656
    Hole size [Ang]:                      1.110043
      Cartesian components [Ang]:       [  0.640844,   0.640844,   0.640962]
    Electron size [Ang]:                  2.591317
      Cartesian components [Ang]:       [  1.192048,   1.904329,   1.291308]
    RMS electron-hole separation [Ang]:  11.246708
      Cartesian components [Ang]:       [  1.353383,   2.009263,  10.982698]
    Covariance(r_h, r_e) [Ang^2]:        -0.000134
    Correlation coefficient:             -0.000046
    Center-of-mass size [Ang]:            1.409508
      Cartesian components [Ang]:       [  0.676697,   1.004635,   0.720766]

  Decomposition into state-averaged NTOs
    H- 0 -> L+ 1:  0.6895 ( 95.1%)
                   omega =  96.4%
  ----------------------------------------------------------------------------


  Excited state 5 (singlet, B2)                                    [converged]
  ----------------------------------------------------------------------------
  Term symbol:  5 (1) B2                                    R^2 =  1.72561e-08

  Total energy:                                            -78.4522111837 a.u.
  Excitation energy:                                               9.066016 eV

  Osc. strength:                                                      0.000033
  Trans. dip. moment [a.u.]:           [   0.000000,    0.012120,    0.000000]
  <i|r^2|0> [a.u.]:                    [   0.000000,    0.000000,    0.000001]

  Dip. moment [a.u.]:                  [  -0.000000,    0.000000,  -19.256286]
  Total dipole [Debye]:                                              48.944607
  <r^2> [a.u.]:                        [  51.596825,   23.657204,  791.689504]
  Total <r^2> [a.u.]:                                               866.943533

  V1^2 = 0.9523, V2^2 = 0.0477

  Important amplitudes:
      occ i      occ j       vir a       vir b          v   
    ---------------------------------------------------------
     1 (A2) A               4 (B1) A                 -0.4889
     1 (A2) A               5 (B1) A                  0.4591
    ---------------------------------------------------------

  Density matrix analysis:
  ------------------------
  NOs
    Occupation of frontier NOs:
       0.9956   1.0150
    Number of electrons: 18.000000
    Number of unpaired electrons: n_u =  2.39583, n_u,nl =  2.04398
    NO participation ratio (PR_NO):  2.909157
  
  
  Mulliken Population Analysis
  Atom      Charge (e)              h+              e-           Del q
  --------------------------------------------------------------------
   1 C       -0.442448        0.280338       -0.513378       -0.233040
   2 C       -0.442448        0.280338       -0.513378       -0.233040
   3 H        0.221216        0.124052       -0.007532        0.116519
   4 H        0.221239        0.124052       -0.007532        0.116520
   5 H        0.221231        0.124052       -0.007532        0.116520
   6 H        0.221208        0.124052       -0.007532        0.116520
   7 H       -1.000000        0.000022       -0.000022       -0.000000
  --------------------------------------------------------------------
  Sum:       -1.000000        1.056906       -1.056906       -0.000000
  
  Multipole moment analysis of the density matrix
    Molecular charge:                      -1.000000
    Number of electrons:                   18.000000
      Center of electronic charge [Ang]: [  0.000000,  -0.000000,   0.566110]
    Total nuclear charge:                  17.000000
      Center of nuclear charge [Ang]:    [  0.000000,  -0.000000,  -0.000000]
    Dipole moment [D]:                     48.944592
      Cartesian components [D]:          [ -0.000000,   0.000001, -48.944592]
    RMS size of the density [Ang]:         3.628592
      Cartesian components [Ang]:        [  0.895935,   0.606662,   3.463516]
  
  Exciton analysis of the difference density matrix
    <r_h> [Ang]:                  [  0.000000,  -0.000000,  -0.641930]
    <r_e> [Ang]:                  [  0.000000,  -0.000000,  -0.674433]
    |<r_e - r_h>| [Ang]:            0.032502
    Hole size [Ang]:                1.500545
      Cartesian components [Ang]: [  1.103492,   0.908998,   0.455703]
    Electron size [Ang]:            1.726082
      Cartesian components [Ang]: [  1.203070,   0.675109,   1.037404]

  Transition density matrix analysis:
  -----------------------------------
  
  CT numbers (Mulliken)
    omega =     0.9218
    <Phe> =    -0.0127
  
  Exciton analysis of the transition density matrix
    Trans. dipole moment [D]:             0.015403
      Cartesian components [D]:         [  0.000000,   0.015403,   0.000000]
    <r_h> [Ang]:                        [  0.000000,  -0.000000,  -0.640956]
    <r_e> [Ang]:                        [  0.000000,  -0.000000,  -0.676995]
    |<r_e - r_h>| [Ang]:                  0.036039
    Hole size [Ang]:                      1.507961
      Cartesian components [Ang]:       [  1.113559,   0.927864,   0.415935]
    Electron size [Ang]:                  1.742926
      Cartesian components [Ang]:       [  1.214924,   0.661752,   1.060111]
    RMS electron-hole separation [Ang]:   2.286027
      Cartesian components [Ang]:       [  1.623756,   1.136691,   1.138977]
    Covariance(r_h, r_e) [Ang^2]:         0.043559
    Correlation coefficient:              0.016573
    Center-of-mass size [Ang]:            1.161772
      Cartesian components [Ang]:       [  0.835991,   0.571321,   0.569584]

  Decomposition into state-averaged NTOs
    H- 2 -> L+ 3:  0.6360 ( 80.9%)
    H- 2 -> L+ 5: -0.1719 (  5.9%)
    H- 2 -> L+ 4:  0.1509 (  4.6%)
                   omega =  92.2%
  ----------------------------------------------------------------------------


  Excited state 6 (singlet, B2)                                    [converged]
  ----------------------------------------------------------------------------
  Term symbol:  6 (1) B2                                    R^2 =  2.84935e-07

  Total energy:                                            -78.3942749304 a.u.
  Excitation energy:                                              10.642542 eV

  Osc. strength:                                                      0.097974
  Trans. dip. moment [a.u.]:           [  -0.000000,   -0.612991,    0.000000]
  <i|r^2|0> [a.u.]:                    [  -0.000004,   -0.000004,   -0.000001]

  Dip. moment [a.u.]:                  [  -0.000000,    0.000001,  -19.038355]
  Total dipole [Debye]:                                              48.390681
  <r^2> [a.u.]:                        [  77.929562,   29.848355,  795.302158]
  Total <r^2> [a.u.]:                                               903.080075

  V1^2 = 0.9401, V2^2 = 0.0599

  Important amplitudes:
      occ i      occ j       vir a       vir b          v   
    ---------------------------------------------------------
     1 (A2) A               3 (B1) A                 -0.6487
     1 (A2) A               6 (B1) A                  0.1308
    ---------------------------------------------------------

  Density matrix analysis:
  ------------------------
  NOs
    Occupation of frontier NOs:
       0.9729   1.0366
    Number of electrons: 18.000000
    Number of unpaired electrons: n_u =  2.45494, n_u,nl =  2.07603
    NO participation ratio (PR_NO):  3.178739
  
  
  Mulliken Population Analysis
  Atom      Charge (e)              h+              e-           Del q
  --------------------------------------------------------------------
   1 C       -0.493836        0.270474       -0.554902       -0.284428
   2 C       -0.493836        0.270474       -0.554902       -0.284428
   3 H        0.246910        0.185895       -0.043681        0.142213
   4 H        0.246933        0.185895       -0.043681        0.142214
   5 H        0.246926        0.185896       -0.043681        0.142215
   6 H        0.246903        0.185895       -0.043681        0.142214
   7 H       -1.000000        0.000119       -0.000119        0.000000
  --------------------------------------------------------------------
  Sum:       -1.000000        1.284648       -1.284648        0.000000
  
  Multipole moment analysis of the density matrix
    Molecular charge:                      -1.000000
    Number of electrons:                   18.000000
      Center of electronic charge [Ang]: [  0.000000,  -0.000000,   0.559703]
    Total nuclear charge:                  17.000000
      Center of nuclear charge [Ang]:    [  0.000000,  -0.000000,  -0.000000]
    Dipole moment [D]:                     48.390666
      Cartesian components [D]:          [ -0.000000,   0.000003, -48.390666]
    RMS size of the density [Ang]:         3.706221
      Cartesian components [Ang]:        [  1.101073,   0.681436,   3.472659]
  
  Exciton analysis of the difference density matrix
    <r_h> [Ang]:                  [  0.000000,  -0.000000,  -0.652046]
    <r_e> [Ang]:                  [  0.000000,  -0.000001,  -0.768557]
    |<r_e - r_h>| [Ang]:            0.116511
    Hole size [Ang]:                1.710884
      Cartesian components [Ang]: [  1.221190,   0.996551,   0.665360]
    Electron size [Ang]:            3.357468
      Cartesian components [Ang]: [  2.724023,   1.427531,   1.347013]

  Transition density matrix analysis:
  -----------------------------------
  
  CT numbers (Mulliken)
    omega =     0.9247
    <Phe> =    -0.0057
  
  Exciton analysis of the transition density matrix
    Trans. dipole moment [D]:             0.779034
      Cartesian components [D]:         [ -0.000001,  -0.779034,   0.000000]
    <r_h> [Ang]:                        [  0.000000,  -0.000000,  -0.641004]
    <r_e> [Ang]:                        [  0.000000,  -0.000000,  -0.800778]
    |<r_e - r_h>| [Ang]:                  0.159774
    Hole size [Ang]:                      1.515122
      Cartesian components [Ang]:       [  1.119852,   0.933294,   0.412902]
    Electron size [Ang]:                  3.715901
      Cartesian components [Ang]:       [  3.031466,   1.572034,   1.465212]
    RMS electron-hole separation [Ang]:   3.865948
      Cartesian components [Ang]:       [  3.067764,   1.786729,   1.530352]
    Covariance(r_h, r_e) [Ang^2]:         0.591745
    Correlation coefficient:              0.105105
    Center-of-mass size [Ang]:            2.078882
      Cartesian components [Ang]:       [  1.693852,   0.934378,   0.761285]

  Decomposition into state-averaged NTOs
    H- 2 -> L+ 4:  0.5083 ( 51.7%)
    H- 2 -> L+ 5:  0.4398 ( 38.7%)
                   omega =  92.5%
  ----------------------------------------------------------------------------


  Excited state 7 (singlet, B2)                                    [converged]
  ----------------------------------------------------------------------------
  Term symbol:  7 (1) B2                                    R^2 =  3.70590e-07

  Total energy:                                            -78.3524481366 a.u.
  Excitation energy:                                              11.780707 eV

  Osc. strength:                                                      0.089909
  Trans. dip. moment [a.u.]:           [   0.000000,   -0.558132,   -0.000000]
  <i|r^2|0> [a.u.]:                    [   0.000000,   -0.000000,   -0.000000]

  Dip. moment [a.u.]:                  [  -0.000000,    0.000001,  -19.324300]
  Total dipole [Debye]:                                              49.117480
  <r^2> [a.u.]:                        [  54.704043,   45.244419,  794.006689]
  Total <r^2> [a.u.]:                                               893.955151

  V1^2 = 0.9309, V2^2 = 0.0691

  Important amplitudes:
      occ i      occ j       vir a       vir b          v   
    ---------------------------------------------------------
     3 (A1) A               2 (B2) A                 -0.6551
     3 (A1) A               3 (B2) A                 -0.1642
    ---------------------------------------------------------

  Density matrix analysis:
  ------------------------
  NOs
    Occupation of frontier NOs:
       0.9790   1.0175
    Number of electrons: 18.000000
    Number of unpaired electrons: n_u =  2.43625, n_u,nl =  2.06061
    NO participation ratio (PR_NO):  3.059199
  
  
  Mulliken Population Analysis
  Atom      Charge (e)              h+              e-           Del q
  --------------------------------------------------------------------
   1 C       -0.372788        0.433048       -0.596429       -0.163380
   2 C       -0.372788        0.433048       -0.596429       -0.163380
   3 H        0.186387        0.137186       -0.055496        0.081690
   4 H        0.186408        0.137185       -0.055496        0.081689
   5 H        0.186401        0.137186       -0.055496        0.081690
   6 H        0.186380        0.137187       -0.055496        0.081691
   7 H       -1.000000        0.000060       -0.000060        0.000000
  --------------------------------------------------------------------
  Sum:       -1.000000        1.414901       -1.414901       -0.000000
  
  Multipole moment analysis of the density matrix
    Molecular charge:                      -1.000000
    Number of electrons:                   18.000000
      Center of electronic charge [Ang]: [  0.000000,  -0.000000,   0.568110]
    Total nuclear charge:                  17.000000
      Center of nuclear charge [Ang]:    [  0.000000,  -0.000000,  -0.000000]
    Dipole moment [D]:                     49.117466
      Cartesian components [D]:          [ -0.000000,   0.000002, -49.117466]
    RMS size of the density [Ang]:         3.685734
      Cartesian components [Ang]:        [  0.922517,   0.838972,   3.468389]
  
  Exciton analysis of the difference density matrix
    <r_h> [Ang]:                  [  0.000000,   0.000000,  -0.646532]
    <r_e> [Ang]:                  [  0.000000,  -0.000000,  -0.645373]
    |<r_e - r_h>| [Ang]:            0.001159
    Hole size [Ang]:                1.598888
      Cartesian components [Ang]: [  1.176044,   0.848980,   0.672752]
    Electron size [Ang]:            2.911952
      Cartesian components [Ang]: [  1.472960,   2.171731,   1.262315]

  Transition density matrix analysis:
  -----------------------------------
  
  CT numbers (Mulliken)
    omega =     0.9128
    <Phe> =    -0.0039
  
  Exciton analysis of the transition density matrix
    Trans. dipole moment [D]:             0.709315
      Cartesian components [D]:         [  0.000000,  -0.709315,  -0.000000]
    <r_h> [Ang]:                        [ -0.000000,  -0.000000,  -0.641334]
    <r_e> [Ang]:                        [  0.000000,  -0.000000,  -0.644770]
    |<r_e - r_h>| [Ang]:                  0.003436
    Hole size [Ang]:                      1.324749
      Cartesian components [Ang]:       [  1.101492,   0.614514,   0.405027]
    Electron size [Ang]:                  3.348211
      Cartesian components [Ang]:       [  1.654428,   2.535043,   1.430713]
    RMS electron-hole separation [Ang]:   3.559446
      Cartesian components [Ang]:       [  1.928527,   2.596045,   1.486939]
    Covariance(r_h, r_e) [Ang^2]:         0.147915
    Correlation coefficient:              0.033348
    Center-of-mass size [Ang]:            1.820804
      Cartesian components [Ang]:       [  1.022450,   1.310409,   0.743471]

  Decomposition into state-averaged NTOs
    H- 3 -> L+ 0:  0.6699 ( 89.7%)
                   omega =  91.3%
  ----------------------------------------------------------------------------


  Excited state 8 (singlet, B2)                                    [converged]
  ----------------------------------------------------------------------------
  Term symbol:  8 (1) B2                                    R^2 =  1.78505e-08

  Total energy:                                            -78.3372359119 a.u.
  Excitation energy:                                              12.194653 eV

  Osc. strength:                                                      0.000013
  Trans. dip. moment [a.u.]:           [   0.000000,   -0.006514,    0.000000]
  <i|r^2|0> [a.u.]:                    [   0.000000,    0.000000,    0.000001]

  Dip. moment [a.u.]:                  [   0.000000,   -0.000001,  -19.339823]
  Total dipole [Debye]:                                              49.156937
  <r^2> [a.u.]:                        [  55.381794,   36.027013,  790.285497]
  Total <r^2> [a.u.]:                                               881.694304

  V1^2 = 0.9605, V2^2 = 0.0395

  Important amplitudes:
      occ i      occ j       vir a       vir b          v   
    ---------------------------------------------------------
     4 (A1) A               3 (B2) A                  0.6181
     4 (A1) A               4 (B2) A                 -0.2426
    ---------------------------------------------------------

  Density matrix analysis:
  ------------------------
  NOs
    Occupation of frontier NOs:
       0.9717   0.9945
    Number of electrons: 18.000000
    Number of unpaired electrons: n_u =  2.33907, n_u,nl =  2.02935
    NO participation ratio (PR_NO):  2.818446
  
  
  Mulliken Population Analysis
  Atom      Charge (e)              h+              e-           Del q
  --------------------------------------------------------------------
   1 C        0.068878        0.551591       -0.273305        0.278286
   2 C        0.068878        0.551591       -0.273305        0.278286
   3 H       -0.034445        0.034713       -0.173855       -0.139142
   4 H       -0.034425        0.034713       -0.173857       -0.139144
   5 H       -0.034433        0.034713       -0.173857       -0.139144
   6 H       -0.034453        0.034714       -0.173855       -0.139142
   7 H       -1.000000        0.000056       -0.000056        0.000000
  --------------------------------------------------------------------
  Sum:       -1.000000        1.242090       -1.242090        0.000000
  
  Multipole moment analysis of the density matrix
    Molecular charge:                      -1.000000
    Number of electrons:                   18.000000
      Center of electronic charge [Ang]: [ -0.000000,  -0.000000,   0.568566]
    Total nuclear charge:                  17.000000
      Center of nuclear charge [Ang]:    [  0.000000,  -0.000000,  -0.000000]
    Dipole moment [D]:                     49.156923
      Cartesian components [D]:          [  0.000000,  -0.000002, -49.156923]
    RMS size of the density [Ang]:         3.659696
      Cartesian components [Ang]:        [  0.928215,   0.748650,   3.459959]
  
  Exciton analysis of the difference density matrix
    <r_h> [Ang]:                  [  0.000000,  -0.000000,  -0.647062]
    <r_e> [Ang]:                  [ -0.000000,   0.000001,  -0.639129]
    |<r_e - r_h>| [Ang]:            0.007933
    Hole size [Ang]:                1.489101
      Cartesian components [Ang]: [  0.941959,   0.756221,   0.870785]
    Electron size [Ang]:            2.491749
      Cartesian components [Ang]: [  1.391419,   1.745099,   1.107879]

  Transition density matrix analysis:
  -----------------------------------
  
  CT numbers (Mulliken)
    omega =     0.9272
    <Phe> =    -0.0096
  
  Exciton analysis of the transition density matrix
    Trans. dipole moment [D]:             0.008278
      Cartesian components [D]:         [  0.000000,  -0.008278,   0.000001]
    <r_h> [Ang]:                        [  0.000000,  -0.000000,  -0.647035]
    <r_e> [Ang]:                        [ -0.000000,   0.000001,  -0.638310]
    |<r_e - r_h>| [Ang]:                  0.008726
    Hole size [Ang]:                      1.252956
      Cartesian components [Ang]:       [  0.760100,   0.515136,   0.852515]
    Electron size [Ang]:                  2.685570
      Cartesian components [Ang]:       [  1.484946,   1.896221,   1.188096]
    RMS electron-hole separation [Ang]:   2.952304
      Cartesian components [Ang]:       [  1.650449,   1.963600,   1.461641]
    Covariance(r_h, r_e) [Ang^2]:         0.033082
    Correlation coefficient:              0.009831
    Center-of-mass size [Ang]:            1.487309
      Cartesian components [Ang]:       [  0.842860,   0.983147,   0.731503]

  Decomposition into state-averaged NTOs
    H- 1 -> L+ 2:  0.6677 ( 89.2%)
    H- 1 -> L+ 1:  0.0982 (  1.9%)
                   omega =  92.7%
  ----------------------------------------------------------------------------


  Excited state 9 (singlet, B2)                                    [converged]
  ----------------------------------------------------------------------------
  Term symbol:  9 (1) B2                                    R^2 =  3.12687e-07

  Total energy:                                            -78.3139563374 a.u.
  Excitation energy:                                              12.828122 eV

  Osc. strength:                                                      0.000496
  Trans. dip. moment [a.u.]:           [  -0.000000,    0.039711,   -0.000000]
  <i|r^2|0> [a.u.]:                    [   0.000001,    0.000000,   -0.000000]

  Dip. moment [a.u.]:                  [  -0.000000,    0.000001,  -19.489732]
  Total dipole [Debye]:                                              49.537967
  <r^2> [a.u.]:                        [  68.669410,   28.818270,  809.055727]
  Total <r^2> [a.u.]:                                               906.543406

  V1^2 = 0.9392, V2^2 = 0.0608

  Important amplitudes:
      occ i      occ j       vir a       vir b          v   
    ---------------------------------------------------------
     1 (A2) A               5 (B1) A                  0.4739
     1 (A2) A               4 (B1) A                  0.4625
    ---------------------------------------------------------

  Density matrix analysis:
  ------------------------
  NOs
    Occupation of frontier NOs:
       0.9745   1.0351
    Number of electrons: 18.000000
    Number of unpaired electrons: n_u =  2.45536, n_u,nl =  2.07755
    NO participation ratio (PR_NO):  3.168937
  
  
  Mulliken Population Analysis
  Atom      Charge (e)              h+              e-           Del q
  --------------------------------------------------------------------
   1 C       -0.533808        0.294925       -0.619325       -0.324400
   2 C       -0.533808        0.294925       -0.619325       -0.324400
   3 H        0.266896        0.171988       -0.009788        0.162200
   4 H        0.266919        0.171988       -0.009788        0.162200
   5 H        0.266912        0.171989       -0.009788        0.162201
   6 H        0.266889        0.171988       -0.009788        0.162200
   7 H       -1.000000        0.000085       -0.000085        0.000000
  --------------------------------------------------------------------
  Sum:       -1.000000        1.277887       -1.277887        0.000000
  
  Multipole moment analysis of the density matrix
    Molecular charge:                      -1.000000
    Number of electrons:                   18.000000
      Center of electronic charge [Ang]: [  0.000000,  -0.000000,   0.572973]
    Total nuclear charge:                  17.000000
      Center of nuclear charge [Ang]:    [  0.000000,  -0.000000,  -0.000000]
    Dipole moment [D]:                     49.537953
      Cartesian components [D]:          [ -0.000000,   0.000001, -49.537953]
    RMS size of the density [Ang]:         3.711459
      Cartesian components [Ang]:        [  1.033586,   0.669574,   3.501185]
  
  Exciton analysis of the difference density matrix
    <r_h> [Ang]:                  [  0.000000,  -0.000000,  -0.642883]
    <r_e> [Ang]:                  [  0.000000,  -0.000000,  -0.573094]
    |<r_e - r_h>| [Ang]:            0.069789
    Hole size [Ang]:                1.699656
      Cartesian components [Ang]: [  1.205322,   0.996331,   0.665847]
    Electron size [Ang]:            3.505515
      Cartesian components [Ang]: [  2.320334,   1.348038,   2.255544]

  Transition density matrix analysis:
  -----------------------------------
  
  CT numbers (Mulliken)
    omega =     0.9227
    <Phe> =    -0.0023
  
  Exciton analysis of the transition density matrix
    Trans. dipole moment [D]:             0.050468
      Cartesian components [D]:         [ -0.000000,   0.050468,  -0.000000]
    <r_h> [Ang]:                        [  0.000000,  -0.000000,  -0.640920]
    <r_e> [Ang]:                        [  0.000000,  -0.000000,  -0.551541]
    |<r_e - r_h>| [Ang]:                  0.089379
    Hole size [Ang]:                      1.513577
      Cartesian components [Ang]:       [  1.115953,   0.932041,   0.420553]
    Electron size [Ang]:                  3.879821
      Cartesian components [Ang]:       [  2.560627,   1.470426,   2.516753]
    RMS electron-hole separation [Ang]:   4.103587
      Cartesian components [Ang]:       [  2.700466,   1.740575,   2.552902]
    Covariance(r_h, r_e) [Ang^2]:         0.256245
    Correlation coefficient:              0.043635
    Center-of-mass size [Ang]:            2.112843
      Cartesian components [Ang]:       [  1.441510,   0.870647,   1.275981]

  Decomposition into state-averaged NTOs
    H- 2 -> L+ 5: -0.4793 ( 45.9%)
    H- 2 -> L+ 4:  0.4139 ( 34.3%)
    H- 2 -> L+ 3: -0.2258 ( 10.2%)
    H- 1 -> L+ 2: -0.0727 (  1.1%)
                   omega =  92.3%
  ----------------------------------------------------------------------------


  Excited state 10 (singlet, B2)                                    [converged]
  ----------------------------------------------------------------------------
  Term symbol:  10 (1) B2                                   R^2 =  3.50854e-06

  Total energy:                                            -78.2758842408 a.u.
  Excitation energy:                                              13.864117 eV

  Osc. strength:                                                      0.000244
  Trans. dip. moment [a.u.]:           [   0.000000,    0.026801,   -0.000001]
  <i|r^2|0> [a.u.]:                    [  -0.000000,   -0.000000,   -0.000002]

  Dip. moment [a.u.]:                  [   0.000000,   -0.000000,  -19.332001]
  Total dipole [Debye]:                                              49.137055
  <r^2> [a.u.]:                        [  53.014625,   39.406004,  791.559618]
  Total <r^2> [a.u.]:                                               883.980247

  V1^2 = 0.9584, V2^2 = 0.0416

  Important amplitudes:
      occ i      occ j       vir a       vir b          v   
    ---------------------------------------------------------
     4 (A1) A               4 (B2) A                  0.6444
     4 (A1) A               3 (B2) A                  0.2277
    ---------------------------------------------------------

  Density matrix analysis:
  ------------------------
  NOs
    Occupation of frontier NOs:
       0.9868   0.9905
    Number of electrons: 18.000000
    Number of unpaired electrons: n_u =  2.31753, n_u,nl =  2.02522
    NO participation ratio (PR_NO):  2.738303
  
  
  Mulliken Population Analysis
  Atom      Charge (e)              h+              e-           Del q
  --------------------------------------------------------------------
   1 C       -0.727418        0.511601       -1.029611       -0.518010
   2 C       -0.727418        0.511601       -1.029611       -0.518010
   3 H        0.363702        0.084972        0.174034        0.259006
   4 H        0.363723        0.084971        0.174032        0.259003
   5 H        0.363716        0.084972        0.174032        0.259004
   6 H        0.363695        0.084972        0.174034        0.259007
   7 H       -1.000000        0.000050       -0.000050        0.000000
  --------------------------------------------------------------------
  Sum:       -1.000000        1.363140       -1.363140        0.000000
  
  Multipole moment analysis of the density matrix
    Molecular charge:                      -1.000000
    Number of electrons:                   18.000000
      Center of electronic charge [Ang]: [ -0.000000,  -0.000000,   0.568336]
    Total nuclear charge:                  17.000000
      Center of nuclear charge [Ang]:    [  0.000000,  -0.000000,  -0.000000]
    Dipole moment [D]:                     49.137041
      Cartesian components [D]:          [  0.000000,  -0.000000, -49.137041]
    RMS size of the density [Ang]:         3.664587
      Cartesian components [Ang]:        [  0.908161,   0.782972,   3.462860]
  
  Exciton analysis of the difference density matrix
    <r_h> [Ang]:                  [  0.000000,   0.000000,  -0.647367]
    <r_e> [Ang]:                  [ -0.000000,   0.000000,  -0.643175]
    |<r_e - r_h>| [Ang]:            0.004192
    Hole size [Ang]:                1.524328
      Cartesian components [Ang]: [  0.992211,   0.777408,   0.857165]
    Electron size [Ang]:            2.535001
      Cartesian components [Ang]: [  1.205746,   1.884769,   1.191660]

  Transition density matrix analysis:
  -----------------------------------
  
  CT numbers (Mulliken)
    omega =     0.9275
    <Phe> =    -0.0051
  
  Exciton analysis of the transition density matrix
    Trans. dipole moment [D]:             0.034061
      Cartesian components [D]:         [  0.000000,   0.034061,  -0.000001]
    <r_h> [Ang]:                        [  0.000000,  -0.000000,  -0.647580]
    <r_e> [Ang]:                        [ -0.000000,   0.000001,  -0.643973]
    |<r_e - r_h>| [Ang]:                  0.003608
    Hole size [Ang]:                      1.252554
      Cartesian components [Ang]:       [  0.755589,   0.509353,   0.859381]
    Electron size [Ang]:                  2.851603
      Cartesian components [Ang]:       [  1.278010,   2.158326,   1.356452]
    RMS electron-hole separation [Ang]:   3.111320
      Cartesian components [Ang]:       [  1.478942,   2.216832,   1.605832]
    Covariance(r_h, r_e) [Ang^2]:         0.010118
    Correlation coefficient:              0.002833
    Center-of-mass size [Ang]:            1.558907
      Cartesian components [Ang]:       [  0.745181,   1.109197,   0.802856]

  Decomposition into state-averaged NTOs
    H- 1 -> L+ 1: -0.6728 ( 90.5%)
    H- 1 -> L+ 2:  0.0967 (  1.9%)
                   omega =  92.7%
  ----------------------------------------------------------------------------


--------------------------------------------------------------------------------
  Time of ADC calculation:  CPU 214.39 s  wall 53.08 s
================================================================================
 
 --------------------------------------------------------------
             Orbital Energies (a.u.) and Symmetries
 --------------------------------------------------------------
 
 Alpha MOs, Restricted
 -- Occupied --                  
-11.189 -11.187  -0.993  -0.733  -0.612  -0.519  -0.467  -0.328
  1 A1    1 B1    2 A1    2 B1    1 B2    3 A1    1 A2    4 A1                 
  0.022
  5 A1                                                                         
 -- Virtual --                   
  0.117   0.131   0.134   0.146   0.147   0.161   0.187   0.233
  3 B1    2 B2    6 A1    7 A1    4 B1    2 A2    8 A1    5 B1                 
  0.261   0.311   0.364   0.367   0.394   0.399   0.409   0.415
  6 B1    9 A1    3 B2    7 B1   10 A1    4 B2   11 A1    3 A2                 
  0.418   0.491   0.598   0.664   0.883   0.899   0.983   1.006
  8 B1    9 B1    4 A2   10 B1   12 A1    5 B2   11 B1   13 A1                 
  1.058   1.071   1.099   1.107   1.163   1.171   1.187   1.215
 14 A1    5 A2    6 B2   15 A1    7 B2   16 A1   12 B1   13 B1                 
  1.333   1.337   1.339   1.500   1.670   1.731   1.780   1.924
  6 A2   14 B1   17 A1    7 A2   18 A1    8 A2    8 B2   15 B1                 
  1.968   1.968   1.968   1.993   2.010   2.066   2.122   2.145
 16 B1    9 B2   19 A1   20 A1   17 B1   10 B2   21 A1   11 B2                 
  2.230   2.380   2.461   2.521   2.618   2.628   2.888   2.891
 18 B1   19 B1    9 A2   22 A1   10 A2   20 B1   12 B2   23 A1                 
  3.313   3.391
 21 B1   11 A2                                                                 
 
 Beta MOs, Restricted
 -- Occupied --                  
-11.189 -11.187  -0.993  -0.733  -0.612  -0.519  -0.467  -0.328
  1 A1    1 B1    2 A1    2 B1    1 B2    3 A1    1 A2    4 A1                 
  0.022
  5 A1                                                                         
 -- Virtual --                   
  0.117   0.131   0.134   0.146   0.147   0.161   0.187   0.233
  3 B1    2 B2    6 A1    7 A1    4 B1    2 A2    8 A1    5 B1                 
  0.261   0.311   0.364   0.367   0.394   0.399   0.409   0.415
  6 B1    9 A1    3 B2    7 B1   10 A1    4 B2   11 A1    3 A2                 
  0.418   0.491   0.598   0.664   0.883   0.899   0.983   1.006
  8 B1    9 B1    4 A2   10 B1   12 A1    5 B2   11 B1   13 A1                 
  1.058   1.071   1.099   1.107   1.163   1.171   1.187   1.215
 14 A1    5 A2    6 B2   15 A1    7 B2   16 A1   12 B1   13 B1                 
  1.333   1.337   1.339   1.500   1.670   1.731   1.780   1.924
  6 A2   14 B1   17 A1    7 A2   18 A1    8 A2    8 B2   15 B1                 
  1.968   1.968   1.968   1.993   2.010   2.066   2.122   2.145
 16 B1    9 B2   19 A1   20 A1   17 B1   10 B2   21 A1   11 B2                 
  2.230   2.380   2.461   2.521   2.618   2.628   2.888   2.891
 18 B1   19 B1    9 A2   22 A1   10 A2   20 B1   12 B2   23 A1                 
  3.313   3.391
 21 B1   11 A2                                                                 
 --------------------------------------------------------------
 
          Ground-State Mulliken Net Atomic Charges

     Atom                 Charge (a.u.)
  ----------------------------------------
      1 C                    -0.194330
      2 C                    -0.194330
      3 H                     0.097157
      4 H                     0.097180
      5 H                     0.097172
      6 H                     0.097150
      7 H                    -1.000000
  ----------------------------------------
  Sum of atomic charges =    -1.000000

 -----------------------------------------------------------------
                    Cartesian Multipole Moments
 -----------------------------------------------------------------
    Charge (ESU x 10^10)
                -4.8032
    Dipole Moment (Debye)
         X       0.0000      Y       0.0000      Z     -49.1060
       Tot      49.1060
    Quadrupole Moments (Debye-Ang)
        XX     -16.8832     XY       0.0000     YY     -15.9236
        XZ      -0.0000     YZ      -0.0000     ZZ    -524.5973
    Octopole Moments (Debye-Ang^2)
       XXX      -0.0000    XXY       0.0000    XYY      -0.0000
       YYY       0.0000    XXZ     -32.1144    XYZ      -0.0000
       YYZ     -32.7613    XZZ      -0.0000    YZZ       0.0000
       ZZZ   -5258.4919
    Hexadecapole Moments (Debye-Ang^3)
      XXXX     -74.0380   XXXY       0.0000   XXYY     -15.1944
      XYYY       0.0000   YYYY     -32.8210   XXXZ       0.0000
      XXYZ      -0.0000   XYYZ       0.0000   YYYZ      -0.0000
      XXZZ    -438.2321   XYZZ       0.0000   YYZZ    -431.1887
      XZZZ       0.0000   YZZZ      -0.0000   ZZZZ  -55521.1217
 -----------------------------------------------------------------
 Total job time:  135.70s(wall), 258.42s(cpu) 
 Sat Mar 26 08:31:27 2022

        *************************************************************
        *                                                           *
        *  Thank you very much for using Q-Chem.  Have a nice day.  *
        *                                                           *
        *************************************************************


