/src/tsommerfeld/qchem/exe/qcprog.exe .input1.166667.16555.qcin.1 /src/jdavis/qchem.scratch/qchem16555/

                  Welcome to Q-Chem
     A Quantum Leap Into The Future Of Chemistry


 Q-Chem 5.4 (devel), Q-Chem, Inc., Pleasanton, CA (2021)

 E. Epifanovsky,  A. T. B. Gilbert,  Xintian Feng,  Joonho Lee,  Yuezhi Mao,  
 N. Mardirossian,  P. Pokhilko,  A. White,  M. Wormit,  M. P. Coons,  
 A. L. Dempwolff,  Zhengting Gan,  D. Hait,  P. R. Horn,  L. D. Jacobson,  
 I. Kaliman,  J. Kussmann,  A. W. Lange,  Ka Un Lao,  D. S. Levine,  Jie Liu,  
 S. C. McKenzie,  A. F. Morrison,  K. Nanda,  F. Plasser,  D. R. Rehn,  
 M. L. Vidal,  Zhi-Qiang You,  Ying Zhu,  B. Alam,  B. Albrecht,  
 A. Aldossary,  E. Alguire,  J. H. Andersen,  D. Barton,  K. Begam,  A. Behn,  
 Y. A. Bernard,  E. J. Berquist,  H. Burton,  A. Carreras,  K. Carter-Fenk,  
 R. Chakraborty,  A. D. Chien,  K. D. Closser,  V. Cofer-Shabica,  
 S. Dasgupta,  Jia Deng,  M. de Wergifosse,  M. Diedenhofen,  Hainam Do,  
 S. Ehlert,  Po-Tung Fang,  S. Fatehi,  Qingguo Feng,  T. Friedhoff,  
 J. Gayvert,  Qinghui Ge,  G. Gidofalvi,  M. Goldey,  J. Gomes,  
 C. Gonzalez-Espinoza,  S. Gulania,  A. Gunina,  M. W. D. Hanson-Heine,  
 P. H. P. Harbach,  A. W. Hauser,  M. F. Herbst,  M. Hernandez Vera,  
 M. Hodecker,  Z. C. Holden,  S. Houck,  Xunkun Huang,  Kerwin Hui,  
 B. C. Huynh,  M. Ivanov,  Hyunjun Ji,  Hanjie Jiang,  B. Kaduk,  S. Kaehler,  
 K. Khistyaev,  Jaehoon Kim,  P. Klunzinger,  Z. Koczor-Benda,  
 Joong Hoon Koh,  D. Kosenkov,  L. Koulias,  T. Kowalczyk,  C. M. Krauter,  
 K. Kue,  A. Kunitsa,  T. Kus,  A. Landau,  K. V. Lawler,  D. Lefrancois,  
 S. Lehtola,  Rain Li,  Yi-Pei Li,  Jiashu Liang,  M. Liebenthal,  
 Hung-Hsuan Lin,  You-Sheng Lin,  Fenglai Liu,  Kuan-Yu Liu,  
 M. Loipersberger,  A. Luenser,  A. Manjanath,  P. Manohar,  E. Mansoor,  
 S. F. Manzer,  Shan-Ping Mao,  A. V. Marenich,  T. Markovich,  S. Mason,  
 S. A. Maurer,  P. F. McLaughlin,  M. F. S. J. Menger,  J.-M. Mewes,  
 S. A. Mewes,  P. Morgante,  J. W. Mullinax,  K. J. Oosterbaan,  G. Paran,  
 Alexander C. Paul,  Suranjan K. Paul,  F. Pavosevic,  Zheng Pei,  S. Prager,  
 E. I. Proynov,  E. Ramos,  B. Rana,  A. E. Rask,  A. Rettig,  R. M. Richard,  
 F. Rob,  E. Rossomme,  T. Scheele,  M. Scheurer,  M. Schneider,  
 N. Sergueev,  S. M. Sharada,  W. Skomorowski,  D. W. Small,  C. J. Stein,  
 Yu-Chuan Su,  E. J. Sundstrom,  Zhen Tao,  J. Thirman,  T. Tsuchimochi,  
 N. M. Tubman,  S. P. Veccham,  O. Vydrov,  J. Wenzel,  J. Witte,  A. Yamada,  
 Kun Yao,  S. Yeganeh,  S. R. Yost,  A. Zech,  Igor Ying Zhang,  Xing Zhang,  
 Yu Zhang,  D. Zuev,  A. Aspuru-Guzik,  A. T. Bell,  N. A. Besley,  
 K. B. Bravaya,  B. R. Brooks,  D. Casanova,  Jeng-Da Chai,  S. Coriani,  
 C. J. Cramer,  A. E. DePrince, III,  R. A. DiStasio Jr.,  A. Dreuw,  
 B. D. Dunietz,  T. R. Furlani,  W. A. Goddard III,  S. Grimme,  
 S. Hammes-Schiffer,  T. Head-Gordon,  W. J. Hehre,  Chao-Ping Hsu,  
 T.-C. Jagau,  Yousung Jung,  A. Klamt,  Jing Kong,  D. S. Lambrecht,  
 WanZhen Liang,  N. J. Mayhall,  C. W. McCurdy,  J. B. Neaton,  
 C. Ochsenfeld,  J. A. Parkhill,  R. Peverati,  V. A. Rassolov,  Yihan Shao,  
 L. V. Slipchenko,  T. Stauch,  R. P. Steele,  J. E. Subotnik,  
 A. J. W. Thom,  A. Tkatchenko,  D. G. Truhlar,  T. Van Voorhis,  
 T. A. Wesolowski,  K. B. Whaley,  H. L. Woodcock III,  P. M. Zimmerman,  
 S. Faraji,  P. M. W. Gill,  M. Head-Gordon,  J. M. Herbert,  A. I. Krylov

 Additional authors for Version 5.4.1: 
 S. Kotaru,  Shaozhi Li,  Xiangyuan Li,  F. Matz,  A. Molle,  Haisheng Ren,  
 Yingli Su,  Hung-Yi Tsai,  C. Utku,  Fang Wang

 Contributors to earlier versions of Q-Chem not listed above: 
 R. D. Adamson,  B. Austin,  R. Baer,  J. Baker,  G. J. O. Beran,  
 K. Brandhorst,  S. T. Brown,  E. F. C. Byrd,  A. K. Chakraborty,  
 G. K. L. Chan,  Chun-Min Chang,  Yunqing Chen,  C.-L. Cheng,  
 Siu Hung Chien,  D. M. Chipman,  D. L. Crittenden,  H. Dachsel,  
 R. J. Doerksen,  A. D. Dutoi,  R. G. Edgar,  J. Fosso-Tande,  
 L. Fusti-Molnar,  D. Ghosh,  A. Ghysels,  A. Golubeva-Zadorozhnaya,  
 J. Gonthier,  M. S. Gordon,  S. R. Gwaltney,  G. Hawkins,  J. E. Herr,  
 A. Heyden,  S. Hirata,  E. G. Hohenstein,  G. Kedziora,  F. J. Keil,  
 C. Kelley,  Jihan Kim,  R. A. King,  R. Z. Khaliullin,  P. P. Korambath,  
 W. Kurlancheek,  A. Laurent,  A. M. Lee,  M. S. Lee,  S. V. Levchenko,  
 Ching Yeh Lin,  D. Liotard,  E. Livshits,  R. C. Lochan,  I. Lotan,  
 L. A. Martinez-Martinez,  P. E. Maslen,  N. Nair,  D. P. O'Neill,  
 D. Neuhauser,  E. Neuscamman,  C. M. Oana,  R. Olivares-Amaya,  R. Olson,  
 T. M. Perrine,  B. Peters,  P. A. Pieniazek,  A. Prociuk,  Y. M. Rhee,  
 J. Ritchie,  M. A. Rohrdanz,  E. Rosta,  N. J. Russ,  H. F. Schaefer III,  
 M. W. Schmidt,  N. E. Schultz,  S. Sharma,  N. Shenvi,  C. D. Sherrill,  
 A. C. Simmonett,  A. Sodt,  T. Stein,  D. Stuck,  K. S. Thanthiriwatte,  
 V. Vanovschi,  L. Vogt,  Tao Wang,  A. Warshel,  M. A. Watson,  
 C. F. Williams,  Q. Wu,  X. Xu,  Jun Yang,  W. Zhang,  Yan Zhao

 Please cite Q-Chem as follows:
 Y. Shao et al., Mol. Phys. 113, 184-215 (2015)
 DOI: 10.1080/00268976.2014.952696

 Q-Chem 5.4.1 for Intel X86 EM64T Linux

 Parts of Q-Chem use Armadillo 9.900.5 (Nocturnal Misbehaviour).
 http://arma.sourceforge.net/

 Q-Chem begins on Sat Mar 26 07:37:09 2022  

 Host: node01
0

     Scratch files written to /src/jdavis/qchem.scratch/qchem16555//
 Processing $rem in /src/tsommerfeld/qchem/config/preferences:
 Processing $rem in /home/jdavis/.qchemrc:

 Checking the input file for inconsistencies... 	...done.

--------------------------------------------------------------
User input:
--------------------------------------------------------------
$molecule
-1 1
C         0.0000003663    0.4438502432    0.6645000000
C         0.0000003663    0.4438502432   -0.6645000000
H        -0.9623486337    0.4438522630    1.1590800000
H        -0.9623486337    0.4438522630   -1.1590800000
H         0.9623483663    0.4438482235    1.1590800000
H         0.9623483663    0.4438482235   -1.1590800000
H        -0.0000038605   -10.4438482235    0.0000000000
$end

$rem
   METHOD adc(2)
   BASIS gen
   PURECART 11
   EE_STATES [0,0,0,10]
   scf_convergence 8
   ADC_DAVIDSON_MAXITER 120
   ADC_DAVIDSON_MAXSUBSPACE 200
   adc_nguess_singles 100
   THRESH 14
   S2THRESH 14
   adc_davidson_conv 5
   adc_davidson_thresh 14
   THREADS 10
   MEM_TOTAL 95000
   STATE_ANALYSIS TRUE
$end
$basis
C 1
S   9   1.00
      6.665000D+03           6.920000D-04
      1.000000D+03           5.329000D-03
      2.280000D+02           2.707700D-02
      6.471000D+01           1.017180D-01
      2.106000D+01           2.747400D-01
      7.495000D+00           4.485640D-01
      2.797000D+00           2.850740D-01
      5.215000D-01           1.520400D-02
      1.596000D-01          -3.191000D-03
S   9   1.00
      6.665000D+03          -1.460000D-04
      1.000000D+03          -1.154000D-03
      2.280000D+02          -5.725000D-03
      6.471000D+01          -2.331200D-02
      2.106000D+01          -6.395500D-02
      7.495000D+00          -1.499810D-01
      2.797000D+00          -1.272620D-01
      5.215000D-01           5.445290D-01
      1.596000D-01           5.804960D-01
S   1   1.00
      1.596000D-01           1.000000D+00
S   1   1.00
      0.0469000              1.0000000
P   4   1.00
      9.439000D+00           3.810900D-02
      2.002000D+00           2.094800D-01
      5.456000D-01           5.085570D-01
      1.517000D-01           4.688420D-01
P   1   1.00
      1.517000D-01           1.000000D+00
P   1   1.00
      0.0707933      1.0000000
P   1   1.00
      0.0353967      1.0000000
D   1   1.00
      5.500000D-01           1.0000000
****
C 2
S   9   1.00
      6.665000D+03           6.920000D-04
      1.000000D+03           5.329000D-03
      2.280000D+02           2.707700D-02
      6.471000D+01           1.017180D-01
      2.106000D+01           2.747400D-01
      7.495000D+00           4.485640D-01
      2.797000D+00           2.850740D-01
      5.215000D-01           1.520400D-02
      1.596000D-01          -3.191000D-03
S   9   1.00
      6.665000D+03          -1.460000D-04
      1.000000D+03          -1.154000D-03
      2.280000D+02          -5.725000D-03
      6.471000D+01          -2.331200D-02
      2.106000D+01          -6.395500D-02
      7.495000D+00          -1.499810D-01
      2.797000D+00          -1.272620D-01
      5.215000D-01           5.445290D-01
      1.596000D-01           5.804960D-01
S   1   1.00
      1.596000D-01           1.000000D+00
S   1   1.00
      0.0469000              1.0000000
P   4   1.00
      9.439000D+00           3.810900D-02
      2.002000D+00           2.094800D-01
      5.456000D-01           5.085570D-01
      1.517000D-01           4.688420D-01
P   1   1.00
      1.517000D-01           1.000000D+00
P   1   1.00
      0.0707933      1.0000000
P   1   1.00
      0.0353967      1.0000000
D   1   1.00
      5.500000D-01           1.0000000
****
H 3
cc-pVDZ
****
H 4
cc-pVDZ
****
H 5
cc-pVDZ
****
H 6
cc-pVDZ
****
H 7
aug-cc-pVDZ
****
$end
--------------------------------------------------------------
 Atom   2: (  0.6645000000,  0.0000001629, -0.6404528510)
         ->(  0.6645000000, -0.0000001629, -0.6404528510)
 Atom   1: ( -0.6645000000,  0.0000001629, -0.6404528510)
         ->( -0.6645000000,  0.0000000000, -0.6404528510)
 Atom   6: (  1.1590800000,  0.9623481629, -0.6404511369)
         ->(  1.1590800000,  0.9623488371, -0.6404545651)
 Atom   5: ( -1.1590800000,  0.9623481629, -0.6404511369)
         ->( -1.1590800000,  0.9623488371, -0.6404545651)
 Atom   7: ( -0.0000000000, -0.0000006060, 10.2472456157)
         ->(  0.0000000000,  0.0000000000, 10.2472456157)
 ----------------------------------------------------------------
             Standard Nuclear Orientation (Angstroms)
    I     Atom           X                Y                Z
 ----------------------------------------------------------------
    1      C      -0.6645000000     0.0000000000    -0.6404528510
    2      C       0.6645000000    -0.0000001629    -0.6404528510
    3      H      -1.1590800000    -0.9623488371    -0.6404545651
    4      H       1.1590800000    -0.9623488371    -0.6404545651
    5      H      -1.1590800000     0.9623488371    -0.6404545651
    6      H       1.1590800000     0.9623488371    -0.6404545651
    7      H       0.0000000000     0.0000000000    10.2472456157
 ----------------------------------------------------------------
 Molecular Point Group                 C2v   NOp =  4
 Largest Abelian Subgroup              C2v   NOp =  4
 Nuclear Repulsion Energy =          34.36395017 hartrees
 There are        9 alpha and        9 beta electrons
 Requested basis set is non-standard
 There are 33 shells and 67 basis functions
 Total memory of 95000 MB is distributed as follows: 
   MEM_STATIC is set to 192 MB
   QALLOC/CCMAN JOB total memory use is  94808 MB
 Warning: actual memory use might exceed 95000 MB

 Total QAlloc Memory Limit  95000 MB
 Mega-Array Size       188 MB
 MEM_STATIC part       192 MB

                       Distance Matrix (Angstroms)
             C (  1)   C (  2)   H (  3)   H (  4)   H (  5)   H (  6)
   C (  2)  1.329000
   H (  3)  1.082000  2.061931
   H (  4)  2.061931  1.082000  2.318160
   H (  5)  1.082000  2.061931  1.924698  3.013026
   H (  6)  2.061931  1.082000  3.013026  1.924698  2.318160
   H (  7) 10.907958 10.907958 10.991433 10.991433 10.991433 10.991433

 
 A cutoff of  1.0D-14 yielded    493 shell pairs
 There are      2101 function pairs (      2238 Cartesian)
 Smallest overlap matrix eigenvalue = 2.57E-04

 Scale SEOQF with 1.000000e-01/1.000000e-01/1.000000e-02

 Standard Electronic Orientation quadrupole field applied
 Nucleus-field energy     =    -0.0000000005 hartrees
 ================ Generating on-the-fly SAD Guess ================
Attempting to make child job directory: /src/jdavis/qchem.scratch/qchem16555//Frg1/
Attempting to make child job directory: /src/jdavis/qchem.scratch/qchem16555//Frg2/
Creating input file /src/jdavis/qchem.scratch/qchem16555/Frg1.input
using default PutDataFrgm: nothing
calling putenv with: QCSCRATCH=/src/jdavis/qchem.scratch/qchem16555/ 
Spawning Job For Fragment 0
Done Job For Fragment 0
calling putenv with: QCSCRATCH=/src/jdavis/qchem.scratch 
calling putenv with: QCTHREADS=1 
Creating input file /src/jdavis/qchem.scratch/qchem16555/Frg2.input
using default PutDataFrgm: nothing
calling putenv with: QCSCRATCH=/src/jdavis/qchem.scratch/qchem16555/ 
Spawning Job For Fragment 1
Done Job For Fragment 1
calling putenv with: QCSCRATCH=/src/jdavis/qchem.scratch 
calling putenv with: QCTHREADS=1 
 Time for running child jobs:  CPU 1.81 s  wall 54.39 s
 ============= Method Specific SAD Guess Constructed =============
 Guess from on-the-fly superposition of atomic densities
 Warning: Energy on first SCF cycle will be non-variational
 A restricted Hartree-Fock SCF calculation will be
 performed using Pulay DIIS extrapolation
 SCF converges when DIIS error is below 1.0E-08
 using 10 threads for integral computing
 -------------------------------------------------------
 OpenMP Integral computing Module                
 Release: version 1.0, May 2013, Q-Chem Inc. Pittsburgh 
 -------------------------------------------------------
 ---------------------------------------
  Cycle       Energy         DIIS Error
 ---------------------------------------
    1     -78.8007228625      7.36E-02
    2     -78.4459530789      6.48E-03
    3     -78.4838885892      1.48E-03
    4     -78.4858153794      4.77E-04
    5     -78.4859856578      7.17E-05
    6     -78.4859930485      1.19E-05
    7     -78.4859934189      3.33E-06
    8     -78.4859934896      3.03E-07
    9     -78.4859934954      6.88E-08
   10     -78.4859934965      1.20E-08
   11     -78.4859934966      1.88E-09 Convergence criterion met
 ---------------------------------------
 SCF time:  CPU 9.93 s  wall 1.00 s
 SCF   energy in the final basis set = -78.48599350
 Total energy in the final basis set = -78.48599350
================================================================================
|                                                                              |
|                                 A D C  M A N                                 |
|                                                                              |
 ------------------------------------------------------------------------------ 
|                                                                              |
| Components:                                                                  |
|                                                                              |
| - libvmm - 1.3-trunk                                                         |
|   Authors:                                                                   |
|   Evgeny Epifanovsky, Ilya Kaliman                                           |
|                                                                              |
| - libtensor - 2.5-trunk                                                      |
|   Authors:                                                                   |
|   Evgeny Epifanovsky, Michael Wormit, Dmitry Zuev, Sam Manzer,               |
|   Ilya Kaliman                                                               |
|                                                                              |
| - libwfa - 1.1-trunk                                                         |
|   Authors:                                                                   |
|   Felix Plasser, Stefanie Mewes (Baeppler), Benjamin Thomitzni,              |
|   Michael Wormit, Feng Chen, Anna I. Krylov, Pavel Pokhilko                  |
|                                                                              |
| - libadc - 1.1-trunk                                                         |
|   Authors:                                                                   |
|   Michael Wormit, Adrian L. Dempwolff, Philipp H. P. Harbach,                |
|   Caroline Krauter, Dirk Rehn, Matthias Schneider, Jan Wenzel                |
|                                                                              |
| - adcman - 2.6-trunk                                                         |
|   Authors:                                                                   |
|   Michael Wormit, Adrian L. Dempwolff, Philipp H. P. Harbach,                |
|   Caroline Krauter, Daniel Lefrancois, Jan-Michael Mewes, Dirk Rehn,         |
|   Matthias Schneider, Jan Wenzel, Andreas Dreuw                              |
|                                                                              |
| Authors of earlier versions of ADCMAN:                                       |
| Andreas Dreuw, Jan Hendrik Starcke, Dirk Rehn, Michael Wormit                |
|                                                                              |
================================================================================

 
 Alpha MOs, Restricted
 -- Occupied --                  
-11.189 -11.187  -0.993  -0.733  -0.612  -0.519  -0.467  -0.328
  1 A1    1 B1    2 A1    2 B1    1 B2    3 A1    1 A2    4 A1                 
  0.022
  5 A1                                                                         
 -- Virtual --                   
  0.108   0.120   0.128   0.135   0.141   0.146   0.178   0.219
  3 B1    2 B2    6 A1    7 A1    4 B1    2 A2    8 A1    5 B1                 
  0.250   0.311   0.337   0.350   0.360   0.364   0.370   0.389
  6 B1    9 A1    3 B2    7 B1   10 A1    3 A2   11 A1    4 B2                 
  0.417   0.450   0.601   0.657   0.873   0.904   0.962   0.981
  8 B1    9 B1    4 A2   10 B1   12 A1    5 B2   13 A1   11 B1                 
  1.035   1.058   1.086   1.092   1.111   1.153   1.162   1.163
  6 B2   14 A1    5 A2   15 A1   16 A1   12 B1   13 B1    7 B2                 
  1.318   1.333   1.336   1.459   1.667   1.690   1.772   1.918
 14 B1    6 A2   17 A1    7 A2   18 A1    8 A2    8 B2   15 B1                 
  1.968   1.968   1.968   1.991   2.001   2.066   2.104   2.136
 16 B1    9 B2   19 A1   20 A1   17 B1   10 B2   21 A1   11 B2                 
  2.228   2.374   2.461   2.514   2.626   2.629   2.867   2.875
 18 B1   19 B1    9 A2   22 A1   20 B1   10 A2   12 B2   23 A1                 
  3.301   3.387
 21 B1   11 A2                                                                 
 
 Beta MOs, Restricted
 -- Occupied --                  
-11.189 -11.187  -0.993  -0.733  -0.612  -0.519  -0.467  -0.328
  1 A1    1 B1    2 A1    2 B1    1 B2    3 A1    1 A2    4 A1                 
  0.022
  5 A1                                                                         
 -- Virtual --                   
  0.108   0.120   0.128   0.135   0.141   0.146   0.178   0.219
  3 B1    2 B2    6 A1    7 A1    4 B1    2 A2    8 A1    5 B1                 
  0.250   0.311   0.337   0.350   0.360   0.364   0.370   0.389
  6 B1    9 A1    3 B2    7 B1   10 A1    3 A2   11 A1    4 B2                 
  0.417   0.450   0.601   0.657   0.873   0.904   0.962   0.981
  8 B1    9 B1    4 A2   10 B1   12 A1    5 B2   13 A1   11 B1                 
  1.035   1.058   1.086   1.092   1.111   1.153   1.162   1.163
  6 B2   14 A1    5 A2   15 A1   16 A1   12 B1   13 B1    7 B2                 
  1.318   1.333   1.336   1.459   1.667   1.690   1.772   1.918
 14 B1    6 A2   17 A1    7 A2   18 A1    8 A2    8 B2   15 B1                 
  1.968   1.968   1.968   1.991   2.001   2.066   2.104   2.136
 16 B1    9 B2   19 A1   20 A1   17 B1   10 B2   21 A1   11 B2                 
  2.228   2.374   2.461   2.514   2.626   2.629   2.867   2.875
 18 B1   19 B1    9 A2   22 A1   20 B1   10 A2   12 B2   23 A1                 
  3.301   3.387
 21 B1   11 A2                                                                 

--------------------------------------------------------------------------------
                                   HF Summary                                   
--------------------------------------------------------------------------------
  Energy:                                                  -78.4859934966 a.u.
  Dip. moment [a.u.]:                  [   0.000000,    0.000001,  -19.319918]
  Total dipole [Debye]:                                              49.106344
  <r^2> [a.u.]:                        [  50.670291,   25.070204,  788.435895]
  Total <r^2> [a.u.]:                                               864.176389
--------------------------------------------------------------------------------

--------------------------------------------------------------------------------
                                 MP(2) Summary                                  
--------------------------------------------------------------------------------
  MP energy contribution:                                   -0.2988636420 a.u.
  Total energy:                                            -78.7848571386 a.u.
  Dip. moment [a.u.]:                  [  -0.000000,    0.000001,  -19.321327]
  Total dipole [Debye]:                                              49.109925
  <r^2> [a.u.]:                        [  50.736291,   25.058975,  788.241181]
  Total <r^2> [a.u.]:                                               864.036448

  Density matrix analysis:
  ------------------------
  NOs
    Occupation of frontier NOs:
       0.0448   1.9370
    Number of electrons: 18.000000
    Number of unpaired electrons: n_u =  0.43230, n_u,nl =  0.04681
    NO participation ratio (PR_NO): 15.322043
  
  
  Mulliken Population Analysis
  Atom      Charge (e)              h+              e-           Del q
  --------------------------------------------------------------------
   1 C       -0.188754        0.087671       -0.102468       -0.014796
   2 C       -0.188754        0.087671       -0.102468       -0.014796
   3 H        0.094371        0.017918       -0.010520        0.007398
   4 H        0.094390        0.017918       -0.010519        0.007398
   5 H        0.094383        0.017918       -0.010519        0.007398
   6 H        0.094364        0.017918       -0.010520        0.007398
   7 H       -0.999999        0.021953       -0.021953        0.000000
  --------------------------------------------------------------------
  Sum:       -1.000000        0.268967       -0.268967        0.000000
  
  Multipole moment analysis of the density matrix
    Molecular charge:                      -1.000000
    Number of electrons:                   18.000000
      Center of electronic charge [Ang]: [  0.000000,  -0.000000,   0.568022]
    Total nuclear charge:                  17.000000
      Center of nuclear charge [Ang]:    [  0.000000,  -0.000000,  -0.000000]
    Dipole moment [D]:                     49.109910
      Cartesian components [D]:          [ -0.000000,   0.000002, -49.109910]
    RMS size of the density [Ang]:         3.622056
      Cartesian components [Ang]:        [  0.888432,   0.624376,   3.455449]
  
  Exciton analysis of the difference density matrix
    <r_h> [Ang]:                  [ -0.000000,  -0.000000,   0.242747]
    <r_e> [Ang]:                  [  0.000000,  -0.000000,   0.245519]
    |<r_e - r_h>| [Ang]:            0.002772
    Hole size [Ang]:                3.303396
      Cartesian components [Ang]: [  0.954217,   0.734005,   3.076220]
    Electron size [Ang]:            3.281063
      Cartesian components [Ang]: [  0.989568,   0.725997,   3.042870]
--------------------------------------------------------------------------------
  Starting Davidson for singlet states of irrep B2 ... 
--------------------------------------------------------------------------------
   It NVec Conv  Avg. Norm  Max. Norm  Conv. states           Remark
--------------------------------------------------------------------------------
       100    0  1.088e-01  4.528e-01  0.0677 n n n n n n n n Guess.
    1  110    0  6.222e-03  2.923e-02  0.0441 n n n n n n n n 
    2  120    0  1.185e-03  8.015e-03  0.0441 n n n n n n n n 
    3  130    4  4.962e-02  4.962e-01  0.0441 y y y y n n n n 
    4  140    6  4.717e-02  4.717e-01  0.0441 y y y y y n n n 
    5  150    9  3.848e-02  3.848e-01  0.0441 y y y y n y y y 
    6  160    8  5.083e-02  4.867e-01  0.0441 y y n y y y y y 
    7  170    8  5.205e-02  5.131e-01  0.0441 y y n y y y y n 
    8  180    8  5.166e-02  5.094e-01  0.0441 y y n y y y y n 
    9  190    6  5.427e-02  5.358e-01  0.0441 y n n y n y y n 
   10  200    3  6.275e-02  5.978e-01  0.0441 n n n n n y n y 
   11   20    5  5.521e-02  5.270e-01  0.0441 y n n y n n y y Subspace collapsed.
   12   30    5  5.232e-02  4.996e-01  0.0441 y n n y n n y y 
   13   40    6  4.652e-02  4.272e-01  0.0441 y y n y y n y y 
   14   50    6  4.079e-02  3.766e-01  0.0441 y y n y y n y y 
   15   60    6  4.018e-02  3.738e-01  0.0441 y y n y y n y y 
   16   70    6  3.894e-02  3.624e-01  0.0441 y y n y n y y y 
   17   80    6  3.861e-02  3.611e-01  0.0441 y y n y n y y y 
   18   90    6  3.811e-02  3.575e-01  0.0441 y y n n y y y y 
   19  100    6  3.797e-02  3.573e-01  0.0441 y y n n y y y y 
   20  110    4  3.788e-02  3.577e-01  0.0441 y n n n y n y y 
   21  120    2  3.874e-02  3.634e-01  0.0441 y n n n n n y n 
   22  130    2  5.401e-02  3.911e-01  0.0441 y n n n n n n y 
   23  140    2  4.626e-02  3.632e-01  0.0441 y n n n n n n y 
   24  150    2  4.179e-02  3.616e-01  0.0441 y n n n n n n y 
   25  160    1  4.358e-02  3.612e-01  0.0441 y n n n n n n n 
   26  170    0  4.856e-02  3.586e-01  0.0151 n n n n n n n n 
   27  180    0  5.072e-02  3.499e-01  0.0099 n n n n n n n n 
   28  190    0  7.511e-02  5.166e-01  0.0070 n n n n n n n n 
   29  200    0  7.865e-02  5.008e-01  0.0068 n n n n n n n n 
   30   20    1  6.875e-02  4.409e-01  0.0441 y n n n n n n n Subspace collapsed.
   31   30    1  5.601e-02  3.698e-01  0.0441 y n n n n n n n 
   32   40    1  5.425e-02  3.519e-01  0.0441 y n n n n n n n 
   33   50    1  4.879e-02  3.375e-01  0.0441 y n n n n n n n 
   34   60    1  4.748e-02  3.294e-01  0.0441 y n n n n n n n 
   35   70    1  4.631e-02  3.192e-01  0.0441 y n n n n n n n 
   36   80    1  4.497e-02  3.022e-01  0.0441 y n n n n n n n 
   37   90    2  4.398e-02  2.960e-01  0.0441 y y n n n n n n 
   38  100    5  4.249e-02  2.788e-01  0.0441 y y n n n y y y 
   39  110    5  4.233e-02  2.790e-01  0.0441 y y n n n y y y 
   40  120    6  4.094e-02  2.821e-01  0.0441 y y n n n y y y 
   41  130    6  4.064e-02  2.817e-01  0.0441 y y n n n y y y 
   42  140    6  3.999e-02  2.868e-01  0.0441 y y n n n y y y 
   43  150    6  3.957e-02  2.871e-01  0.0441 y y n n n y y y 
   44  160    6  3.895e-02  2.878e-01  0.0441 y y n n n y y y 
   45  170    3  3.736e-02  2.838e-01  0.0441 y y n n n n n n 
   46  180    1  3.667e-02  2.848e-01  0.0441 y n n n n n n n 
   47  190    1  3.567e-02  2.848e-01  0.0441 y n n n n n n n 
   48  200    1  3.515e-02  2.845e-01  0.0441 y n n n n n n n 
   49   20    1  3.506e-02  2.846e-01  0.0441 y n n n n n n n Subspace collapsed.
   50   30    1  3.490e-02  2.846e-01  0.0441 y n n n n n n n 
   51   40    1  3.420e-02  2.817e-01  0.0441 y n n n n n n n 
   52   50    1  3.420e-02  2.825e-01  0.0441 y n n n n n n n 
   53   60    1  3.381e-02  2.816e-01  0.0441 y n n n n n n n 
   54   70    2  3.367e-02  2.807e-01  0.0441 y n y n n n n n 
   55   80    3  3.344e-02  2.795e-01  0.0441 y y y n n n n n 
   56   90    4  3.327e-02  2.785e-01  0.0441 y y y n n n y n 
   57  100    4  3.283e-02  2.768e-01  0.0441 y y y n n n y n 
   58  110    4  3.274e-02  2.764e-01  0.0441 y y y n n n y n 
   59  120    6  3.240e-02  2.750e-01  0.0441 y y y n n y y n 
   60  130    7  3.235e-02  2.749e-01  0.0441 y y y n n y y n 
   61  140    7  3.189e-02  2.738e-01  0.0441 y y y n n y y n 
   62  150    7  3.177e-02  2.732e-01  0.0441 y y y n n y y n 
   63  160    6  3.144e-02  2.719e-01  0.0441 y y n n n y y n 
   64  170    6  3.139e-02  2.718e-01  0.0441 y y n n n y y n 
   65  180    6  3.109e-02  2.702e-01  0.0441 y y n n n y y n 
   66  190    6  3.072e-02  2.670e-01  0.0441 y y n n n y y n 
   67  200    4  3.014e-02  2.628e-01  0.0441 y n n n n y y n 
   68   20    7  3.012e-02  2.629e-01  0.0441 y y n y n y y n Subspace collapsed.
   69   30    7  2.989e-02  2.606e-01  0.0441 y y n y n y y n 
   70   40    7  2.962e-02  2.581e-01  0.0441 y y n y n y y n 
   71   50    7  2.923e-02  2.542e-01  0.0441 y y n y n y y n 
   72   60    7  2.914e-02  2.534e-01  0.0441 y y n y n y y n 
   73   70    7  2.888e-02  2.509e-01  0.0441 y y n y n y y n 
   74   80    7  2.866e-02  2.490e-01  0.0441 y y n y n y y n 
   75   90    7  2.836e-02  2.460e-01  0.0441 y y n y n y y n 
   76  100    7  2.815e-02  2.442e-01  0.0441 y y n y n y y n 
   77  110    7  2.772e-02  2.399e-01  0.0441 y y n y n y y n 
   78  120    7  2.765e-02  2.395e-01  0.0441 y n y y n y y n 
   79  130    7  2.739e-02  2.371e-01  0.0441 y n y y n y y n 
   80  140    7  2.742e-02  2.380e-01  0.0441 y n y y n y y n 
   81  150    6  2.743e-02  2.387e-01  0.0441 y n y n n y y n 
   82  160    6  2.728e-02  2.376e-01  0.0441 y n y n n y y n 
   83  170    6  2.721e-02  2.372e-01  0.0441 y n y n n y y n 
   84  180    4  2.710e-02  2.365e-01  0.0441 y n y n n y n n 
   85  190    0  2.757e-02  2.361e-01  0.0441 n n n n n n n n 
   86  200    0  2.721e-02  2.407e-01  0.0441 n n n n n n n n 
   87   20    7  2.651e-02  2.391e-01  0.0441 y n y y n y y n Subspace collapsed.
   88   30    7  2.649e-02  2.391e-01  0.0441 y n y y n y y n 
   89   40    7  2.636e-02  2.377e-01  0.0441 y n y y n y y n 
   90   50    7  2.623e-02  2.364e-01  0.0441 y n y y n y y n 
   91   60    7  2.613e-02  2.357e-01  0.0441 y n y y n y y n 
   92   70    7  2.607e-02  2.352e-01  0.0441 y n y y n y y n 
   93   80    8  2.593e-02  2.339e-01  0.0441 y n y y y y y n 
   94   90    8  2.581e-02  2.326e-01  0.0441 y n y y y y y n 
   95  100    8  2.570e-02  2.321e-01  0.0441 y n y y y y y n 
   96  110    8  2.570e-02  2.323e-01  0.0441 y n y y y y y n 
   97  120    8  2.568e-02  2.321e-01  0.0441 y n y y y y y n 
   98  130    8  2.555e-02  2.313e-01  0.0441 y n y y y y y n 
   99  140    7  2.546e-02  2.303e-01  0.0441 y n y y n y y n 
  100  150    7  2.535e-02  2.299e-01  0.0441 y n y y n y y n 
  101  160    7  2.528e-02  2.295e-01  0.0441 y n y y n y y n 
  102  170    6  2.503e-02  2.274e-01  0.0441 y n y n n y y n 
  103  180    6  2.501e-02  2.275e-01  0.0441 y n y n n y y n 
  104  190    6  2.485e-02  2.265e-01  0.0441 y n y n n y y n 
  105  200    6  2.486e-02  2.274e-01  0.0441 y n y n n y y n 
  106   20    8  2.485e-02  2.275e-01  0.0441 y n y y y y y n Subspace collapsed.
  107   30    8  2.478e-02  2.268e-01  0.0441 y n y y y y y n 
  108   40    8  2.468e-02  2.262e-01  0.0441 y n y y y y y n 
  109   50    8  2.450e-02  2.245e-01  0.0441 y n y y y y y n 
  110   60    8  2.435e-02  2.230e-01  0.0441 y n y y y y y n 
  111   70    8  2.426e-02  2.222e-01  0.0441 y n y y y y y n 
  112   80    8  2.411e-02  2.208e-01  0.0441 y n y y y y y n 
  113   90    8  2.395e-02  2.192e-01  0.0441 y n y y y y y n 
  114  100    8  2.384e-02  2.183e-01  0.0441 y n y y y y y n 
  115  110    8  2.373e-02  2.171e-01  0.0441 y n y y y y y n 
  116  120    8  2.360e-02  2.159e-01  0.0441 y n y y y y y n 
  117  130    8  2.353e-02  2.151e-01  0.0441 y n y y y y y n 
  118  140    8  2.346e-02  2.146e-01  0.0441 y n y y y y y n 
  119  150    8  2.344e-02  2.144e-01  0.0441 y n y y y y y n 
--------------------------------------------------------------------------------
  Davidson Summary: 
 ------------------------------------------------------------
  State  0: excitation energy =   0.0441 a.u.   (converged)
  State  1: excitation energy =   0.2275 a.u.   (not converged)
  State  2: excitation energy =   0.2365 a.u.   (converged)
  State  3: excitation energy =   0.2418 a.u.   (converged)
  State  4: excitation energy =   0.2537 a.u.   (converged)
  State  5: excitation energy =   0.2908 a.u.   (converged)
  State  6: excitation energy =   0.2940 a.u.   (converged)
  State  7: excitation energy =   0.3235 a.u.   (not converged)
  State  8: excitation energy =   0.3332 a.u.   (converged)
  State  9: excitation energy =   0.3885 a.u.   (converged)
 ------------------------------------------------------------


--------------------------------------------------------------------------------
                   State-averaged natural transition orbitals
--------------------------------------------------------------------------------
--------------------------------------------------------------------------------

--------------------------------------------------------------------------------
                             Excited State Summary
--------------------------------------------------------------------------------
--------------------------------------------------------------------------------

  Excited state 1 (singlet, B2)                                    [converged]
  ----------------------------------------------------------------------------
  Term symbol:  1 (1) B2                                    R^2 =  4.59489e-09

  Total energy:                                            -78.7407984275 a.u.
  Excitation energy:                                               1.198899 eV

  Osc. strength:                                                      0.000000
  Trans. dip. moment [a.u.]:           [  -0.000000,   -0.000011,    0.000000]
  <i|r^2|0> [a.u.]:                    [   0.000000,    0.000000,   -0.000000]

  Dip. moment [a.u.]:                  [  -0.000000,    0.000001,    1.221310]
  Total dipole [Debye]:                                               3.104261
  <r^2> [a.u.]:                        [  60.708767,   54.460584,  423.202194]
  Total <r^2> [a.u.]:                                               538.371545

  V1^2 = 0.9789, V2^2 = 0.0211

  Important amplitudes:
      occ i      occ j       vir a       vir b          v   
    ---------------------------------------------------------
     5 (A1) A               2 (B2) A                  0.6987
     5 (A1) A   5 (A1) B   14 (A1) A    2 (B2) B     -0.0436
    ---------------------------------------------------------

  Density matrix analysis:
  ------------------------
  NOs
    Occupation of frontier NOs:
       0.9953   1.0019
    Number of electrons: 18.000000
    Number of unpaired electrons: n_u =  2.41419, n_u,nl =  2.04855
    NO participation ratio (PR_NO):  2.914960
  
  
  Mulliken Population Analysis
  Atom      Charge (e)              h+              e-           Del q
  --------------------------------------------------------------------
   1 C       -0.646852        0.016716       -0.474813       -0.458097
   2 C       -0.646852        0.016716       -0.474813       -0.458097
   3 H        0.073420        0.004205       -0.025156       -0.020951
   4 H        0.073438        0.004205       -0.025156       -0.020952
   5 H        0.073431        0.004205       -0.025156       -0.020952
   6 H        0.073413        0.004205       -0.025156       -0.020951
   7 H        0.000001        1.020872       -0.020872        1.000001
  --------------------------------------------------------------------
  Sum:       -1.000000        1.071123       -1.071123       -0.000000
  
  Multipole moment analysis of the density matrix
    Molecular charge:                      -1.000000
    Number of electrons:                   18.000000
      Center of electronic charge [Ang]: [  0.000000,  -0.000000,  -0.035905]
    Total nuclear charge:                  17.000000
      Center of nuclear charge [Ang]:    [  0.000000,  -0.000000,  -0.000000]
    Dipole moment [D]:                     3.104260
      Cartesian components [D]:          [ -0.000000,   0.000003,   3.104260]
    RMS size of the density [Ang]:         2.893827
      Cartesian components [Ang]:        [  0.971831,   0.920462,   2.565643]
  
  Exciton analysis of the difference density matrix
    <r_h> [Ang]:                  [ -0.000000,  -0.000000,   9.739451]
    <r_e> [Ang]:                  [  0.000000,  -0.000000,  -0.409425]
    |<r_e - r_h>| [Ang]:           10.148876
    Hole size [Ang]:                2.603542
      Cartesian components [Ang]: [  0.726210,   0.714648,   2.395898]
    Electron size [Ang]:            4.040750
      Cartesian components [Ang]: [  1.770460,   2.863096,   2.235132]

  Transition density matrix analysis:
  -----------------------------------
  
  CT numbers (Mulliken)
    omega =     0.9725
    <Phe> =    -0.0000
  
  Exciton analysis of the transition density matrix
    Trans. dipole moment [D]:             0.000015
      Cartesian components [D]:         [ -0.000000,  -0.000015,   0.000000]
    <r_h> [Ang]:                        [  0.000000,   0.000000,  10.247079]
    <r_e> [Ang]:                        [  0.000000,  -0.000000,  -0.640289]
    |<r_e - r_h>| [Ang]:                 10.887368
    Hole size [Ang]:                      1.110846
      Cartesian components [Ang]:       [  0.640888,   0.640886,   0.642267]
    Electron size [Ang]:                  3.850981
      Cartesian components [Ang]:       [  1.797112,   2.957964,   1.688456]
    RMS electron-hole separation [Ang]:  11.601821
      Cartesian components [Ang]:       [  1.907966,   3.026595,  11.036379]
    Covariance(r_h, r_e) [Ang^2]:        -0.001725
    Correlation coefficient:             -0.000403
    Center-of-mass size [Ang]:            2.003783
      Cartesian components [Ang]:       [  0.953987,   1.513300,   0.902761]

  Decomposition into state-averaged NTOs
    H- 0 -> L+ 0:  0.6815 ( 92.9%)
    H- 0 -> L+ 2: -0.1150 (  2.6%)
    H- 0 -> L+ 1: -0.0925 (  1.7%)
                   omega =  97.2%
  ----------------------------------------------------------------------------


  Excited state 2 (singlet, B2)                                [not converged]
  ----------------------------------------------------------------------------
  Term symbol:  2 (1) B2                                    R^2 =  2.14390e-01

  Total energy:                                            -78.5573074040 a.u.
  Excitation energy:                                               6.191943 eV



  V1^2 = 0.0001, V2^2 = 0.9999

  Important amplitudes:
      occ i      occ j       vir a       vir b          v   
    ---------------------------------------------------------
     5 (A1) A   5 (A1) B    7 (A1) A    2 (B2) B     -0.3005
     5 (A1) A   5 (A1) B    6 (A1) A    2 (B2) B      0.1744
    ---------------------------------------------------------
  ----------------------------------------------------------------------------


  Excited state 3 (singlet, B2)                                    [converged]
  ----------------------------------------------------------------------------
  Term symbol:  3 (1) B2                                    R^2 =  2.25998e-07

  Total energy:                                            -78.5483682167 a.u.
  Excitation energy:                                               6.435191 eV

  Osc. strength:                                                      0.000000
  Trans. dip. moment [a.u.]:           [  -0.000000,    0.000002,    0.000000]
  <i|r^2|0> [a.u.]:                    [  -0.000000,   -0.000000,    0.000000]

  Dip. moment [a.u.]:                  [  -0.000000,   -0.000000,    1.226910]
  Total dipole [Debye]:                                               3.118494
  <r^2> [a.u.]:                        [  57.848219,   42.000720,  419.155512]
  Total <r^2> [a.u.]:                                               519.004451

  V1^2 = 0.9562, V2^2 = 0.0438

  Important amplitudes:
      occ i      occ j       vir a       vir b          v   
    ---------------------------------------------------------
     5 (A1) A               3 (B2) A                  0.6689
     5 (A1) A               4 (B2) A                 -0.1662
    ---------------------------------------------------------

  Density matrix analysis:
  ------------------------
  NOs
    Occupation of frontier NOs:
       0.9806   1.0013
    Number of electrons: 18.000000
    Number of unpaired electrons: n_u =  2.44522, n_u,nl =  2.05858
    NO participation ratio (PR_NO):  3.027908
  
  
  Mulliken Population Analysis
  Atom      Charge (e)              h+              e-           Del q
  --------------------------------------------------------------------
   1 C       -0.383638        0.080961       -0.275845       -0.194884
   2 C       -0.383638        0.080961       -0.275845       -0.194884
   3 H       -0.058186        0.008874       -0.161432       -0.152557
   4 H       -0.058169        0.008875       -0.161433       -0.152559
   5 H       -0.058176        0.008875       -0.161434       -0.152559
   6 H       -0.058193        0.008874       -0.161432       -0.152558
   7 H        0.000001        1.018825       -0.018824        1.000001
  --------------------------------------------------------------------
  Sum:       -1.000000        1.216245       -1.216245        0.000000
  
  Multipole moment analysis of the density matrix
    Molecular charge:                      -1.000000
    Number of electrons:                   18.000000
      Center of electronic charge [Ang]: [  0.000000,  -0.000000,  -0.036070]
    Total nuclear charge:                  17.000000
      Center of nuclear charge [Ang]:    [  0.000000,  -0.000000,  -0.000000]
    Dipole moment [D]:                     3.118493
      Cartesian components [D]:          [ -0.000000,  -0.000001,   3.118493]
    RMS size of the density [Ang]:         2.841289
      Cartesian components [Ang]:        [  0.948658,   0.808338,   2.553343]
  
  Exciton analysis of the difference density matrix
    <r_h> [Ang]:                  [ -0.000000,  -0.000000,   8.481530]
    <r_e> [Ang]:                  [  0.000000,   0.000000,  -0.458823]
    |<r_e - r_h>| [Ang]:            8.940353
    Hole size [Ang]:                4.205149
      Cartesian components [Ang]: [  0.763368,   0.722040,   4.071757]
    Electron size [Ang]:            3.157350
      Cartesian components [Ang]: [  1.490027,   2.102858,   1.823914]

  Transition density matrix analysis:
  -----------------------------------
  
  CT numbers (Mulliken)
    omega =     0.9472
    <Phe> =     0.0000
  
  Exciton analysis of the transition density matrix
    Trans. dipole moment [D]:             0.000002
      Cartesian components [D]:         [ -0.000000,   0.000002,   0.000000]
    <r_h> [Ang]:                        [  0.000000,   0.000000,  10.246236]
    <r_e> [Ang]:                        [  0.000000,   0.000001,  -0.639414]
    |<r_e - r_h>| [Ang]:                 10.885650
    Hole size [Ang]:                      1.114819
      Cartesian components [Ang]:       [  0.640820,   0.640812,   0.649255]
    Electron size [Ang]:                  3.010560
      Cartesian components [Ang]:       [  1.498672,   2.278418,   1.275252]
    RMS electron-hole separation [Ang]:  11.350129
      Cartesian components [Ang]:       [  1.629921,   2.366814,  10.980300]
    Covariance(r_h, r_e) [Ang^2]:        -0.010888
    Correlation coefficient:             -0.003244
    Center-of-mass size [Ang]:            1.603474
      Cartesian components [Ang]:       [  0.814968,   1.183411,   0.711685]

  Decomposition into state-averaged NTOs
    H- 0 -> L+ 2:  0.5543 ( 61.4%)
    H- 0 -> L+ 1:  0.3842 ( 29.5%)
    H- 0 -> L+ 0:  0.1368 (  3.7%)
                   omega =  94.7%
  ----------------------------------------------------------------------------


  Excited state 4 (singlet, B2)                                    [converged]
  ----------------------------------------------------------------------------
  Term symbol:  4 (1) B2                                    R^2 =  3.64082e-06

  Total energy:                                            -78.5430597110 a.u.
  Excitation energy:                                               6.579643 eV

  Osc. strength:                                                      0.000000
  Trans. dip. moment [a.u.]:           [   0.000000,    0.000000,    0.000000]
  <i|r^2|0> [a.u.]:                    [   0.000000,    0.000000,    0.000000]

  Dip. moment [a.u.]:                  [  -0.000000,    0.000001,   20.983880]
  Total dipole [Debye]:                                              53.335713
  <r^2> [a.u.]:                        [ 102.129752,   59.585382,   67.223501]
  Total <r^2> [a.u.]:                                               228.938635

  V1^2 = 0.0000, V2^2 = 1.0000

  Important amplitudes:
      occ i      occ j       vir a       vir b          v   
    ---------------------------------------------------------
     5 (A1) A   5 (A1) B    2 (A2) A    4 (B1) B     -0.3536
     5 (A1) A               3 (B2) A                  0.0002
    ---------------------------------------------------------

  Density matrix analysis:
  ------------------------
  NOs
    Occupation of frontier NOs:
       1.0007   1.0070
    Number of electrons: 18.000000
    Number of unpaired electrons: n_u =  2.39411, n_u,nl =  2.04701
    NO participation ratio (PR_NO):  2.870326
  
  
  Mulliken Population Analysis
  Atom      Charge (e)              h+              e-           Del q
  --------------------------------------------------------------------
   1 C       -1.061731        0.000000       -0.872977       -0.872976
   2 C       -1.061731        0.000000       -0.872977       -0.872976
   3 H        0.030859        0.000000       -0.063512       -0.063512
   4 H        0.030878        0.000000       -0.063512       -0.063512
   5 H        0.030871        0.000000       -0.063512       -0.063512
   6 H        0.030853        0.000000       -0.063512       -0.063512
   7 H        1.000000        1.999999       -0.000000        1.999999
  --------------------------------------------------------------------
  Sum:       -1.000000        2.000000       -2.000000       -0.000000
  
  Multipole moment analysis of the density matrix
    Molecular charge:                      -1.000000
    Number of electrons:                   18.000000
      Center of electronic charge [Ang]: [  0.000000,  -0.000000,  -0.616900]
    Total nuclear charge:                  17.000000
      Center of nuclear charge [Ang]:    [  0.000000,  -0.000000,  -0.000000]
    Dipole moment [D]:                     53.335697
      Cartesian components [D]:          [ -0.000000,   0.000002,  53.335697]
    RMS size of the density [Ang]:         1.783554
      Cartesian components [Ang]:        [  1.260495,   0.962797,   0.815622]
  
  Exciton analysis of the difference density matrix
    <r_h> [Ang]:                  [  0.000000,  -0.000000,  10.247251]
    <r_e> [Ang]:                  [  0.000000,   0.000000,  -0.417048]
    |<r_e - r_h>| [Ang]:           10.664299
    Hole size [Ang]:                1.111227
      Cartesian components [Ang]: [  0.641557,   0.641557,   0.641587]
    Electron size [Ang]:            4.140568
      Cartesian components [Ang]: [  2.758154,   2.290368,   2.071498]

  Transition density matrix analysis:
  -----------------------------------
  
  CT numbers (Mulliken)
    omega =     0.0000
    <Phe> =     0.0000
  
  Exciton analysis of the transition density matrix
    ... vanishing.

  Decomposition into state-averaged NTOs
                   omega =   0.0%
  ----------------------------------------------------------------------------


  Excited state 5 (singlet, B2)                                    [converged]
  ----------------------------------------------------------------------------
  Term symbol:  5 (1) B2                                    R^2 =  1.32714e-06

  Total energy:                                            -78.5311825843 a.u.
  Excitation energy:                                               6.902836 eV

  Osc. strength:                                                      0.000000
  Trans. dip. moment [a.u.]:           [   0.000000,   -0.000000,   -0.000000]
  <i|r^2|0> [a.u.]:                    [   0.000000,   -0.000000,    0.000000]

  Dip. moment [a.u.]:                  [  -0.000000,    0.000001,   21.192184]
  Total dipole [Debye]:                                              53.865168
  <r^2> [a.u.]:                        [  71.094327,   65.345848,   61.305176]
  Total <r^2> [a.u.]:                                               197.745350

  V1^2 = 0.0000, V2^2 = 1.0000

  Important amplitudes:
      occ i      occ j       vir a       vir b          v   
    ---------------------------------------------------------
     5 (A1) A   5 (A1) B    8 (A1) A    2 (B2) B      0.3536
     5 (A1) A               2 (B2) A                 -0.0002
    ---------------------------------------------------------

  Density matrix analysis:
  ------------------------
  NOs
    Occupation of frontier NOs:
       1.0012   1.0025
    Number of electrons: 18.000000
    Number of unpaired electrons: n_u =  2.40208, n_u,nl =  2.04897
    NO participation ratio (PR_NO):  2.877310
  
  
  Mulliken Population Analysis
  Atom      Charge (e)              h+              e-           Del q
  --------------------------------------------------------------------
   1 C       -1.264001        0.000000       -1.075247       -1.075247
   2 C       -1.264001        0.000000       -1.075247       -1.075247
   3 H        0.131995        0.000000        0.037624        0.037624
   4 H        0.132013        0.000000        0.037623        0.037623
   5 H        0.132006        0.000000        0.037623        0.037623
   6 H        0.131989        0.000000        0.037624        0.037624
   7 H        1.000000        1.999999       -0.000000        1.999999
  --------------------------------------------------------------------
  Sum:       -1.000000        2.000000       -2.000000        0.000000
  
  Multipole moment analysis of the density matrix
    Molecular charge:                      -1.000000
    Number of electrons:                   18.000000
      Center of electronic charge [Ang]: [  0.000000,  -0.000000,  -0.623024]
    Total nuclear charge:                  17.000000
      Center of nuclear charge [Ang]:    [  0.000000,  -0.000000,  -0.000000]
    Dipole moment [D]:                     53.865152
      Cartesian components [D]:          [ -0.000000,   0.000002,  53.865152]
    RMS size of the density [Ang]:         1.639571
      Cartesian components [Ang]:        [  1.051677,   1.008263,   0.752047]
  
  Exciton analysis of the difference density matrix
    <r_h> [Ang]:                  [ -0.000000,  -0.000000,  10.247251]
    <r_e> [Ang]:                  [  0.000000,  -0.000000,  -0.472162]
    |<r_e - r_h>| [Ang]:           10.719414
    Hole size [Ang]:                1.111227
      Cartesian components [Ang]: [  0.641557,   0.641557,   0.641587]
    Electron size [Ang]:            3.567603
      Cartesian components [Ang]: [  1.806104,   2.460149,   1.847552]

  Transition density matrix analysis:
  -----------------------------------
  
  CT numbers (Mulliken)
    omega =     0.0000
    <Phe> =     0.0000
  
  Exciton analysis of the transition density matrix
    ... vanishing.

  Decomposition into state-averaged NTOs
                   omega =   0.0%
  ----------------------------------------------------------------------------


  Excited state 6 (singlet, B2)                                    [converged]
  ----------------------------------------------------------------------------
  Term symbol:  6 (1) B2                                    R^2 =  7.38717e-08

  Total energy:                                            -78.4940596365 a.u.
  Excitation energy:                                               7.913002 eV

  Osc. strength:                                                      0.000053
  Trans. dip. moment [a.u.]:           [   0.000001,   -0.016518,   -0.000000]
  <i|r^2|0> [a.u.]:                    [  -0.000000,   -0.000000,   -0.000000]

  Dip. moment [a.u.]:                  [  -0.000000,    0.000001,  -19.337781]
  Total dipole [Debye]:                                              49.151745
  <r^2> [a.u.]:                        [  56.828094,   47.598557,  792.869790]
  Total <r^2> [a.u.]:                                               897.296441

  V1^2 = 0.9538, V2^2 = 0.0462

  Important amplitudes:
      occ i      occ j       vir a       vir b          v   
    ---------------------------------------------------------
     4 (A1) A               2 (B2) A                 -0.6622
     4 (A1) A               3 (B2) A                 -0.1845
    ---------------------------------------------------------

  Density matrix analysis:
  ------------------------
  NOs
    Occupation of frontier NOs:
       0.9863   0.9913
    Number of electrons: 18.000000
    Number of unpaired electrons: n_u =  2.31838, n_u,nl =  2.02587
    NO participation ratio (PR_NO):  2.739094
  
  
  Mulliken Population Analysis
  Atom      Charge (e)              h+              e-           Del q
  --------------------------------------------------------------------
   1 C       -0.268244        0.515666       -0.595155       -0.079489
   2 C       -0.268244        0.515666       -0.595155       -0.079489
   3 H        0.134118        0.089163       -0.049416        0.039747
   4 H        0.134132        0.089160       -0.049417        0.039743
   5 H        0.134126        0.089160       -0.049418        0.039743
   6 H        0.134111        0.089163       -0.049416        0.039747
   7 H       -0.999999        0.000096       -0.000096        0.000000
  --------------------------------------------------------------------
  Sum:       -1.000000        1.388074       -1.388074       -0.000000
  
  Multipole moment analysis of the density matrix
    Molecular charge:                      -1.000000
    Number of electrons:                   18.000000
      Center of electronic charge [Ang]: [  0.000000,  -0.000000,   0.568506]
    Total nuclear charge:                  17.000000
      Center of nuclear charge [Ang]:    [  0.000000,  -0.000000,  -0.000000]
    Dipole moment [D]:                     49.151731
      Cartesian components [D]:          [ -0.000000,   0.000002, -49.151731]
    RMS size of the density [Ang]:         3.692718
      Cartesian components [Ang]:        [  0.940257,   0.860522,   3.465774]
  
  Exciton analysis of the difference density matrix
    <r_h> [Ang]:                  [ -0.000000,  -0.000000,  -0.647194]
    <r_e> [Ang]:                  [  0.000000,  -0.000000,  -0.640921]
    |<r_e - r_h>| [Ang]:            0.006273
    Hole size [Ang]:                1.564900
      Cartesian components [Ang]: [  1.020412,   0.807753,   0.869025]
    Electron size [Ang]:            3.027677
      Cartesian components [Ang]: [  1.506717,   2.280258,   1.302710]

  Transition density matrix analysis:
  -----------------------------------
  
  CT numbers (Mulliken)
    omega =     0.9224
    <Phe> =    -0.0029
  
  Exciton analysis of the transition density matrix
    Trans. dipole moment [D]:             0.020992
      Cartesian components [D]:         [  0.000001,  -0.020992,  -0.000000]
    <r_h> [Ang]:                        [  0.000000,  -0.000000,  -0.647089]
    <r_e> [Ang]:                        [  0.000000,  -0.000000,  -0.640543]
    |<r_e - r_h>| [Ang]:                  0.006546
    Hole size [Ang]:                      1.253860
      Cartesian components [Ang]:       [  0.756583,   0.510222,   0.859896]
    Electron size [Ang]:                  3.459901
      Cartesian components [Ang]:       [  1.667456,   2.641017,   1.488468]
    RMS electron-hole separation [Ang]:   3.677444
      Cartesian components [Ang]:       [  1.826851,   2.689160,   1.718902]
    Covariance(r_h, r_e) [Ang^2]:         0.009765
    Correlation coefficient:              0.002251
    Center-of-mass size [Ang]:            1.841373
      Cartesian components [Ang]:       [  0.917642,   1.345270,   0.859554]

  Decomposition into state-averaged NTOs
    H- 2 -> L+ 0: -0.6778 ( 91.9%)
                   omega =  92.2%
  ----------------------------------------------------------------------------


  Excited state 7 (singlet, B2)                                    [converged]
  ----------------------------------------------------------------------------
  Term symbol:  7 (1) B2                                    R^2 =  6.46075e-08

  Total energy:                                            -78.4908132835 a.u.
  Excitation energy:                                               8.001340 eV

  Osc. strength:                                                      0.000000
  Trans. dip. moment [a.u.]:           [  -0.000000,   -0.000049,   -0.000000]
  <i|r^2|0> [a.u.]:                    [  -0.000000,   -0.000000,   -0.000000]

  Dip. moment [a.u.]:                  [   0.000000,    0.000001,    1.225414]
  Total dipole [Debye]:                                               3.114691
  <r^2> [a.u.]:                        [  55.661978,   34.194783,  418.800968]
  Total <r^2> [a.u.]:                                               508.657728

  V1^2 = 0.9680, V2^2 = 0.0320

  Important amplitudes:
      occ i      occ j       vir a       vir b          v   
    ---------------------------------------------------------
     5 (A1) A               4 (B2) A                  0.6726
     5 (A1) A               3 (B2) A                  0.1759
    ---------------------------------------------------------

  Density matrix analysis:
  ------------------------
  NOs
    Occupation of frontier NOs:
       0.9896   1.0016
    Number of electrons: 18.000000
    Number of unpaired electrons: n_u =  2.42737, n_u,nl =  2.05153
    NO participation ratio (PR_NO):  2.961355
  
  
  Mulliken Population Analysis
  Atom      Charge (e)              h+              e-           Del q
  --------------------------------------------------------------------
   1 C       -0.778627        0.073013       -0.662886       -0.589873
   2 C       -0.778627        0.073013       -0.662886       -0.589873
   3 H        0.139309        0.007506        0.037432        0.044938
   4 H        0.139325        0.007505        0.037429        0.044935
   5 H        0.139318        0.007505        0.037429        0.044935
   6 H        0.139302        0.007506        0.037432        0.044938
   7 H        0.000001        1.019754       -0.019754        1.000001
  --------------------------------------------------------------------
  Sum:       -1.000000        1.195803       -1.195803        0.000000
  
  Multipole moment analysis of the density matrix
    Molecular charge:                      -1.000000
    Number of electrons:                   18.000000
      Center of electronic charge [Ang]: [ -0.000000,  -0.000000,  -0.036026]
    Total nuclear charge:                  17.000000
      Center of nuclear charge [Ang]:    [  0.000000,  -0.000000,  -0.000000]
    Dipole moment [D]:                     3.114690
      Cartesian components [D]:          [  0.000000,   0.000002,   3.114690]
    RMS size of the density [Ang]:         2.812821
      Cartesian components [Ang]:        [  0.930560,   0.729365,   2.552263]
  
  Exciton analysis of the difference density matrix
    <r_h> [Ang]:                  [ -0.000000,   0.000000,   8.646266]
    <r_e> [Ang]:                  [ -0.000000,  -0.000000,  -0.446257]
    |<r_e - r_h>| [Ang]:            9.092523
    Hole size [Ang]:                4.061852
      Cartesian components [Ang]: [  0.779217,   0.731875,   3.918651]
    Electron size [Ang]:            2.799324
      Cartesian components [Ang]: [  1.326898,   1.635552,   1.844051]

  Transition density matrix analysis:
  -----------------------------------
  
  CT numbers (Mulliken)
    omega =     0.9603
    <Phe> =     0.0000
  
  Exciton analysis of the transition density matrix
    Trans. dipole moment [D]:             0.000062
      Cartesian components [D]:         [ -0.000000,  -0.000062,  -0.000000]
    <r_h> [Ang]:                        [  0.000000,   0.000000,  10.247152]
    <r_e> [Ang]:                        [ -0.000000,  -0.000000,  -0.640333]
    |<r_e - r_h>| [Ang]:                 10.887485
    Hole size [Ang]:                      1.110383
      Cartesian components [Ang]:       [  0.640830,   0.640829,   0.641581]
    Electron size [Ang]:                  2.472242
      Cartesian components [Ang]:       [  1.278509,   1.716170,   1.237803]
    RMS electron-hole separation [Ang]:  11.219808
      Cartesian components [Ang]:       [  1.430113,   1.831908,  10.976474]
    Covariance(r_h, r_e) [Ang^2]:        -0.000911
    Correlation coefficient:             -0.000332
    Center-of-mass size [Ang]:            1.354908
      Cartesian components [Ang]:       [  0.715065,   0.915958,   0.696764]

  Decomposition into state-averaged NTOs
    H- 0 -> L+ 1:  0.5725 ( 65.5%)
    H- 0 -> L+ 2: -0.3902 ( 30.4%)
                   omega =  96.0%
  ----------------------------------------------------------------------------


  Excited state 8 (singlet, B2)                                [not converged]
  ----------------------------------------------------------------------------
  Term symbol:  8 (1) B2                                    R^2 =  9.46448e-02

  Total energy:                                            -78.4613369694 a.u.
  Excitation energy:                                               8.803432 eV



  V1^2 = 0.0000, V2^2 = 1.0000

  Important amplitudes:
      occ i      occ j       vir a       vir b          v   
    ---------------------------------------------------------
     5 (A1) A   5 (A1) B    2 (A2) A    5 (B1) B     -0.3505
     5 (A1) A   5 (A1) B    6 (A1) A    2 (B2) B      0.0307
    ---------------------------------------------------------
  ----------------------------------------------------------------------------


  Excited state 9 (singlet, B2)                                    [converged]
  ----------------------------------------------------------------------------
  Term symbol:  9 (1) B2                                    R^2 =  5.49484e-08

  Total energy:                                            -78.4516956460 a.u.
  Excitation energy:                                               9.065785 eV

  Osc. strength:                                                      0.000039
  Trans. dip. moment [a.u.]:           [   0.000000,    0.013208,    0.000000]
  <i|r^2|0> [a.u.]:                    [   0.000000,    0.000000,    0.000000]

  Dip. moment [a.u.]:                  [  -0.000000,    0.000000,  -19.253888]
  Total dipole [Debye]:                                              48.938511
  <r^2> [a.u.]:                        [  51.633379,   23.660099,  791.713863]
  Total <r^2> [a.u.]:                                               867.007340

  V1^2 = 0.9523, V2^2 = 0.0477

  Important amplitudes:
      occ i      occ j       vir a       vir b          v   
    ---------------------------------------------------------
     1 (A2) A               5 (B1) A                 -0.5016
     1 (A2) A               4 (B1) A                 -0.4395
    ---------------------------------------------------------

  Density matrix analysis:
  ------------------------
  NOs
    Occupation of frontier NOs:
       0.9963   1.0144
    Number of electrons: 18.000000
    Number of unpaired electrons: n_u =  2.39567, n_u,nl =  2.04371
    NO participation ratio (PR_NO):  2.904956
  
  
  Mulliken Population Analysis
  Atom      Charge (e)              h+              e-           Del q
  --------------------------------------------------------------------
   1 C       -0.428762        0.272813       -0.512821       -0.240008
   2 C       -0.428762        0.272813       -0.512821       -0.240008
   3 H        0.214374        0.127906       -0.007902        0.120003
   4 H        0.214394        0.127906       -0.007902        0.120004
   5 H        0.214387        0.127906       -0.007902        0.120004
   6 H        0.214368        0.127906       -0.007902        0.120003
   7 H       -0.999999        0.000022       -0.000022       -0.000000
  --------------------------------------------------------------------
  Sum:       -1.000000        1.057272       -1.057272       -0.000000
  
  Multipole moment analysis of the density matrix
    Molecular charge:                      -1.000000
    Number of electrons:                   18.000000
      Center of electronic charge [Ang]: [  0.000000,  -0.000000,   0.566040]
    Total nuclear charge:                  17.000000
      Center of nuclear charge [Ang]:    [  0.000000,  -0.000000,  -0.000000]
    Dipole moment [D]:                     48.938496
      Cartesian components [D]:          [ -0.000000,   0.000000, -48.938496]
    RMS size of the density [Ang]:         3.628740
      Cartesian components [Ang]:        [  0.896252,   0.606699,   3.463582]
  
  Exciton analysis of the difference density matrix
    <r_h> [Ang]:                  [  0.000000,  -0.000000,  -0.641878]
    <r_e> [Ang]:                  [  0.000000,  -0.000000,  -0.675632]
    |<r_e - r_h>| [Ang]:            0.033754
    Hole size [Ang]:                1.500760
      Cartesian components [Ang]: [  1.103971,   0.909325,   0.454597]
    Electron size [Ang]:            1.730514
      Cartesian components [Ang]: [  1.206795,   0.675549,   1.040173]

  Transition density matrix analysis:
  -----------------------------------
  
  CT numbers (Mulliken)
    omega =     0.9218
    <Phe> =    -0.0129
  
  Exciton analysis of the transition density matrix
    Trans. dipole moment [D]:             0.016785
      Cartesian components [D]:         [  0.000000,   0.016785,   0.000000]
    <r_h> [Ang]:                        [  0.000000,  -0.000000,  -0.640952]
    <r_e> [Ang]:                        [  0.000000,  -0.000000,  -0.678264]
    |<r_e - r_h>| [Ang]:                  0.037312
    Hole size [Ang]:                      1.508270
      Cartesian components [Ang]:       [  1.114158,   0.928343,   0.414379]
    Electron size [Ang]:                  1.747787
      Cartesian components [Ang]:       [  1.218822,   0.662334,   1.063271]
    RMS electron-hole separation [Ang]:   2.289876
      Cartesian components [Ang]:       [  1.626974,   1.137410,   1.141397]
    Covariance(r_h, r_e) [Ang^2]:         0.043749
    Correlation coefficient:              0.016596
    Center-of-mass size [Ang]:            1.163737
      Cartesian components [Ang]:       [  0.837662,   0.571688,   0.570770]

  Decomposition into state-averaged NTOs
    H- 1 -> L+ 3:  0.6760 ( 91.4%)
                   omega =  92.2%
  ----------------------------------------------------------------------------


  Excited state 10 (singlet, B2)                                    [converged]
  ----------------------------------------------------------------------------
  Term symbol:  10 (1) B2                                   R^2 =  1.00341e-07

  Total energy:                                            -78.3963289843 a.u.
  Excitation energy:                                              10.572389 eV

  Osc. strength:                                                      0.091201
  Trans. dip. moment [a.u.]:           [   0.000000,    0.593380,   -0.000000]
  <i|r^2|0> [a.u.]:                    [   0.000002,    0.000001,   -0.000000]

  Dip. moment [a.u.]:                  [  -0.000000,    0.000000,  -18.955226]
  Total dipole [Debye]:                                              48.179387
  <r^2> [a.u.]:                        [  79.623299,   30.717613,  796.514790]
  Total <r^2> [a.u.]:                                               906.855703

  V1^2 = 0.9397, V2^2 = 0.0603

  Important amplitudes:
      occ i      occ j       vir a       vir b          v   
    ---------------------------------------------------------
     1 (A2) A               3 (B1) A                  0.6445
     1 (A2) A               6 (B1) A                 -0.1571
    ---------------------------------------------------------

  Density matrix analysis:
  ------------------------
  NOs
    Occupation of frontier NOs:
       0.9747   1.0356
    Number of electrons: 18.000000
    Number of unpaired electrons: n_u =  2.45526, n_u,nl =  2.07584
    NO participation ratio (PR_NO):  3.170850
  
  
  Mulliken Population Analysis
  Atom      Charge (e)              h+              e-           Del q
  --------------------------------------------------------------------
   1 C       -0.491807        0.264597       -0.567651       -0.303053
   2 C       -0.491807        0.264597       -0.567651       -0.303053
   3 H        0.245898        0.190169       -0.038642        0.151527
   4 H        0.245915        0.190168       -0.038642        0.151526
   5 H        0.245909        0.190168       -0.038642        0.151526
   6 H        0.245892        0.190169       -0.038642        0.151527
   7 H       -0.999999        0.000131       -0.000131        0.000000
  --------------------------------------------------------------------
  Sum:       -1.000000        1.290000       -1.290000       -0.000000
  
  Multipole moment analysis of the density matrix
    Molecular charge:                      -1.000000
    Number of electrons:                   18.000000
      Center of electronic charge [Ang]: [  0.000000,  -0.000000,   0.557259]
    Total nuclear charge:                  17.000000
      Center of nuclear charge [Ang]:    [  0.000000,  -0.000000,  -0.000000]
    Dipole moment [D]:                     48.179373
      Cartesian components [D]:          [ -0.000000,   0.000001, -48.179373]
    RMS size of the density [Ang]:         3.714504
      Cartesian components [Ang]:        [  1.112974,   0.691287,   3.475767]
  
  Exciton analysis of the difference density matrix
    <r_h> [Ang]:                  [  0.000000,  -0.000000,  -0.652948]
    <r_e> [Ang]:                  [  0.000000,  -0.000000,  -0.803128]
    |<r_e - r_h>| [Ang]:            0.150180
    Hole size [Ang]:                1.715193
      Cartesian components [Ang]: [  1.222928,   0.999070,   0.669471]
    Electron size [Ang]:            3.466736
      Cartesian components [Ang]: [  2.786797,   1.492145,   1.423209]

  Transition density matrix analysis:
  -----------------------------------
  
  CT numbers (Mulliken)
    omega =     0.9243
    <Phe> =    -0.0053
  
  Exciton analysis of the transition density matrix
    Trans. dipole moment [D]:             0.754111
      Cartesian components [D]:         [  0.000000,   0.754111,  -0.000000]
    <r_h> [Ang]:                        [  0.000000,  -0.000000,  -0.641008]
    <r_e> [Ang]:                        [  0.000000,  -0.000000,  -0.845379]
    |<r_e - r_h>| [Ang]:                  0.204371
    Hole size [Ang]:                      1.515577
      Cartesian components [Ang]:       [  1.120425,   0.933806,   0.411860]
    Electron size [Ang]:                  3.846838
      Cartesian components [Ang]:       [  3.108570,   1.648527,   1.554772]
    RMS electron-hole separation [Ang]:   3.999339
      Cartesian components [Ang]:       [  3.150566,   1.854948,   1.621054]
    Covariance(r_h, r_e) [Ang^2]:         0.571097
    Correlation coefficient:              0.097955
    Center-of-mass size [Ang]:            2.135259
      Cartesian components [Ang]:       [  1.725620,   0.966752,   0.804339]

  Decomposition into state-averaged NTOs
    H- 1 -> L+ 4:  0.6724 ( 90.4%)
                   omega =  92.4%
  ----------------------------------------------------------------------------


--------------------------------------------------------------------------------
  Time of ADC calculation:  CPU 4277.78 s  wall 850.32 s
================================================================================
 
 --------------------------------------------------------------
             Orbital Energies (a.u.) and Symmetries
 --------------------------------------------------------------
 
 Alpha MOs, Restricted
 -- Occupied --                  
-11.189 -11.187  -0.993  -0.733  -0.612  -0.519  -0.467  -0.328
  1 A1    1 B1    2 A1    2 B1    1 B2    3 A1    1 A2    4 A1                 
  0.022
  5 A1                                                                         
 -- Virtual --                   
  0.108   0.120   0.128   0.135   0.141   0.146   0.178   0.219
  3 B1    2 B2    6 A1    7 A1    4 B1    2 A2    8 A1    5 B1                 
  0.250   0.311   0.337   0.350   0.360   0.364   0.370   0.389
  6 B1    9 A1    3 B2    7 B1   10 A1    3 A2   11 A1    4 B2                 
  0.417   0.450   0.601   0.657   0.873   0.904   0.962   0.981
  8 B1    9 B1    4 A2   10 B1   12 A1    5 B2   13 A1   11 B1                 
  1.035   1.058   1.086   1.092   1.111   1.153   1.162   1.163
  6 B2   14 A1    5 A2   15 A1   16 A1   12 B1   13 B1    7 B2                 
  1.318   1.333   1.336   1.459   1.667   1.690   1.772   1.918
 14 B1    6 A2   17 A1    7 A2   18 A1    8 A2    8 B2   15 B1                 
  1.968   1.968   1.968   1.991   2.001   2.066   2.104   2.136
 16 B1    9 B2   19 A1   20 A1   17 B1   10 B2   21 A1   11 B2                 
  2.228   2.374   2.461   2.514   2.626   2.629   2.867   2.875
 18 B1   19 B1    9 A2   22 A1   20 B1   10 A2   12 B2   23 A1                 
  3.301   3.387
 21 B1   11 A2                                                                 
 
 Beta MOs, Restricted
 -- Occupied --                  
-11.189 -11.187  -0.993  -0.733  -0.612  -0.519  -0.467  -0.328
  1 A1    1 B1    2 A1    2 B1    1 B2    3 A1    1 A2    4 A1                 
  0.022
  5 A1                                                                         
 -- Virtual --                   
  0.108   0.120   0.128   0.135   0.141   0.146   0.178   0.219
  3 B1    2 B2    6 A1    7 A1    4 B1    2 A2    8 A1    5 B1                 
  0.250   0.311   0.337   0.350   0.360   0.364   0.370   0.389
  6 B1    9 A1    3 B2    7 B1   10 A1    3 A2   11 A1    4 B2                 
  0.417   0.450   0.601   0.657   0.873   0.904   0.962   0.981
  8 B1    9 B1    4 A2   10 B1   12 A1    5 B2   13 A1   11 B1                 
  1.035   1.058   1.086   1.092   1.111   1.153   1.162   1.163
  6 B2   14 A1    5 A2   15 A1   16 A1   12 B1   13 B1    7 B2                 
  1.318   1.333   1.336   1.459   1.667   1.690   1.772   1.918
 14 B1    6 A2   17 A1    7 A2   18 A1    8 A2    8 B2   15 B1                 
  1.968   1.968   1.968   1.991   2.001   2.066   2.104   2.136
 16 B1    9 B2   19 A1   20 A1   17 B1   10 B2   21 A1   11 B2                 
  2.228   2.374   2.461   2.514   2.626   2.629   2.867   2.875
 18 B1   19 B1    9 A2   22 A1   20 B1   10 A2   12 B2   23 A1                 
  3.301   3.387
 21 B1   11 A2                                                                 
 --------------------------------------------------------------
 
          Ground-State Mulliken Net Atomic Charges

     Atom                 Charge (a.u.)
  ----------------------------------------
      1 C                    -0.173958
      2 C                    -0.173958
      3 H                     0.086973
      4 H                     0.086992
      5 H                     0.086985
      6 H                     0.086966
      7 H                    -0.999999
  ----------------------------------------
  Sum of atomic charges =    -1.000000

 -----------------------------------------------------------------
                    Cartesian Multipole Moments
 -----------------------------------------------------------------
    Charge (ESU x 10^10)
                -4.8032
    Dipole Moment (Debye)
         X       0.0000      Y       0.0000      Z     -49.1063
       Tot      49.1063
    Quadrupole Moments (Debye-Ang)
        XX     -16.8906     XY       0.0000     YY     -15.9270
        XZ      -0.0000     YZ      -0.0000     ZZ    -524.5849
    Octopole Moments (Debye-Ang^2)
       XXX      -0.0000    XXY       0.0000    XYY      -0.0000
       YYY       0.0000    XXZ     -32.1104    XYZ      -0.0000
       YYZ     -32.7601    XZZ      -0.0000    YZZ       0.0000
       ZZZ   -5258.5151
    Hexadecapole Moments (Debye-Ang^3)
      XXXX     -74.1125   XXXY       0.0000   XXYY     -15.2290
      XYYY       0.0000   YYYY     -32.8466   XXXZ       0.0000
      XXYZ      -0.0000   XYYZ       0.0000   YYYZ      -0.0000
      XXZZ    -438.2079   XYZZ       0.0000   YYZZ    -431.1636
      XZZZ       0.0000   YZZZ      -0.0000   ZZZZ  -55520.9649
 -----------------------------------------------------------------
 Total job time:  932.90s(wall), 4321.83s(cpu) 
 Sat Mar 26 07:52:41 2022

        *************************************************************
        *                                                           *
        *  Thank you very much for using Q-Chem.  Have a nice day.  *
        *                                                           *
        *************************************************************


