/src/tsommerfeld/qchem/exe/qcprog.exe .input0.555556.14363.qcin.1 /src/jdavis/qchem.scratch/qchem14363/

                  Welcome to Q-Chem
     A Quantum Leap Into The Future Of Chemistry


 Q-Chem 5.4 (devel), Q-Chem, Inc., Pleasanton, CA (2021)

 E. Epifanovsky,  A. T. B. Gilbert,  Xintian Feng,  Joonho Lee,  Yuezhi Mao,  
 N. Mardirossian,  P. Pokhilko,  A. White,  M. Wormit,  M. P. Coons,  
 A. L. Dempwolff,  Zhengting Gan,  D. Hait,  P. R. Horn,  L. D. Jacobson,  
 I. Kaliman,  J. Kussmann,  A. W. Lange,  Ka Un Lao,  D. S. Levine,  Jie Liu,  
 S. C. McKenzie,  A. F. Morrison,  K. Nanda,  F. Plasser,  D. R. Rehn,  
 M. L. Vidal,  Zhi-Qiang You,  Ying Zhu,  B. Alam,  B. Albrecht,  
 A. Aldossary,  E. Alguire,  J. H. Andersen,  D. Barton,  K. Begam,  A. Behn,  
 Y. A. Bernard,  E. J. Berquist,  H. Burton,  A. Carreras,  K. Carter-Fenk,  
 R. Chakraborty,  A. D. Chien,  K. D. Closser,  V. Cofer-Shabica,  
 S. Dasgupta,  Jia Deng,  M. de Wergifosse,  M. Diedenhofen,  Hainam Do,  
 S. Ehlert,  Po-Tung Fang,  S. Fatehi,  Qingguo Feng,  T. Friedhoff,  
 J. Gayvert,  Qinghui Ge,  G. Gidofalvi,  M. Goldey,  J. Gomes,  
 C. Gonzalez-Espinoza,  S. Gulania,  A. Gunina,  M. W. D. Hanson-Heine,  
 P. H. P. Harbach,  A. W. Hauser,  M. F. Herbst,  M. Hernandez Vera,  
 M. Hodecker,  Z. C. Holden,  S. Houck,  Xunkun Huang,  Kerwin Hui,  
 B. C. Huynh,  M. Ivanov,  Hyunjun Ji,  Hanjie Jiang,  B. Kaduk,  S. Kaehler,  
 K. Khistyaev,  Jaehoon Kim,  P. Klunzinger,  Z. Koczor-Benda,  
 Joong Hoon Koh,  D. Kosenkov,  L. Koulias,  T. Kowalczyk,  C. M. Krauter,  
 K. Kue,  A. Kunitsa,  T. Kus,  A. Landau,  K. V. Lawler,  D. Lefrancois,  
 S. Lehtola,  Rain Li,  Yi-Pei Li,  Jiashu Liang,  M. Liebenthal,  
 Hung-Hsuan Lin,  You-Sheng Lin,  Fenglai Liu,  Kuan-Yu Liu,  
 M. Loipersberger,  A. Luenser,  A. Manjanath,  P. Manohar,  E. Mansoor,  
 S. F. Manzer,  Shan-Ping Mao,  A. V. Marenich,  T. Markovich,  S. Mason,  
 S. A. Maurer,  P. F. McLaughlin,  M. F. S. J. Menger,  J.-M. Mewes,  
 S. A. Mewes,  P. Morgante,  J. W. Mullinax,  K. J. Oosterbaan,  G. Paran,  
 Alexander C. Paul,  Suranjan K. Paul,  F. Pavosevic,  Zheng Pei,  S. Prager,  
 E. I. Proynov,  E. Ramos,  B. Rana,  A. E. Rask,  A. Rettig,  R. M. Richard,  
 F. Rob,  E. Rossomme,  T. Scheele,  M. Scheurer,  M. Schneider,  
 N. Sergueev,  S. M. Sharada,  W. Skomorowski,  D. W. Small,  C. J. Stein,  
 Yu-Chuan Su,  E. J. Sundstrom,  Zhen Tao,  J. Thirman,  T. Tsuchimochi,  
 N. M. Tubman,  S. P. Veccham,  O. Vydrov,  J. Wenzel,  J. Witte,  A. Yamada,  
 Kun Yao,  S. Yeganeh,  S. R. Yost,  A. Zech,  Igor Ying Zhang,  Xing Zhang,  
 Yu Zhang,  D. Zuev,  A. Aspuru-Guzik,  A. T. Bell,  N. A. Besley,  
 K. B. Bravaya,  B. R. Brooks,  D. Casanova,  Jeng-Da Chai,  S. Coriani,  
 C. J. Cramer,  A. E. DePrince, III,  R. A. DiStasio Jr.,  A. Dreuw,  
 B. D. Dunietz,  T. R. Furlani,  W. A. Goddard III,  S. Grimme,  
 S. Hammes-Schiffer,  T. Head-Gordon,  W. J. Hehre,  Chao-Ping Hsu,  
 T.-C. Jagau,  Yousung Jung,  A. Klamt,  Jing Kong,  D. S. Lambrecht,  
 WanZhen Liang,  N. J. Mayhall,  C. W. McCurdy,  J. B. Neaton,  
 C. Ochsenfeld,  J. A. Parkhill,  R. Peverati,  V. A. Rassolov,  Yihan Shao,  
 L. V. Slipchenko,  T. Stauch,  R. P. Steele,  J. E. Subotnik,  
 A. J. W. Thom,  A. Tkatchenko,  D. G. Truhlar,  T. Van Voorhis,  
 T. A. Wesolowski,  K. B. Whaley,  H. L. Woodcock III,  P. M. Zimmerman,  
 S. Faraji,  P. M. W. Gill,  M. Head-Gordon,  J. M. Herbert,  A. I. Krylov

 Additional authors for Version 5.4.1: 
 S. Kotaru,  Shaozhi Li,  Xiangyuan Li,  F. Matz,  A. Molle,  Haisheng Ren,  
 Yingli Su,  Hung-Yi Tsai,  C. Utku,  Fang Wang

 Contributors to earlier versions of Q-Chem not listed above: 
 R. D. Adamson,  B. Austin,  R. Baer,  J. Baker,  G. J. O. Beran,  
 K. Brandhorst,  S. T. Brown,  E. F. C. Byrd,  A. K. Chakraborty,  
 G. K. L. Chan,  Chun-Min Chang,  Yunqing Chen,  C.-L. Cheng,  
 Siu Hung Chien,  D. M. Chipman,  D. L. Crittenden,  H. Dachsel,  
 R. J. Doerksen,  A. D. Dutoi,  R. G. Edgar,  J. Fosso-Tande,  
 L. Fusti-Molnar,  D. Ghosh,  A. Ghysels,  A. Golubeva-Zadorozhnaya,  
 J. Gonthier,  M. S. Gordon,  S. R. Gwaltney,  G. Hawkins,  J. E. Herr,  
 A. Heyden,  S. Hirata,  E. G. Hohenstein,  G. Kedziora,  F. J. Keil,  
 C. Kelley,  Jihan Kim,  R. A. King,  R. Z. Khaliullin,  P. P. Korambath,  
 W. Kurlancheek,  A. Laurent,  A. M. Lee,  M. S. Lee,  S. V. Levchenko,  
 Ching Yeh Lin,  D. Liotard,  E. Livshits,  R. C. Lochan,  I. Lotan,  
 L. A. Martinez-Martinez,  P. E. Maslen,  N. Nair,  D. P. O'Neill,  
 D. Neuhauser,  E. Neuscamman,  C. M. Oana,  R. Olivares-Amaya,  R. Olson,  
 T. M. Perrine,  B. Peters,  P. A. Pieniazek,  A. Prociuk,  Y. M. Rhee,  
 J. Ritchie,  M. A. Rohrdanz,  E. Rosta,  N. J. Russ,  H. F. Schaefer III,  
 M. W. Schmidt,  N. E. Schultz,  S. Sharma,  N. Shenvi,  C. D. Sherrill,  
 A. C. Simmonett,  A. Sodt,  T. Stein,  D. Stuck,  K. S. Thanthiriwatte,  
 V. Vanovschi,  L. Vogt,  Tao Wang,  A. Warshel,  M. A. Watson,  
 C. F. Williams,  Q. Wu,  X. Xu,  Jun Yang,  W. Zhang,  Yan Zhao

 Please cite Q-Chem as follows:
 Y. Shao et al., Mol. Phys. 113, 184-215 (2015)
 DOI: 10.1080/00268976.2014.952696

 Q-Chem 5.4.1 for Intel X86 EM64T Linux

 Parts of Q-Chem use Armadillo 9.900.5 (Nocturnal Misbehaviour).
 http://arma.sourceforge.net/

 Q-Chem begins on Sat Mar 26 02:16:30 2022  

 Host: node01
0

     Scratch files written to /src/jdavis/qchem.scratch/qchem14363//
 Processing $rem in /src/tsommerfeld/qchem/config/preferences:
 Processing $rem in /home/jdavis/.qchemrc:

 Checking the input file for inconsistencies... 	...done.

--------------------------------------------------------------
User input:
--------------------------------------------------------------
$molecule
-1 1
C         0.0000003663    0.4438502432    0.6645000000
C         0.0000003663    0.4438502432   -0.6645000000
H        -0.9623486337    0.4438522630    1.1590800000
H        -0.9623486337    0.4438522630   -1.1590800000
H         0.9623483663    0.4438482235    1.1590800000
H         0.9623483663    0.4438482235   -1.1590800000
H        -0.0000038605   -10.4438482235    0.0000000000
$end

$rem
   METHOD adc(2)
   BASIS gen
   PURECART 11
   EE_STATES [0,0,0,10]
   scf_convergence 8
   ADC_DAVIDSON_MAXITER 120
   ADC_DAVIDSON_MAXSUBSPACE 200
   adc_nguess_singles 100
   THRESH 14
   S2THRESH 14
   adc_davidson_conv 5
   adc_davidson_thresh 14
   THREADS 10
   MEM_TOTAL 95000
   STATE_ANALYSIS TRUE
$end
$basis
C 1
S   9   1.00
      6.665000D+03           6.920000D-04
      1.000000D+03           5.329000D-03
      2.280000D+02           2.707700D-02
      6.471000D+01           1.017180D-01
      2.106000D+01           2.747400D-01
      7.495000D+00           4.485640D-01
      2.797000D+00           2.850740D-01
      5.215000D-01           1.520400D-02
      1.596000D-01          -3.191000D-03
S   9   1.00
      6.665000D+03          -1.460000D-04
      1.000000D+03          -1.154000D-03
      2.280000D+02          -5.725000D-03
      6.471000D+01          -2.331200D-02
      2.106000D+01          -6.395500D-02
      7.495000D+00          -1.499810D-01
      2.797000D+00          -1.272620D-01
      5.215000D-01           5.445290D-01
      1.596000D-01           5.804960D-01
S   1   1.00
      1.596000D-01           1.000000D+00
S   1   1.00
      0.0469000              1.0000000
P   4   1.00
      9.439000D+00           3.810900D-02
      2.002000D+00           2.094800D-01
      5.456000D-01           5.085570D-01
      1.517000D-01           4.688420D-01
P   1   1.00
      1.517000D-01           1.000000D+00
P   1   1.00
      0.0337111      1.0000000
P   1   1.00
      0.0168556      1.0000000
D   1   1.00
      5.500000D-01           1.0000000
****
C 2
S   9   1.00
      6.665000D+03           6.920000D-04
      1.000000D+03           5.329000D-03
      2.280000D+02           2.707700D-02
      6.471000D+01           1.017180D-01
      2.106000D+01           2.747400D-01
      7.495000D+00           4.485640D-01
      2.797000D+00           2.850740D-01
      5.215000D-01           1.520400D-02
      1.596000D-01          -3.191000D-03
S   9   1.00
      6.665000D+03          -1.460000D-04
      1.000000D+03          -1.154000D-03
      2.280000D+02          -5.725000D-03
      6.471000D+01          -2.331200D-02
      2.106000D+01          -6.395500D-02
      7.495000D+00          -1.499810D-01
      2.797000D+00          -1.272620D-01
      5.215000D-01           5.445290D-01
      1.596000D-01           5.804960D-01
S   1   1.00
      1.596000D-01           1.000000D+00
S   1   1.00
      0.0469000              1.0000000
P   4   1.00
      9.439000D+00           3.810900D-02
      2.002000D+00           2.094800D-01
      5.456000D-01           5.085570D-01
      1.517000D-01           4.688420D-01
P   1   1.00
      1.517000D-01           1.000000D+00
P   1   1.00
      0.0337111      1.0000000
P   1   1.00
      0.0168556      1.0000000
D   1   1.00
      5.500000D-01           1.0000000
****
H 3
cc-pVDZ
****
H 4
cc-pVDZ
****
H 5
cc-pVDZ
****
H 6
cc-pVDZ
****
H 7
aug-cc-pVDZ
****
$end
--------------------------------------------------------------
 Atom   2: (  0.6645000000,  0.0000001629, -0.6404528510)
         ->(  0.6645000000, -0.0000001629, -0.6404528510)
 Atom   1: ( -0.6645000000,  0.0000001629, -0.6404528510)
         ->( -0.6645000000,  0.0000000000, -0.6404528510)
 Atom   6: (  1.1590800000,  0.9623481629, -0.6404511369)
         ->(  1.1590800000,  0.9623488371, -0.6404545651)
 Atom   5: ( -1.1590800000,  0.9623481629, -0.6404511369)
         ->( -1.1590800000,  0.9623488371, -0.6404545651)
 Atom   7: ( -0.0000000000, -0.0000006060, 10.2472456157)
         ->(  0.0000000000,  0.0000000000, 10.2472456157)
 ----------------------------------------------------------------
             Standard Nuclear Orientation (Angstroms)
    I     Atom           X                Y                Z
 ----------------------------------------------------------------
    1      C      -0.6645000000     0.0000000000    -0.6404528510
    2      C       0.6645000000    -0.0000001629    -0.6404528510
    3      H      -1.1590800000    -0.9623488371    -0.6404545651
    4      H       1.1590800000    -0.9623488371    -0.6404545651
    5      H      -1.1590800000     0.9623488371    -0.6404545651
    6      H       1.1590800000     0.9623488371    -0.6404545651
    7      H       0.0000000000     0.0000000000    10.2472456157
 ----------------------------------------------------------------
 Molecular Point Group                 C2v   NOp =  4
 Largest Abelian Subgroup              C2v   NOp =  4
 Nuclear Repulsion Energy =          34.36395017 hartrees
 There are        9 alpha and        9 beta electrons
 Requested basis set is non-standard
 There are 33 shells and 67 basis functions
 Total memory of 95000 MB is distributed as follows: 
   MEM_STATIC is set to 192 MB
   QALLOC/CCMAN JOB total memory use is  94808 MB
 Warning: actual memory use might exceed 95000 MB

 Total QAlloc Memory Limit  95000 MB
 Mega-Array Size       188 MB
 MEM_STATIC part       192 MB

                       Distance Matrix (Angstroms)
             C (  1)   C (  2)   H (  3)   H (  4)   H (  5)   H (  6)
   C (  2)  1.329000
   H (  3)  1.082000  2.061931
   H (  4)  2.061931  1.082000  2.318160
   H (  5)  1.082000  2.061931  1.924698  3.013026
   H (  6)  2.061931  1.082000  3.013026  1.924698  2.318160
   H (  7) 10.907958 10.907958 10.991433 10.991433 10.991433 10.991433

 
 A cutoff of  1.0D-14 yielded    493 shell pairs
 There are      2101 function pairs (      2238 Cartesian)
 Smallest overlap matrix eigenvalue = 6.74E-04

 Scale SEOQF with 1.000000e-01/1.000000e-01/1.000000e-02

 Standard Electronic Orientation quadrupole field applied
 Nucleus-field energy     =    -0.0000000005 hartrees
 ================ Generating on-the-fly SAD Guess ================
Attempting to make child job directory: /src/jdavis/qchem.scratch/qchem14363//Frg1/
Attempting to make child job directory: /src/jdavis/qchem.scratch/qchem14363//Frg2/
Creating input file /src/jdavis/qchem.scratch/qchem14363/Frg1.input
using default PutDataFrgm: nothing
calling putenv with: QCSCRATCH=/src/jdavis/qchem.scratch/qchem14363/ 
Spawning Job For Fragment 0
Done Job For Fragment 0
calling putenv with: QCSCRATCH=/src/jdavis/qchem.scratch 
calling putenv with: QCTHREADS=1 
Creating input file /src/jdavis/qchem.scratch/qchem14363/Frg2.input
using default PutDataFrgm: nothing
calling putenv with: QCSCRATCH=/src/jdavis/qchem.scratch/qchem14363/ 
Spawning Job For Fragment 1
Done Job For Fragment 1
calling putenv with: QCSCRATCH=/src/jdavis/qchem.scratch 
calling putenv with: QCTHREADS=1 
 Time for running child jobs:  CPU 1.77 s  wall 54.39 s
 ============= Method Specific SAD Guess Constructed =============
 Guess from on-the-fly superposition of atomic densities
 Warning: Energy on first SCF cycle will be non-variational
 A restricted Hartree-Fock SCF calculation will be
 performed using Pulay DIIS extrapolation
 SCF converges when DIIS error is below 1.0E-08
 using 10 threads for integral computing
 -------------------------------------------------------
 OpenMP Integral computing Module                
 Release: version 1.0, May 2013, Q-Chem Inc. Pittsburgh 
 -------------------------------------------------------
 ---------------------------------------
  Cycle       Energy         DIIS Error
 ---------------------------------------
    1     -78.8000622718      7.36E-02
    2     -78.4459604491      6.49E-03
    3     -78.4840570312      1.48E-03
    4     -78.4859945544      4.78E-04
    5     -78.4861727346      7.26E-05
    6     -78.4861856165      1.42E-05
    7     -78.4861881985      6.32E-06
    8     -78.4861893933      3.07E-06
    9     -78.4861897893      7.93E-07
   10     -78.4861898099      1.25E-07
   11     -78.4861898092      1.68E-08
   12     -78.4861898091      3.15E-09 Convergence criterion met
 ---------------------------------------
 SCF time:  CPU 10.86 s  wall 1.09 s
 SCF   energy in the final basis set = -78.48618981
 Total energy in the final basis set = -78.48618981
================================================================================
|                                                                              |
|                                 A D C  M A N                                 |
|                                                                              |
 ------------------------------------------------------------------------------ 
|                                                                              |
| Components:                                                                  |
|                                                                              |
| - libvmm - 1.3-trunk                                                         |
|   Authors:                                                                   |
|   Evgeny Epifanovsky, Ilya Kaliman                                           |
|                                                                              |
| - libtensor - 2.5-trunk                                                      |
|   Authors:                                                                   |
|   Evgeny Epifanovsky, Michael Wormit, Dmitry Zuev, Sam Manzer,               |
|   Ilya Kaliman                                                               |
|                                                                              |
| - libwfa - 1.1-trunk                                                         |
|   Authors:                                                                   |
|   Felix Plasser, Stefanie Mewes (Baeppler), Benjamin Thomitzni,              |
|   Michael Wormit, Feng Chen, Anna I. Krylov, Pavel Pokhilko                  |
|                                                                              |
| - libadc - 1.1-trunk                                                         |
|   Authors:                                                                   |
|   Michael Wormit, Adrian L. Dempwolff, Philipp H. P. Harbach,                |
|   Caroline Krauter, Dirk Rehn, Matthias Schneider, Jan Wenzel                |
|                                                                              |
| - adcman - 2.6-trunk                                                         |
|   Authors:                                                                   |
|   Michael Wormit, Adrian L. Dempwolff, Philipp H. P. Harbach,                |
|   Caroline Krauter, Daniel Lefrancois, Jan-Michael Mewes, Dirk Rehn,         |
|   Matthias Schneider, Jan Wenzel, Andreas Dreuw                              |
|                                                                              |
| Authors of earlier versions of ADCMAN:                                       |
| Andreas Dreuw, Jan Hendrik Starcke, Dirk Rehn, Michael Wormit                |
|                                                                              |
================================================================================

 
 Alpha MOs, Restricted
 -- Occupied --                  
-11.188 -11.187  -0.993  -0.733  -0.612  -0.518  -0.467  -0.328
  1 A1    1 B1    2 A1    2 B1    1 B2    3 A1    1 A2    4 A1                 
  0.020
  5 A1                                                                         
 -- Virtual --                   
  0.074   0.081   0.090   0.094   0.103   0.104   0.140   0.156
  3 B1    2 B2    6 A1    2 A2    7 A1    4 B1    8 A1    5 B1                 
  0.170   0.186   0.203   0.211   0.231   0.288   0.315   0.337
  6 B1    3 B2    3 A2    9 A1   10 A1    7 B1   11 A1    8 B1                 
  0.380   0.395   0.480   0.560   0.704   0.786   0.880   0.908
  4 B2    9 B1    4 A2   10 B1   12 A1    5 B2   13 A1   14 A1                 
  0.943   0.950   0.977   1.048   1.055   1.071   1.074   1.163
 11 B1    6 B2   12 B1   13 B1   15 A1   16 A1    5 A2    7 B2                 
  1.332   1.333   1.347   1.396   1.653   1.664   1.742   1.892
 17 A1    6 A2   14 B1    7 A2   18 A1    8 A2    8 B2   15 B1                 
  1.964   1.964   1.964   1.969   1.985   2.014   2.066   2.076
 16 B1    9 B2   19 A1   17 B1   20 A1   21 A1   10 B2   11 B2                 
  2.218   2.316   2.461   2.486   2.581   2.622   2.847   2.850
 18 B1   19 B1    9 A2   22 A1   10 A2   20 B1   23 A1   12 B2                 
  3.304   3.388
 21 B1   11 A2                                                                 
 
 Beta MOs, Restricted
 -- Occupied --                  
-11.188 -11.187  -0.993  -0.733  -0.612  -0.518  -0.467  -0.328
  1 A1    1 B1    2 A1    2 B1    1 B2    3 A1    1 A2    4 A1                 
  0.020
  5 A1                                                                         
 -- Virtual --                   
  0.074   0.081   0.090   0.094   0.103   0.104   0.140   0.156
  3 B1    2 B2    6 A1    2 A2    7 A1    4 B1    8 A1    5 B1                 
  0.170   0.186   0.203   0.211   0.231   0.288   0.315   0.337
  6 B1    3 B2    3 A2    9 A1   10 A1    7 B1   11 A1    8 B1                 
  0.380   0.395   0.480   0.560   0.704   0.786   0.880   0.908
  4 B2    9 B1    4 A2   10 B1   12 A1    5 B2   13 A1   14 A1                 
  0.943   0.950   0.977   1.048   1.055   1.071   1.074   1.163
 11 B1    6 B2   12 B1   13 B1   15 A1   16 A1    5 A2    7 B2                 
  1.332   1.333   1.347   1.396   1.653   1.664   1.742   1.892
 17 A1    6 A2   14 B1    7 A2   18 A1    8 A2    8 B2   15 B1                 
  1.964   1.964   1.964   1.969   1.985   2.014   2.066   2.076
 16 B1    9 B2   19 A1   17 B1   20 A1   21 A1   10 B2   11 B2                 
  2.218   2.316   2.461   2.486   2.581   2.622   2.847   2.850
 18 B1   19 B1    9 A2   22 A1   10 A2   20 B1   23 A1   12 B2                 
  3.304   3.388
 21 B1   11 A2                                                                 

--------------------------------------------------------------------------------
                                   HF Summary                                   
--------------------------------------------------------------------------------
  Energy:                                                  -78.4861898091 a.u.
  Dip. moment [a.u.]:                  [  -0.000000,    0.000001,  -19.149350]
  Total dipole [Debye]:                                              48.672801
  <r^2> [a.u.]:                        [  50.872755,   25.241579,  785.728552]
  Total <r^2> [a.u.]:                                               861.842886
--------------------------------------------------------------------------------

--------------------------------------------------------------------------------
                                 MP(2) Summary                                  
--------------------------------------------------------------------------------
  MP energy contribution:                                   -0.2976092221 a.u.
  Total energy:                                            -78.7837990312 a.u.
  Dip. moment [a.u.]:                  [  -0.000000,    0.000001,  -19.100487]
  Total dipole [Debye]:                                              48.548605
  <r^2> [a.u.]:                        [  50.986680,   25.277246,  784.763689]
  Total <r^2> [a.u.]:                                               861.027615

  Density matrix analysis:
  ------------------------
  NOs
    Occupation of frontier NOs:
       0.0447   1.9373
    Number of electrons: 18.000000
    Number of unpaired electrons: n_u =  0.43227, n_u,nl =  0.04667
    NO participation ratio (PR_NO): 15.369307
  
  
  Mulliken Population Analysis
  Atom      Charge (e)              h+              e-           Del q
  --------------------------------------------------------------------
   1 C       -0.164714        0.090299       -0.105109       -0.014810
   2 C       -0.164714        0.090299       -0.105109       -0.014810
   3 H        0.079438        0.017321       -0.010546        0.006775
   4 H        0.079441        0.017321       -0.010546        0.006775
   5 H        0.079439        0.017321       -0.010546        0.006775
   6 H        0.079436        0.017321       -0.010546        0.006775
   7 H       -0.988327        0.024999       -0.022479        0.002519
  --------------------------------------------------------------------
  Sum:       -1.000000        0.274880       -0.274880        0.000000
  
  Multipole moment analysis of the density matrix
    Molecular charge:                      -1.000000
    Number of electrons:                   18.000000
      Center of electronic charge [Ang]: [  0.000000,  -0.000000,   0.561530]
    Total nuclear charge:                  17.000000
      Center of nuclear charge [Ang]:    [  0.000000,  -0.000000,  -0.000000]
    Dipole moment [D]:                     48.548590
      Cartesian components [D]:          [ -0.000000,   0.000002, -48.548590]
    RMS size of the density [Ang]:         3.616602
      Cartesian components [Ang]:        [  0.890622,   0.627090,   3.448676]
  
  Exciton analysis of the difference density matrix
    <r_h> [Ang]:                  [  0.000000,  -0.000000,   0.339249]
    <r_e> [Ang]:                  [  0.000000,   0.000000,   0.245183]
    |<r_e - r_h>| [Ang]:            0.094066
    Hole size [Ang]:                3.497133
      Cartesian components [Ang]: [  0.995294,   0.789068,   3.258328]
    Electron size [Ang]:            3.384431
      Cartesian components [Ang]: [  1.051984,   0.811766,   3.112675]
--------------------------------------------------------------------------------
  Starting Davidson for singlet states of irrep B2 ... 
--------------------------------------------------------------------------------
   It NVec Conv  Avg. Norm  Max. Norm  Conv. states           Remark
--------------------------------------------------------------------------------
       100    0  1.068e-01  4.357e-01  0.0302 n n n n n n n n Guess.
    1  110    0  3.627e-02  3.547e-01  0.0039 n n n n n n n n 
    2  120    0  1.103e-02  9.582e-02  0.0037 n n n n n n n n 
    3  130    2  1.784e-02  9.937e-02  0.0037 y y n n n n n n 
    4  140    2  2.457e-03  1.950e-02  0.0037 y y n n n n n n 
    5  150    4  9.837e-03  9.780e-02  0.0037 y y n y y n n n 
    6  160    6  2.390e-02  2.031e-01  0.0037 y y n y y n y n 
    7  170    7  1.425e-02  1.156e-01  0.0037 y y n y y y y n 
    8  180    4  1.420e-02  1.251e-01  0.0037 y n y n n y y n 
    9  190    0  1.339e-02  1.172e-01  0.0037 n n n n n n n n 
   10  200    0  2.087e-02  1.357e-01  0.0037 n n n n n n n n 
   11   20    3  1.105e-02  9.968e-02  0.0037 y n y n n y n n Subspace collapsed.
   12   30    6  7.112e-03  6.869e-02  0.0037 y y y n y y y n 
   13   40    7  5.505e-03  5.362e-02  0.0037 y y y y y y y n 
   14   50    7  5.346e-03  5.208e-02  0.0037 y y y y y y y n 
   15   60    7  5.176e-03  5.063e-02  0.0037 y y y y y y y n 
   16   70    8  5.158e-03  5.048e-02  0.0037 y y y y y y y n 
   17   80    8  5.088e-03  4.974e-02  0.0037 y y y y y y y n 
   18   90    8  5.325e-03  5.175e-02  0.0037 y y y y y y y n 
   19  100    7  2.296e-02  2.216e-01  0.0037 y y y y y y y n 
   20  110    7  2.103e-02  1.888e-01  0.0037 y y y y y y y n 
   21  120    7  1.956e-02  1.832e-01  0.0037 y y y y y y y n 
   22  130    7  1.908e-02  1.707e-01  0.0037 y y y y y y y n 
   23  140    7  1.737e-02  1.397e-01  0.0037 y y y y y y y n 
   24  150    8  1.743e-02  1.313e-01  0.0037 y y y y y y y n 
   25  160    8  1.550e-02  1.164e-01  0.0037 y y y y y y y n 
   26  170    3  1.503e-02  1.200e-01  0.0037 y y n n y n n n 
   27  180    2  1.400e-02  1.207e-01  0.0037 y y n n n n n n 
   28  190    0  1.351e-02  1.192e-01  0.0037 n n n n n n n n 
   29  200    0  1.163e-02  1.092e-01  0.0037 n n n n n n n n 
   30   20    3  1.162e-02  1.096e-01  0.0037 y y n n y n n n Subspace collapsed.
   31   30    5  1.136e-02  1.075e-01  0.0037 y y n y y y n n 
   32   40    8  1.123e-02  1.062e-01  0.0037 y y y y y y y n 
   33   50    8  1.079e-02  1.024e-01  0.0037 y y y y y y y n 
   34   60    8  1.069e-02  1.018e-01  0.0037 y y y y y y y n 
   35   70    8  1.037e-02  9.890e-02  0.0037 y y y y y y y n 
   36   80    8  1.016e-02  9.714e-02  0.0037 y y y y y y y n 
   37   90    8  9.960e-03  9.535e-02  0.0037 y y y y y y y n 
   38  100    8  9.784e-03  9.393e-02  0.0037 y y y y y y y n 
   39  110    8  9.602e-03  9.225e-02  0.0037 y y y y y y y n 
   40  120    8  9.614e-03  9.255e-02  0.0037 y y y y y y y n 
   41  130    8  9.545e-03  9.192e-02  0.0037 y y y y y y y n 
   42  140    8  9.553e-03  9.202e-02  0.0037 y y y y y y y n 
   43  150    8  9.336e-03  8.999e-02  0.0037 y y y y y y y n 
   44  160    8  9.340e-03  9.009e-02  0.0037 y y y y y y y n 
   45  170    8  9.058e-03  8.742e-02  0.0037 y y y y y y y n 
   46  180    7  9.015e-03  8.716e-02  0.0037 y y y y y y y n 
   47  190    2  8.900e-03  8.595e-02  0.0037 y n n y n n n n 
   48  200    1  9.341e-03  8.580e-02  0.0037 y n n n n n n n 
   49   20    5  8.821e-03  8.541e-02  0.0037 y y n y n y y n Subspace collapsed.
   50   30    6  6.959e-03  6.899e-02  0.0037 y y n y y y y n 
   51   40    7  6.559e-03  6.526e-02  0.0037 y y y y y y y n 
   52   50    8  6.323e-03  6.305e-02  0.0037 y y y y y y y n 
   53   60    8  6.194e-03  6.180e-02  0.0037 y y y y y y y n 
   54   70    8  6.104e-03  6.096e-02  0.0037 y y y y y y y n 
   55   80    8  6.094e-03  6.087e-02  0.0037 y y y y y y y n 
   56   90    8  6.069e-03  6.065e-02  0.0037 y y y y y y y n 
   57  100    8  5.965e-03  5.961e-02  0.0037 y y y y y y y n 
   58  110    8  5.998e-03  5.997e-02  0.0037 y y y y y y y n 
   59  120    8  5.964e-03  5.964e-02  0.0037 y y y y y y y n 
   60  130    8  5.995e-03  5.995e-02  0.0037 y y y y y y y n 
   61  140    9  5.955e-03  5.955e-02  0.0037 y y y y y y y n 
   62  150    9  5.961e-03  5.961e-02  0.0037 y y y y y y y n 
   63  160    8  5.937e-03  5.937e-02  0.0037 y y y y y y y n 
   64  170    7  5.893e-03  5.893e-02  0.0037 y y y y y n y n 
   65  180    6  5.768e-03  5.767e-02  0.0037 y y n y y n y n 
   66  190    6  5.776e-03  5.775e-02  0.0037 y y n y y n y n 
   67  200    4  5.781e-03  5.773e-02  0.0037 y y n y y n n n 
   68   20    8  5.778e-03  5.778e-02  0.0037 y y y y y y y n Subspace collapsed.
   69   30    8  5.772e-03  5.772e-02  0.0037 y y y y y y y n 
   70   40    8  5.746e-03  5.746e-02  0.0037 y y y y y y y n 
   71   50    9  5.658e-03  5.658e-02  0.0037 y y y y y y y n 
   72   60    9  5.624e-03  5.624e-02  0.0037 y y y y y y y n 
   73   70    9  5.630e-03  5.630e-02  0.0037 y y y y y y y n 
   74   80    9  5.599e-03  5.599e-02  0.0037 y y y y y y y n 
   75   90    9  5.537e-03  5.537e-02  0.0037 y y y y y y y n 
   76  100    9  5.458e-03  5.458e-02  0.0037 y y y y y y y n 
   77  110    9  5.372e-03  5.372e-02  0.0037 y y y y y y y n 
   78  120    9  5.301e-03  5.301e-02  0.0037 y y y y y y y n 
   79  130    9  5.257e-03  5.257e-02  0.0037 y y y y y y y n 
   80  140    9  5.220e-03  5.220e-02  0.0037 y y y y y y y n 
   81  150    9  5.264e-03  5.264e-02  0.0037 y y y y y y y n 
   82  160    9  5.234e-03  5.234e-02  0.0037 y y y y y y y n 
   83  170    7  5.249e-03  5.249e-02  0.0037 y y y y y y n n 
   84  180    5  5.214e-03  5.214e-02  0.0037 y y n y y y n n 
   85  190    5  5.142e-03  5.142e-02  0.0037 y y n y y y n n 
   86  200    5  5.235e-03  5.235e-02  0.0037 y y n y y y n n 
   87   20    5  5.229e-03  5.229e-02  0.0037 y y n y y y n n Subspace collapsed.
   88   30    6  5.191e-03  5.191e-02  0.0037 y y y y y y n n 
   89   40    9  5.105e-03  5.105e-02  0.0037 y y y y y y y n 
   90   50    9  5.082e-03  5.082e-02  0.0037 y y y y y y y n 
   91   60    9  5.074e-03  5.074e-02  0.0037 y y y y y y y n 
   92   70    9  5.082e-03  5.082e-02  0.0037 y y y y y y y n 
   93   80    9  5.081e-03  5.081e-02  0.0037 y y y y y y y n 
   94   90    9  5.034e-03  5.034e-02  0.0037 y y y y y y y n 
   95  100    9  4.970e-03  4.970e-02  0.0037 y y y y y y y n 
   96  110    9  4.963e-03  4.963e-02  0.0037 y y y y y y y n 
   97  120    9  4.904e-03  4.904e-02  0.0037 y y y y y y y n 
   98  130    9  4.888e-03  4.888e-02  0.0037 y y y y y y y n 
   99  140    9  4.846e-03  4.846e-02  0.0037 y y y y y y y n 
  100  150    9  4.792e-03  4.792e-02  0.0037 y y y y y y y n 
  101  160    9  4.756e-03  4.756e-02  0.0037 y y y y y y y n 
  102  170    7  4.763e-03  4.763e-02  0.0037 y y n y y n y n 
  103  180    7  4.802e-03  4.802e-02  0.0037 y y n y y n y n 
  104  190    6  4.773e-03  4.773e-02  0.0037 y y n y y n y n 
  105  200    4  4.768e-03  4.767e-02  0.0037 y y n y n n n n 
  106   20    5  4.764e-03  4.764e-02  0.0037 y y n y y n n n Subspace collapsed.
  107   30    7  4.726e-03  4.726e-02  0.0037 y y y y y n y n 
  108   40    7  4.693e-03  4.693e-02  0.0037 y y y y y n y n 
  109   50    8  4.639e-03  4.639e-02  0.0037 y y y y y n y n 
  110   60    8  4.636e-03  4.636e-02  0.0037 y y y y y n y n 
  111   70    9  4.607e-03  4.607e-02  0.0037 y y y y y y y n 
  112   80    9  4.595e-03  4.595e-02  0.0037 y y y y y y y n 
  113   90    9  4.574e-03  4.574e-02  0.0037 y y y y y y y n 
  114  100    9  4.540e-03  4.540e-02  0.0037 y y y y y y y n 
  115  110    9  4.521e-03  4.521e-02  0.0037 y y y y y y y n 
  116  120    9  4.469e-03  4.469e-02  0.0037 y y y y y y y n 
  117  130    9  4.447e-03  4.447e-02  0.0037 y y y y y y y n 
  118  140    9  4.419e-03  4.419e-02  0.0037 y y y y y y y n 
  119  150    9  4.414e-03  4.414e-02  0.0037 y y y y y y y n 
--------------------------------------------------------------------------------
  Davidson Summary: 
 ------------------------------------------------------------
  State  0: excitation energy =   0.0037 a.u.   (converged)
  State  1: excitation energy =   0.1010 a.u.   (converged)
  State  2: excitation energy =   0.1269 a.u.   (converged)
  State  3: excitation energy =   0.1351 a.u.   (converged)
  State  4: excitation energy =   0.1452 a.u.   (converged)
  State  5: excitation energy =   0.1566 a.u.   (converged)
  State  6: excitation energy =   0.1799 a.u.   (converged)
  State  7: excitation energy =   0.2099 a.u.   (not converged)
  State  8: excitation energy =   0.2227 a.u.   (converged)
  State  9: excitation energy =   0.2363 a.u.   (converged)
 ------------------------------------------------------------


--------------------------------------------------------------------------------
                   State-averaged natural transition orbitals
--------------------------------------------------------------------------------
--------------------------------------------------------------------------------

--------------------------------------------------------------------------------
                             Excited State Summary
--------------------------------------------------------------------------------
--------------------------------------------------------------------------------

  Excited state 1 (singlet, B2)                                    [converged]
  ----------------------------------------------------------------------------
  Term symbol:  1 (1) B2                                    R^2 =  3.72464e-10

  Total energy:                                            -78.7801260307 a.u.
  Excitation energy:                                               0.099947 eV

  Osc. strength:                                                      0.000001
  Trans. dip. moment [a.u.]:           [  -0.000000,    0.018369,   -0.000000]
  <i|r^2|0> [a.u.]:                    [  -0.000000,   -0.000000,    0.000000]

  Dip. moment [a.u.]:                  [  -0.000000,    0.000001,    1.873939]
  Total dipole [Debye]:                                               4.763078
  <r^2> [a.u.]:                        [  70.930955,   84.860608,  423.392743]
  Total <r^2> [a.u.]:                                               579.184306

  V1^2 = 0.9273, V2^2 = 0.0727

  Important amplitudes:
      occ i      occ j       vir a       vir b          v   
    ---------------------------------------------------------
     5 (A1) A               2 (B2) A                 -0.6804
     5 (A1) A   5 (A1) B    6 (A1) A    2 (B2) B     -0.0767
    ---------------------------------------------------------

  Density matrix analysis:
  ------------------------
  NOs
    Occupation of frontier NOs:
       0.9976   0.9986
    Number of electrons: 18.000000
    Number of unpaired electrons: n_u =  2.41104, n_u,nl =  2.04668
    NO participation ratio (PR_NO):  2.900058
  
  
  Mulliken Population Analysis
  Atom      Charge (e)              h+              e-           Del q
  --------------------------------------------------------------------
   1 C       -0.661989        0.044210       -0.541485       -0.497275
   2 C       -0.661989        0.044210       -0.541485       -0.497275
   3 H        0.073252        0.002605       -0.008792       -0.006187
   4 H        0.073255        0.002605       -0.008792       -0.006187
   5 H        0.073252        0.002605       -0.008792       -0.006187
   6 H        0.073249        0.002605       -0.008792       -0.006187
   7 H        0.030971        1.048948       -0.029650        1.019298
  --------------------------------------------------------------------
  Sum:       -1.000000        1.147787       -1.147787       -0.000000
  
  Multipole moment analysis of the density matrix
    Molecular charge:                      -1.000000
    Number of electrons:                   18.000000
      Center of electronic charge [Ang]: [  0.000000,  -0.000000,  -0.055092]
    Total nuclear charge:                  17.000000
      Center of nuclear charge [Ang]:    [  0.000000,  -0.000000,  -0.000000]
    Dipole moment [D]:                     4.763076
      Cartesian components [D]:          [ -0.000000,   0.000002,   4.763076]
    RMS size of the density [Ang]:         3.001236
      Cartesian components [Ang]:        [  1.050468,   1.148994,   2.565881]
  
  Exciton analysis of the difference density matrix
    <r_h> [Ang]:                  [  0.000000,  -0.000000,   9.328666]
    <r_e> [Ang]:                  [  0.000000,  -0.000000,  -0.341409]
    |<r_e - r_h>| [Ang]:            9.670075
    Hole size [Ang]:                3.525201
      Cartesian components [Ang]: [  0.935683,   0.923296,   3.270943]
    Electron size [Ang]:            5.529238
      Cartesian components [Ang]: [  2.396113,   3.922904,   3.072774]

  Transition density matrix analysis:
  -----------------------------------
  
  CT numbers (Mulliken)
    omega =     0.9216
    <Phe> =     0.0029
  
  Exciton analysis of the transition density matrix
    Trans. dipole moment [D]:             0.023345
      Cartesian components [D]:         [ -0.000000,   0.023345,  -0.000000]
    <r_h> [Ang]:                        [  0.000000,  -0.000000,  10.183261]
    <r_e> [Ang]:                        [  0.000000,  -0.000000,  -0.640392]
    |<r_e - r_h>| [Ang]:                 10.823653
    Hole size [Ang]:                      1.443142
      Cartesian components [Ang]:       [  0.669342,   0.667865,   1.090227]
    Electron size [Ang]:                  5.355058
      Cartesian components [Ang]:       [  2.436741,   4.132248,   2.379805]
    RMS electron-hole separation [Ang]:  12.161907
      Cartesian components [Ang]:       [  2.526984,   4.185870,  11.135746]
    Covariance(r_h, r_e) [Ang^2]:        -0.000610
    Correlation coefficient:             -0.000079
    Center-of-mass size [Ang]:            2.772999
      Cartesian components [Ang]:       [  1.263507,   2.092936,   1.308698]

  Decomposition into state-averaged NTOs
    H- 0 -> L+ 0:  0.6763 ( 91.5%)
                   omega =  92.2%
  ----------------------------------------------------------------------------


  Excited state 2 (singlet, B2)                                    [converged]
  ----------------------------------------------------------------------------
  Term symbol:  2 (1) B2                                    R^2 =  1.40825e-08

  Total energy:                                            -78.6828140084 a.u.
  Excitation energy:                                               2.747942 eV

  Osc. strength:                                                      0.000003
  Trans. dip. moment [a.u.]:           [  -0.000000,   -0.006987,    0.000000]
  <i|r^2|0> [a.u.]:                    [  -0.000000,   -0.000000,    0.000000]

  Dip. moment [a.u.]:                  [  -0.000000,    0.000001,    1.790697]
  Total dipole [Debye]:                                               4.551499
  <r^2> [a.u.]:                        [  62.347644,   62.388162,  417.756145]
  Total <r^2> [a.u.]:                                               542.491951

  V1^2 = 0.9263, V2^2 = 0.0737

  Important amplitudes:
      occ i      occ j       vir a       vir b          v   
    ---------------------------------------------------------
     5 (A1) A               3 (B2) A                  0.6785
     5 (A1) A   5 (A1) B    6 (A1) A    3 (B2) B      0.0721
    ---------------------------------------------------------

  Density matrix analysis:
  ------------------------
  NOs
    Occupation of frontier NOs:
       0.9930   0.9970
    Number of electrons: 18.000000
    Number of unpaired electrons: n_u =  2.42044, n_u,nl =  2.04946
    NO participation ratio (PR_NO):  2.939567
  
  
  Mulliken Population Analysis
  Atom      Charge (e)              h+              e-           Del q
  --------------------------------------------------------------------
   1 C       -0.752977        0.064892       -0.653155       -0.588263
   2 C       -0.752977        0.064892       -0.653155       -0.588263
   3 H        0.119766        0.003846        0.036481        0.040328
   4 H        0.119769        0.003846        0.036481        0.040328
   5 H        0.119767        0.003846        0.036481        0.040328
   6 H        0.119764        0.003846        0.036481        0.040328
   7 H        0.026888        1.043268       -0.028052        1.015216
  --------------------------------------------------------------------
  Sum:       -1.000000        1.188437       -1.188437       -0.000000
  
  Multipole moment analysis of the density matrix
    Molecular charge:                      -1.000000
    Number of electrons:                   18.000000
      Center of electronic charge [Ang]: [  0.000000,  -0.000000,  -0.052645]
    Total nuclear charge:                  17.000000
      Center of nuclear charge [Ang]:    [  0.000000,  -0.000000,  -0.000000]
    Dipole moment [D]:                     4.551497
      Cartesian components [D]:          [ -0.000000,   0.000001,   4.551497]
    RMS size of the density [Ang]:         2.904626
      Cartesian components [Ang]:        [  0.984861,   0.985181,   2.548788]
  
  Exciton analysis of the difference density matrix
    <r_h> [Ang]:                  [  0.000000,  -0.000000,   8.937951]
    <r_e> [Ang]:                  [ -0.000000,   0.000000,  -0.364300]
    |<r_e - r_h>| [Ang]:            9.302251
    Hole size [Ang]:                3.955694
      Cartesian components [Ang]: [  0.932415,   0.908879,   3.735245]
    Electron size [Ang]:            4.510652
      Cartesian components [Ang]: [  1.883177,   3.093609,   2.688719]

  Transition density matrix analysis:
  -----------------------------------
  
  CT numbers (Mulliken)
    omega =     0.9196
    <Phe> =     0.0002
  
  Exciton analysis of the transition density matrix
    Trans. dipole moment [D]:             0.008879
      Cartesian components [D]:         [ -0.000000,  -0.008879,   0.000000]
    <r_h> [Ang]:                        [  0.000000,  -0.000000,  10.183367]
    <r_e> [Ang]:                        [ -0.000000,   0.000000,  -0.640156]
    |<r_e - r_h>| [Ang]:                 10.823523
    Hole size [Ang]:                      1.442305
      Cartesian components [Ang]:       [  0.669107,   0.667616,   1.089417]
    Electron size [Ang]:                  4.233354
      Cartesian components [Ang]:       [  1.862018,   3.281696,   1.919545]
    RMS electron-hole separation [Ang]:  11.711378
      Cartesian components [Ang]:       [  1.978568,   3.348913,  11.046557]
    Covariance(r_h, r_e) [Ang^2]:        -0.003097
    Correlation coefficient:             -0.000507
    Center-of-mass size [Ang]:            2.235807
      Cartesian components [Ang]:       [  0.989305,   1.674459,   1.102859]

  Decomposition into state-averaged NTOs
    H- 0 -> L+ 1:  0.6756 ( 91.3%)
                   omega =  92.0%
  ----------------------------------------------------------------------------


  Excited state 3 (singlet, B2)                                    [converged]
  ----------------------------------------------------------------------------
  Term symbol:  3 (1) B2                                    R^2 =  1.05106e-08

  Total energy:                                            -78.6569481333 a.u.
  Excitation energy:                                               3.451788 eV

  Osc. strength:                                                      0.000001
  Trans. dip. moment [a.u.]:           [   0.000000,   -0.002582,    0.000000]
  <i|r^2|0> [a.u.]:                    [   0.000000,   -0.000000,   -0.000000]

  Dip. moment [a.u.]:                  [  -0.000000,    0.000001,   25.087037]
  Total dipole [Debye]:                                              63.764901
  <r^2> [a.u.]:                        [ 178.079366,  104.449007,   93.222985]
  Total <r^2> [a.u.]:                                               375.751358

  V1^2 = 0.0000, V2^2 = 1.0000

  Important amplitudes:
      occ i      occ j       vir a       vir b          v   
    ---------------------------------------------------------
     5 (A1) A   5 (A1) B    2 (A2) A    3 (B1) B     -0.3535
     5 (A1) A   5 (A1) B    6 (A1) A    2 (B2) B      0.0037
    ---------------------------------------------------------

  Density matrix analysis:
  ------------------------
  NOs
    Occupation of frontier NOs:
       1.0000   1.0000
    Number of electrons: 18.000000
    Number of unpaired electrons: n_u =  2.40835, n_u,nl =  2.05110
    NO participation ratio (PR_NO):  2.881171
  
  
  Mulliken Population Analysis
  Atom      Charge (e)              h+              e-           Del q
  --------------------------------------------------------------------
   1 C       -1.152328        0.004577       -0.992191       -0.987614
   2 C       -1.152328        0.004577       -0.992191       -0.987614
   3 H        0.075539        0.000001       -0.003900       -0.003900
   4 H        0.075542        0.000001       -0.003900       -0.003900
   5 H        0.075540        0.000001       -0.003900       -0.003900
   6 H        0.075537        0.000001       -0.003900       -0.003900
   7 H        1.002499        1.990827       -0.000001        1.990827
  --------------------------------------------------------------------
  Sum:       -1.000000        1.999984       -1.999984       -0.000000
  
  Multipole moment analysis of the density matrix
    Molecular charge:                      -1.000000
    Number of electrons:                   18.000000
      Center of electronic charge [Ang]: [  0.000000,  -0.000000,  -0.737528]
    Total nuclear charge:                  17.000000
      Center of nuclear charge [Ang]:    [  0.000000,  -0.000000,  -0.000000]
    Dipole moment [D]:                     63.764882
      Cartesian components [D]:          [ -0.000000,   0.000002,  63.764882]
    RMS size of the density [Ang]:         2.302535
      Cartesian components [Ang]:        [  1.664454,   1.274727,   0.952017]
  
  Exciton analysis of the difference density matrix
    <r_h> [Ang]:                  [  0.000000,  -0.000000,  10.202002]
    <r_e> [Ang]:                  [ -0.000000,  -0.000000,  -1.489608]
    |<r_e - r_h>| [Ang]:           11.691611
    Hole size [Ang]:                1.353761
      Cartesian components [Ang]: [  0.661434,   0.660223,   0.979428]
    Electron size [Ang]:            5.979000
      Cartesian components [Ang]: [  4.269945,   3.394284,   2.448439]

  Transition density matrix analysis:
  -----------------------------------
  
  CT numbers (Mulliken)
    omega =     0.0000
    <Phe> =     0.0037
  
  Exciton analysis of the transition density matrix
    Trans. dipole moment [D]:             0.003281
      Cartesian components [D]:         [  0.000000,  -0.003281,   0.000000]
    <r_h> [Ang]:                        [ -0.000000,  -0.000000,  10.033250]
    <r_e> [Ang]:                        [ -0.000000,   0.000000,  -0.640943]
    |<r_e - r_h>| [Ang]:                 10.674193
    Hole size [Ang]:                      2.078247
      Cartesian components [Ang]:       [  0.794932,   0.721284,   1.779590]
    Electron size [Ang]:                  4.798894
      Cartesian components [Ang]:       [  2.150033,   3.710059,   2.154578]
    RMS electron-hole separation [Ang]:  11.890620
      Cartesian components [Ang]:       [  2.323355,   3.775019,  11.033498]
    Covariance(r_h, r_e) [Ang^2]:        -0.049975
    Correlation coefficient:             -0.005011
    Center-of-mass size [Ang]:            2.610007
      Cartesian components [Ang]:       [  1.130392,   1.892010,   1.398088]

  Decomposition into state-averaged NTOs
                   omega =   0.0%
  ----------------------------------------------------------------------------


  Excited state 4 (singlet, B2)                                    [converged]
  ----------------------------------------------------------------------------
  Term symbol:  4 (1) B2                                    R^2 =  3.33983e-09

  Total energy:                                            -78.6487371001 a.u.
  Excitation energy:                                               3.675222 eV

  Osc. strength:                                                      0.000001
  Trans. dip. moment [a.u.]:           [  -0.000000,   -0.002643,    0.000000]
  <i|r^2|0> [a.u.]:                    [   0.000000,    0.000000,   -0.000000]

  Dip. moment [a.u.]:                  [  -0.000000,    0.000001,   23.108204]
  Total dipole [Debye]:                                              58.735208
  <r^2> [a.u.]:                        [ 109.732952,  105.664144,  115.026451]
  Total <r^2> [a.u.]:                                               330.423547

  V1^2 = 0.0318, V2^2 = 0.9682

  Important amplitudes:
      occ i      occ j       vir a       vir b          v   
    ---------------------------------------------------------
     5 (A1) A   5 (A1) B    6 (A1) A    2 (B2) B     -0.3306
     5 (A1) A               2 (B2) A                  0.1256
    ---------------------------------------------------------

  Density matrix analysis:
  ------------------------
  NOs
    Occupation of frontier NOs:
       0.9999   1.0042
    Number of electrons: 18.000000
    Number of unpaired electrons: n_u =  2.40005, n_u,nl =  2.04996
    NO participation ratio (PR_NO):  2.874002
  
  
  Mulliken Population Analysis
  Atom      Charge (e)              h+              e-           Del q
  --------------------------------------------------------------------
   1 C       -1.132298        0.002819       -0.970403       -0.967584
   2 C       -1.132298        0.002819       -0.970403       -0.967584
   3 H        0.070010        0.000084       -0.009513       -0.009429
   4 H        0.070013        0.000084       -0.009513       -0.009429
   5 H        0.070010        0.000084       -0.009513       -0.009429
   6 H        0.070007        0.000084       -0.009513       -0.009429
   7 H        0.984555        1.973574       -0.000692        1.972882
  --------------------------------------------------------------------
  Sum:       -1.000000        1.979548       -1.979548       -0.000000
  
  Multipole moment analysis of the density matrix
    Molecular charge:                      -1.000000
    Number of electrons:                   18.000000
      Center of electronic charge [Ang]: [  0.000000,  -0.000000,  -0.679352]
    Total nuclear charge:                  17.000000
      Center of nuclear charge [Ang]:    [  0.000000,  -0.000000,  -0.000000]
    Dipole moment [D]:                     58.735191
      Cartesian components [D]:          [ -0.000000,   0.000002,  58.735191]
    RMS size of the density [Ang]:         2.163082
      Cartesian components [Ang]:        [  1.306572,   1.282120,   1.152373]
  
  Exciton analysis of the difference density matrix
    <r_h> [Ang]:                  [ -0.000000,  -0.000000,  10.216978]
    <r_e> [Ang]:                  [ -0.000000,  -0.000000,  -1.066341]
    |<r_e - r_h>| [Ang]:           11.283319
    Hole size [Ang]:                1.276320
      Cartesian components [Ang]: [  0.674817,   0.652941,   0.864455]
    Electron size [Ang]:            5.460666
      Cartesian components [Ang]: [  2.960688,   3.434811,   3.042249]

  Transition density matrix analysis:
  -----------------------------------
  
  CT numbers (Mulliken)
    omega =     0.0317
    <Phe> =     0.0029
  
  Exciton analysis of the transition density matrix
    Trans. dipole moment [D]:             0.003359
      Cartesian components [D]:         [ -0.000000,  -0.003359,   0.000000]
    <r_h> [Ang]:                        [ -0.000000,  -0.000000,  10.244896]
    <r_e> [Ang]:                        [  0.000000,  -0.000000,  -0.640400]
    |<r_e - r_h>| [Ang]:                 10.885296
    Hole size [Ang]:                      1.095736
      Cartesian components [Ang]:       [  0.624955,   0.624778,   0.647859]
    Electron size [Ang]:                  5.585556
      Cartesian components [Ang]:       [  2.537426,   4.312199,   2.482911]
    RMS electron-hole separation [Ang]:  12.283717
      Cartesian components [Ang]:       [  2.613247,   4.357215,  11.183708]
    Covariance(r_h, r_e) [Ang^2]:        -0.000477
    Correlation coefficient:             -0.000078
    Center-of-mass size [Ang]:            2.845967
      Cartesian components [Ang]:       [  1.306631,   2.178617,   1.282915]

  Decomposition into state-averaged NTOs
    H- 0 -> L+ 0: -0.1255 (  3.2%)
                   omega =   3.2%
  ----------------------------------------------------------------------------


  Excited state 5 (singlet, B2)                                    [converged]
  ----------------------------------------------------------------------------
  Term symbol:  5 (1) B2                                    R^2 =  6.12218e-09

  Total energy:                                            -78.6386205450 a.u.
  Excitation energy:                                               3.950508 eV

  Osc. strength:                                                      0.000000
  Trans. dip. moment [a.u.]:           [  -0.000000,   -0.000971,    0.000000]
  <i|r^2|0> [a.u.]:                    [   0.000000,    0.000000,   -0.000000]

  Dip. moment [a.u.]:                  [  -0.000000,    0.000001,   20.571502]
  Total dipole [Debye]:                                              52.287551
  <r^2> [a.u.]:                        [ 127.672808,  105.015739,   93.931331]
  Total <r^2> [a.u.]:                                               326.619878

  V1^2 = 0.0233, V2^2 = 0.9767

  Important amplitudes:
      occ i      occ j       vir a       vir b          v   
    ---------------------------------------------------------
     5 (A1) A   5 (A1) B    7 (A1) A    2 (B2) B     -0.3350
     5 (A1) A               2 (B2) A                  0.1077
    ---------------------------------------------------------

  Density matrix analysis:
  ------------------------
  NOs
    Occupation of frontier NOs:
       1.0000   1.0026
    Number of electrons: 18.000000
    Number of unpaired electrons: n_u =  2.40329, n_u,nl =  2.05046
    NO participation ratio (PR_NO):  2.876574
  
  
  Mulliken Population Analysis
  Atom      Charge (e)              h+              e-           Del q
  --------------------------------------------------------------------
   1 C       -1.134462        0.002798       -0.972546       -0.969748
   2 C       -1.134462        0.002798       -0.972546       -0.969748
   3 H        0.069656        0.000060       -0.009843       -0.009783
   4 H        0.069659        0.000060       -0.009843       -0.009783
   5 H        0.069657        0.000060       -0.009843       -0.009783
   6 H        0.069653        0.000060       -0.009843       -0.009783
   7 H        0.990299        1.979054       -0.000428        1.978626
  --------------------------------------------------------------------
  Sum:       -1.000000        1.984891       -1.984891       -0.000000
  
  Multipole moment analysis of the density matrix
    Molecular charge:                      -1.000000
    Number of electrons:                   18.000000
      Center of electronic charge [Ang]: [  0.000000,  -0.000000,  -0.604776]
    Total nuclear charge:                  17.000000
      Center of nuclear charge [Ang]:    [  0.000000,  -0.000000,  -0.000000]
    Dipole moment [D]:                     52.287536
      Cartesian components [D]:          [ -0.000000,   0.000003,  52.287536]
    RMS size of the density [Ang]:         2.171524
      Cartesian components [Ang]:        [  1.409334,   1.278180,   1.046684]
  
  Exciton analysis of the difference density matrix
    <r_h> [Ang]:                  [ -0.000000,  -0.000000,  10.215996]
    <r_e> [Ang]:                  [  0.000000,  -0.000000,  -0.360661]
    |<r_e - r_h>| [Ang]:           10.576658
    Hole size [Ang]:                1.288208
      Cartesian components [Ang]: [  0.667013,   0.652532,   0.888130]
    Electron size [Ang]:            5.522836
      Cartesian components [Ang]: [  3.356157,   3.416915,   2.750021]

  Transition density matrix analysis:
  -----------------------------------
  
  CT numbers (Mulliken)
    omega =     0.0232
    <Phe> =     0.0030
  
  Exciton analysis of the transition density matrix
    Trans. dipole moment [D]:             0.001234
      Cartesian components [D]:         [ -0.000000,  -0.001234,   0.000000]
    <r_h> [Ang]:                        [ -0.000000,  -0.000000,  10.245405]
    <r_e> [Ang]:                        [  0.000000,  -0.000000,  -0.640392]
    |<r_e - r_h>| [Ang]:                 10.885796
    Hole size [Ang]:                      1.090939
      Cartesian components [Ang]:       [  0.622977,   0.622919,   0.643443]
    Electron size [Ang]:                  5.544917
      Cartesian components [Ang]:       [  2.521069,   4.280122,   2.463913]
    RMS electron-hole separation [Ang]:  12.265323
      Cartesian components [Ang]:       [  2.596889,   4.325222,  11.179749]
    Covariance(r_h, r_e) [Ang^2]:        -0.000671
    Correlation coefficient:             -0.000111
    Center-of-mass size [Ang]:            2.825549
      Cartesian components [Ang]:       [  1.298455,   2.162602,   1.273142]

  Decomposition into state-averaged NTOs
    H- 0 -> L+ 0: -0.1075 (  2.3%)
                   omega =   2.3%
  ----------------------------------------------------------------------------


  Excited state 6 (singlet, B2)                                    [converged]
  ----------------------------------------------------------------------------
  Term symbol:  6 (1) B2                                    R^2 =  2.40667e-07

  Total energy:                                            -78.6272397285 a.u.
  Excitation energy:                                               4.260195 eV

  Osc. strength:                                                      0.000000
  Trans. dip. moment [a.u.]:           [   0.000000,    0.000045,    0.000000]
  <i|r^2|0> [a.u.]:                    [   0.000000,   -0.000000,   -0.000000]

  Dip. moment [a.u.]:                  [  -0.000000,    0.000001,   18.851306]
  Total dipole [Debye]:                                              47.915249
  <r^2> [a.u.]:                        [ 162.328899,   98.640976,   99.143471]
  Total <r^2> [a.u.]:                                               360.113346

  V1^2 = 0.0001, V2^2 = 0.9999

  Important amplitudes:
      occ i      occ j       vir a       vir b          v   
    ---------------------------------------------------------
     5 (A1) A   5 (A1) B    2 (A2) A    4 (B1) B     -0.3535
     5 (A1) A               2 (B2) A                  0.0057
    ---------------------------------------------------------

  Density matrix analysis:
  ------------------------
  NOs
    Occupation of frontier NOs:
       0.9999   1.0002
    Number of electrons: 18.000000
    Number of unpaired electrons: n_u =  2.40795, n_u,nl =  2.05100
    NO participation ratio (PR_NO):  2.881077
  
  
  Mulliken Population Analysis
  Atom      Charge (e)              h+              e-           Del q
  --------------------------------------------------------------------
   1 C       -1.146689        0.004570       -0.986546       -0.981975
   2 C       -1.146689        0.004570       -0.986546       -0.981975
   3 H        0.072731        0.000001       -0.006708       -0.006707
   4 H        0.072734        0.000001       -0.006708       -0.006707
   5 H        0.072732        0.000001       -0.006708       -0.006707
   6 H        0.072729        0.000001       -0.006708       -0.006707
   7 H        1.002452        1.990781       -0.000002        1.990779
  --------------------------------------------------------------------
  Sum:       -1.000000        1.999924       -1.999924        0.000000
  
  Multipole moment analysis of the density matrix
    Molecular charge:                      -1.000000
    Number of electrons:                   18.000000
      Center of electronic charge [Ang]: [  0.000000,  -0.000000,  -0.554205]
    Total nuclear charge:                  17.000000
      Center of nuclear charge [Ang]:    [  0.000000,  -0.000000,  -0.000000]
    Dipole moment [D]:                     47.915235
      Cartesian components [D]:          [ -0.000000,   0.000002,  47.915235]
    RMS size of the density [Ang]:         2.301128
      Cartesian components [Ang]:        [  1.589142,   1.238778,   1.111416]
  
  Exciton analysis of the difference density matrix
    <r_h> [Ang]:                  [  0.000000,  -0.000000,  10.202066]
    <r_e> [Ang]:                  [ -0.000000,  -0.000000,   0.160075]
    |<r_e - r_h>| [Ang]:           10.041991
    Hole size [Ang]:                1.353450
      Cartesian components [Ang]: [  0.661405,   0.660199,   0.979033]
    Electron size [Ang]:            5.979178
      Cartesian components [Ang]: [  4.003441,   3.272342,   3.002466]

  Transition density matrix analysis:
  -----------------------------------
  
  CT numbers (Mulliken)
    omega =     0.0001
    <Phe> =     0.0033
  
  Exciton analysis of the transition density matrix
    Trans. dipole moment [D]:             0.000058
      Cartesian components [D]:         [  0.000000,   0.000058,   0.000000]
    <r_h> [Ang]:                        [ -0.000000,  -0.000000,  10.185471]
    <r_e> [Ang]:                        [  0.000000,  -0.000000,  -0.640299]
    |<r_e - r_h>| [Ang]:                 10.825771
    Hole size [Ang]:                      1.431446
      Cartesian components [Ang]:       [  0.677600,   0.660235,   1.074237]
    Electron size [Ang]:                  5.944058
      Cartesian components [Ang]:       [  2.679536,   4.595388,   2.652229]
    RMS electron-hole separation [Ang]:  12.436849
      Cartesian components [Ang]:       [  2.780785,   4.642578,  11.197720]
    Covariance(r_h, r_e) [Ang^2]:        -0.048525
    Correlation coefficient:             -0.005703
    Center-of-mass size [Ang]:            3.053024
      Cartesian components [Ang]:       [  1.373440,   2.321286,   1.430472]

  Decomposition into state-averaged NTOs
                   omega =   0.0%
  ----------------------------------------------------------------------------


  Excited state 7 (singlet, B2)                                    [converged]
  ----------------------------------------------------------------------------
  Term symbol:  7 (1) B2                                    R^2 =  1.51202e-08

  Total energy:                                            -78.6039362436 a.u.
  Excitation energy:                                               4.894315 eV

  Osc. strength:                                                      0.000000
  Trans. dip. moment [a.u.]:           [  -0.000000,    0.000801,    0.000000]
  <i|r^2|0> [a.u.]:                    [   0.000000,    0.000000,   -0.000000]

  Dip. moment [a.u.]:                  [  -0.000000,    0.000001,   21.556915]
  Total dipole [Debye]:                                              54.792222
  <r^2> [a.u.]:                        [  96.082702,   93.531252,   69.014031]
  Total <r^2> [a.u.]:                                               258.627984

  V1^2 = 0.0007, V2^2 = 0.9993

  Important amplitudes:
      occ i      occ j       vir a       vir b          v   
    ---------------------------------------------------------
     5 (A1) A   5 (A1) B    8 (A1) A    2 (B2) B     -0.3534
     5 (A1) A               2 (B2) A                  0.0180
    ---------------------------------------------------------

  Density matrix analysis:
  ------------------------
  NOs
    Occupation of frontier NOs:
       1.0003   1.0024
    Number of electrons: 18.000000
    Number of unpaired electrons: n_u =  2.40294, n_u,nl =  2.05089
    NO participation ratio (PR_NO):  2.875831
  
  
  Mulliken Population Analysis
  Atom      Charge (e)              h+              e-           Del q
  --------------------------------------------------------------------
   1 C       -1.246037        0.004510       -1.085833       -1.081323
   2 C       -1.246037        0.004510       -1.085833       -1.081323
   3 H        0.122453       -0.000005        0.043020        0.043014
   4 H        0.122456       -0.000005        0.043020        0.043014
   5 H        0.122453       -0.000005        0.043020        0.043014
   6 H        0.122450       -0.000005        0.043020        0.043014
   7 H        1.002262        1.990601       -0.000011        1.990589
  --------------------------------------------------------------------
  Sum:       -1.000000        1.999600       -1.999600       -0.000000
  
  Multipole moment analysis of the density matrix
    Molecular charge:                      -1.000000
    Number of electrons:                   18.000000
      Center of electronic charge [Ang]: [  0.000000,  -0.000000,  -0.633746]
    Total nuclear charge:                  17.000000
      Center of nuclear charge [Ang]:    [  0.000000,  -0.000000,  -0.000000]
    Dipole moment [D]:                     54.792206
      Cartesian components [D]:          [ -0.000000,   0.000002,  54.792206]
    RMS size of the density [Ang]:         1.903123
      Cartesian components [Ang]:        [  1.222609,   1.206266,   0.819772]
  
  Exciton analysis of the difference density matrix
    <r_h> [Ang]:                  [  0.000000,  -0.000000,  10.201675]
    <r_e> [Ang]:                  [  0.000000,  -0.000000,  -0.557964]
    |<r_e - r_h>| [Ang]:           10.759639
    Hole size [Ang]:                1.358010
      Cartesian components [Ang]: [  0.661117,   0.659540,   0.985963]
    Electron size [Ang]:            4.609297
      Cartesian components [Ang]: [  2.598543,   3.161240,   2.121262]

  Transition density matrix analysis:
  -----------------------------------
  
  CT numbers (Mulliken)
    omega =     0.0006
    <Phe> =     0.0030
  
  Exciton analysis of the transition density matrix
    Trans. dipole moment [D]:             0.001018
      Cartesian components [D]:         [ -0.000000,   0.001018,   0.000000]
    <r_h> [Ang]:                        [ -0.000000,  -0.000000,  10.245406]
    <r_e> [Ang]:                        [  0.000000,  -0.000000,  -0.640382]
    |<r_e - r_h>| [Ang]:                 10.885788
    Hole size [Ang]:                      1.085309
      Cartesian components [Ang]:       [  0.617343,   0.618153,   0.643948]
    Electron size [Ang]:                  5.475784
      Cartesian components [Ang]:       [  2.495168,   4.225039,   2.430514]
    RMS electron-hole separation [Ang]:  12.233787
      Cartesian components [Ang]:       [  2.570399,   4.270124,  11.172495]
    Covariance(r_h, r_e) [Ang^2]:        -0.001524
    Correlation coefficient:             -0.000256
    Center-of-mass size [Ang]:            2.791015
      Cartesian components [Ang]:       [  1.285204,   2.134958,   1.256969]

  Decomposition into state-averaged NTOs
                   omega =   0.1%
  ----------------------------------------------------------------------------


  Excited state 8 (singlet, B2)                                [not converged]
  ----------------------------------------------------------------------------
  Term symbol:  8 (1) B2                                    R^2 =  4.41442e-02

  Total energy:                                            -78.5739479063 a.u.
  Excitation energy:                                               5.710340 eV



  V1^2 = 0.0000, V2^2 = 1.0000

  Important amplitudes:
      occ i      occ j       vir a       vir b          v   
    ---------------------------------------------------------
     5 (A1) A   5 (A1) B    2 (A2) A    5 (B1) B      0.3529
     5 (A1) A   5 (A1) B    9 (A1) A    3 (B2) B     -0.0134
    ---------------------------------------------------------
  ----------------------------------------------------------------------------


  Excited state 9 (singlet, B2)                                    [converged]
  ----------------------------------------------------------------------------
  Term symbol:  9 (1) B2                                    R^2 =  3.27988e-07

  Total energy:                                            -78.5610578941 a.u.
  Excitation energy:                                               6.061095 eV

  Osc. strength:                                                      0.000000
  Trans. dip. moment [a.u.]:           [   0.000000,    0.000066,   -0.000000]
  <i|r^2|0> [a.u.]:                    [  -0.000000,   -0.000000,   -0.000000]

  Dip. moment [a.u.]:                  [  -0.000000,    0.000001,   20.228183]
  Total dipole [Debye]:                                              51.414922
  <r^2> [a.u.]:                        [ 132.313860,   88.459256,   71.936612]
  Total <r^2> [a.u.]:                                               292.709729

  V1^2 = 0.0000, V2^2 = 1.0000

  Important amplitudes:
      occ i      occ j       vir a       vir b          v   
    ---------------------------------------------------------
     5 (A1) A   5 (A1) B    2 (A2) A    6 (B1) B     -0.3536
     5 (A1) A   5 (A1) B    6 (A1) A    3 (B2) B     -0.0005
    ---------------------------------------------------------

  Density matrix analysis:
  ------------------------
  NOs
    Occupation of frontier NOs:
       1.0001   1.0153
    Number of electrons: 18.000000
    Number of unpaired electrons: n_u =  2.37770, n_u,nl =  2.04650
    NO participation ratio (PR_NO):  2.852877
  
  
  Mulliken Population Analysis
  Atom      Charge (e)              h+              e-           Del q
  --------------------------------------------------------------------
   1 C       -1.130368        0.004575       -0.970230       -0.965654
   2 C       -1.130368        0.004575       -0.970230       -0.965654
   3 H        0.064554        0.000001       -0.014885       -0.014884
   4 H        0.064557        0.000001       -0.014885       -0.014884
   5 H        0.064555        0.000001       -0.014885       -0.014884
   6 H        0.064552        0.000001       -0.014885       -0.014884
   7 H        1.002519        1.990846       -0.000000        1.990846
  --------------------------------------------------------------------
  Sum:       -1.000000        2.000000       -2.000000       -0.000000
  
  Multipole moment analysis of the density matrix
    Molecular charge:                      -1.000000
    Number of electrons:                   18.000000
      Center of electronic charge [Ang]: [  0.000000,  -0.000000,  -0.594683]
    Total nuclear charge:                  17.000000
      Center of nuclear charge [Ang]:    [  0.000000,  -0.000000,  -0.000000]
    Dipole moment [D]:                     51.414907
      Cartesian components [D]:          [ -0.000000,   0.000001,  51.414907]
    RMS size of the density [Ang]:         2.049409
      Cartesian components [Ang]:        [  1.434721,   1.173104,   0.874917]
  
  Exciton analysis of the difference density matrix
    <r_h> [Ang]:                  [  0.000000,  -0.000000,  10.202019]
    <r_e> [Ang]:                  [ -0.000000,   0.000000,  -0.203902]
    |<r_e - r_h>| [Ang]:           10.405920
    Hole size [Ang]:                1.353685
      Cartesian components [Ang]: [  0.661429,   0.660219,   0.979330]
    Electron size [Ang]:            5.128299
      Cartesian components [Ang]: [  3.438671,   3.046682,   2.278754]

  Transition density matrix analysis:
  -----------------------------------
  
  CT numbers (Mulliken)
    omega =     0.0000
    <Phe> =     0.0055
  
  Exciton analysis of the transition density matrix
    ... vanishing.

  Decomposition into state-averaged NTOs
                   omega =   0.0%
  ----------------------------------------------------------------------------


  Excited state 10 (singlet, B2)                                    [converged]
  ----------------------------------------------------------------------------
  Term symbol:  10 (1) B2                                   R^2 =  2.41172e-07

  Total energy:                                            -78.5474841899 a.u.
  Excitation energy:                                               6.430454 eV

  Osc. strength:                                                      0.000000
  Trans. dip. moment [a.u.]:           [  -0.000000,   -0.000129,   -0.000000]
  <i|r^2|0> [a.u.]:                    [  -0.000000,   -0.000000,   -0.000000]

  Dip. moment [a.u.]:                  [  -0.000000,    0.000002,   25.087953]
  Total dipole [Debye]:                                              63.767228
  <r^2> [a.u.]:                        [ 152.251662,   78.977781,   85.405991]
  Total <r^2> [a.u.]:                                               316.635434

  V1^2 = 0.0000, V2^2 = 1.0000

  Important amplitudes:
      occ i      occ j       vir a       vir b          v   
    ---------------------------------------------------------
     5 (A1) A   5 (A1) B    3 (A2) A    3 (B1) B     -0.3535
     5 (A1) A   5 (A1) B    6 (A1) A    3 (B2) B     -0.0042
    ---------------------------------------------------------

  Density matrix analysis:
  ------------------------
  NOs
    Occupation of frontier NOs:
       1.0000   1.0013
    Number of electrons: 18.000000
    Number of unpaired electrons: n_u =  2.40578, n_u,nl =  2.05098
    NO participation ratio (PR_NO):  2.878633
  
  
  Mulliken Population Analysis
  Atom      Charge (e)              h+              e-           Del q
  --------------------------------------------------------------------
   1 C       -1.307785        0.004575       -1.147646       -1.143071
   2 C       -1.307785        0.004575       -1.147646       -1.143071
   3 H        0.153263        0.000001        0.073823        0.073824
   4 H        0.153265        0.000001        0.073823        0.073824
   5 H        0.153263        0.000001        0.073823        0.073824
   6 H        0.153260        0.000001        0.073823        0.073824
   7 H        1.002519        1.990847       -0.000000        1.990846
  --------------------------------------------------------------------
  Sum:       -1.000000        1.999999       -1.999999        0.000000
  
  Multipole moment analysis of the density matrix
    Molecular charge:                      -1.000000
    Number of electrons:                   18.000000
      Center of electronic charge [Ang]: [  0.000000,  -0.000000,  -0.737554]
    Total nuclear charge:                  17.000000
      Center of nuclear charge [Ang]:    [  0.000000,  -0.000000,  -0.000000]
    Dipole moment [D]:                     63.767209
      Cartesian components [D]:          [ -0.000000,   0.000005,  63.767209]
    RMS size of the density [Ang]:         2.093312
      Cartesian components [Ang]:        [  1.539026,   1.108453,   0.885825]
  
  Exciton analysis of the difference density matrix
    <r_h> [Ang]:                  [  0.000000,  -0.000000,  10.202023]
    <r_e> [Ang]:                  [  0.000000,  -0.000000,  -1.489737]
    |<r_e - r_h>| [Ang]:           11.691761
    Hole size [Ang]:                1.353662
      Cartesian components [Ang]: [  0.661427,   0.660217,   0.979300]
    Electron size [Ang]:            5.241343
      Cartesian components [Ang]: [  3.823092,   2.820413,   2.213801]

  Transition density matrix analysis:
  -----------------------------------
  
  CT numbers (Mulliken)
    omega =     0.0000
    <Phe> =     0.0117
  
  Exciton analysis of the transition density matrix
    ... vanishing.

  Decomposition into state-averaged NTOs
                   omega =   0.0%
  ----------------------------------------------------------------------------


--------------------------------------------------------------------------------
  Time of ADC calculation:  CPU 4266.53 s  wall 849.33 s
================================================================================
 
 --------------------------------------------------------------
             Orbital Energies (a.u.) and Symmetries
 --------------------------------------------------------------
 
 Alpha MOs, Restricted
 -- Occupied --                  
-11.188 -11.187  -0.993  -0.733  -0.612  -0.518  -0.467  -0.328
  1 A1    1 B1    2 A1    2 B1    1 B2    3 A1    1 A2    4 A1                 
  0.020
  5 A1                                                                         
 -- Virtual --                   
  0.074   0.081   0.090   0.094   0.103   0.104   0.140   0.156
  3 B1    2 B2    6 A1    2 A2    7 A1    4 B1    8 A1    5 B1                 
  0.170   0.186   0.203   0.211   0.231   0.288   0.315   0.337
  6 B1    3 B2    3 A2    9 A1   10 A1    7 B1   11 A1    8 B1                 
  0.380   0.395   0.480   0.560   0.704   0.786   0.880   0.908
  4 B2    9 B1    4 A2   10 B1   12 A1    5 B2   13 A1   14 A1                 
  0.943   0.950   0.977   1.048   1.055   1.071   1.074   1.163
 11 B1    6 B2   12 B1   13 B1   15 A1   16 A1    5 A2    7 B2                 
  1.332   1.333   1.347   1.396   1.653   1.664   1.742   1.892
 17 A1    6 A2   14 B1    7 A2   18 A1    8 A2    8 B2   15 B1                 
  1.964   1.964   1.964   1.969   1.985   2.014   2.066   2.076
 16 B1    9 B2   19 A1   17 B1   20 A1   21 A1   10 B2   11 B2                 
  2.218   2.316   2.461   2.486   2.581   2.622   2.847   2.850
 18 B1   19 B1    9 A2   22 A1   10 A2   20 B1   23 A1   12 B2                 
  3.304   3.388
 21 B1   11 A2                                                                 
 
 Beta MOs, Restricted
 -- Occupied --                  
-11.188 -11.187  -0.993  -0.733  -0.612  -0.518  -0.467  -0.328
  1 A1    1 B1    2 A1    2 B1    1 B2    3 A1    1 A2    4 A1                 
  0.020
  5 A1                                                                         
 -- Virtual --                   
  0.074   0.081   0.090   0.094   0.103   0.104   0.140   0.156
  3 B1    2 B2    6 A1    2 A2    7 A1    4 B1    8 A1    5 B1                 
  0.170   0.186   0.203   0.211   0.231   0.288   0.315   0.337
  6 B1    3 B2    3 A2    9 A1   10 A1    7 B1   11 A1    8 B1                 
  0.380   0.395   0.480   0.560   0.704   0.786   0.880   0.908
  4 B2    9 B1    4 A2   10 B1   12 A1    5 B2   13 A1   14 A1                 
  0.943   0.950   0.977   1.048   1.055   1.071   1.074   1.163
 11 B1    6 B2   12 B1   13 B1   15 A1   16 A1    5 A2    7 B2                 
  1.332   1.333   1.347   1.396   1.653   1.664   1.742   1.892
 17 A1    6 A2   14 B1    7 A2   18 A1    8 A2    8 B2   15 B1                 
  1.964   1.964   1.964   1.969   1.985   2.014   2.066   2.076
 16 B1    9 B2   19 A1   17 B1   20 A1   21 A1   10 B2   11 B2                 
  2.218   2.316   2.461   2.486   2.581   2.622   2.847   2.850
 18 B1   19 B1    9 A2   22 A1   10 A2   20 B1   23 A1   12 B2                 
  3.304   3.388
 21 B1   11 A2                                                                 
 --------------------------------------------------------------
 
          Ground-State Mulliken Net Atomic Charges

     Atom                 Charge (a.u.)
  ----------------------------------------
      1 C                    -0.149904
      2 C                    -0.149904
      3 H                     0.072663
      4 H                     0.072666
      5 H                     0.072664
      6 H                     0.072661
      7 H                    -0.990847
  ----------------------------------------
  Sum of atomic charges =    -1.000000

 -----------------------------------------------------------------
                    Cartesian Multipole Moments
 -----------------------------------------------------------------
    Charge (ESU x 10^10)
                -4.8032
    Dipole Moment (Debye)
         X      -0.0000      Y       0.0000      Z     -48.6728
       Tot      48.6728
    Quadrupole Moments (Debye-Ang)
        XX     -17.1630     XY       0.0000     YY     -16.1575
        XZ       0.0000     YZ      -0.0000     ZZ    -520.9434
    Octopole Moments (Debye-Ang^2)
       XXX      -0.0000    XXY       0.0000    XYY      -0.0000
       YYY       0.0000    XXZ     -31.6164    XYZ      -0.0000
       YYZ     -32.4907    XZZ      -0.0000    YZZ       0.0000
       ZZZ   -5211.3464
    Hexadecapole Moments (Debye-Ang^3)
      XXXX     -78.9796   XXXY       0.0000   XXYY     -16.6765
      XYYY       0.0000   YYYY     -36.8053   XXXZ       0.0000
      XXYZ      -0.0000   XYYZ       0.0000   YYYZ      -0.0000
      XXZZ    -440.6750   XYZZ       0.0000   YYZZ    -433.1670
      XZZZ       0.0000   YZZZ      -0.0000   ZZZZ  -55057.7790
 -----------------------------------------------------------------
 Total job time:  932.14s(wall), 4311.52s(cpu) 
 Sat Mar 26 02:32:02 2022

        *************************************************************
        *                                                           *
        *  Thank you very much for using Q-Chem.  Have a nice day.  *
        *                                                           *
        *************************************************************


