                  Welcome to Q-Chem
     A Quantum Leap Into The Future Of Chemistry


 Q-Chem 5.4 (devel), Q-Chem, Inc., Pleasanton, CA (2021)

 E. Epifanovsky,  A. T. B. Gilbert,  Xintian Feng,  Joonho Lee,  Yuezhi Mao,  
 N. Mardirossian,  P. Pokhilko,  A. White,  M. Wormit,  M. P. Coons,  
 A. L. Dempwolff,  Zhengting Gan,  D. Hait,  P. R. Horn,  L. D. Jacobson,  
 I. Kaliman,  J. Kussmann,  A. W. Lange,  Ka Un Lao,  D. S. Levine,  Jie Liu,  
 S. C. McKenzie,  A. F. Morrison,  K. Nanda,  F. Plasser,  D. R. Rehn,  
 M. L. Vidal,  Zhi-Qiang You,  Ying Zhu,  B. Alam,  B. Albrecht,  
 A. Aldossary,  E. Alguire,  J. H. Andersen,  D. Barton,  K. Begam,  A. Behn,  
 Y. A. Bernard,  E. J. Berquist,  H. Burton,  A. Carreras,  K. Carter-Fenk,  
 R. Chakraborty,  A. D. Chien,  K. D. Closser,  V. Cofer-Shabica,  
 S. Dasgupta,  Jia Deng,  M. de Wergifosse,  M. Diedenhofen,  Hainam Do,  
 S. Ehlert,  Po-Tung Fang,  S. Fatehi,  Qingguo Feng,  T. Friedhoff,  
 J. Gayvert,  Qinghui Ge,  G. Gidofalvi,  M. Goldey,  J. Gomes,  
 C. Gonzalez-Espinoza,  S. Gulania,  A. Gunina,  M. W. D. Hanson-Heine,  
 P. H. P. Harbach,  A. W. Hauser,  M. F. Herbst,  M. Hernandez Vera,  
 M. Hodecker,  Z. C. Holden,  S. Houck,  Xunkun Huang,  Kerwin Hui,  
 B. C. Huynh,  M. Ivanov,  Hyunjun Ji,  Hanjie Jiang,  B. Kaduk,  S. Kaehler,  
 K. Khistyaev,  Jaehoon Kim,  P. Klunzinger,  Z. Koczor-Benda,  
 Joong Hoon Koh,  D. Kosenkov,  L. Koulias,  T. Kowalczyk,  C. M. Krauter,  
 K. Kue,  A. Kunitsa,  T. Kus,  A. Landau,  K. V. Lawler,  D. Lefrancois,  
 S. Lehtola,  Rain Li,  Yi-Pei Li,  Jiashu Liang,  M. Liebenthal,  
 Hung-Hsuan Lin,  You-Sheng Lin,  Fenglai Liu,  Kuan-Yu Liu,  
 M. Loipersberger,  A. Luenser,  A. Manjanath,  P. Manohar,  E. Mansoor,  
 S. F. Manzer,  Shan-Ping Mao,  A. V. Marenich,  T. Markovich,  S. Mason,  
 S. A. Maurer,  P. F. McLaughlin,  M. F. S. J. Menger,  J.-M. Mewes,  
 S. A. Mewes,  P. Morgante,  J. W. Mullinax,  K. J. Oosterbaan,  G. Paran,  
 Alexander C. Paul,  Suranjan K. Paul,  F. Pavosevic,  Zheng Pei,  S. Prager,  
 E. I. Proynov,  E. Ramos,  B. Rana,  A. E. Rask,  A. Rettig,  R. M. Richard,  
 F. Rob,  E. Rossomme,  T. Scheele,  M. Scheurer,  M. Schneider,  
 N. Sergueev,  S. M. Sharada,  W. Skomorowski,  D. W. Small,  C. J. Stein,  
 Yu-Chuan Su,  E. J. Sundstrom,  Zhen Tao,  J. Thirman,  T. Tsuchimochi,  
 N. M. Tubman,  S. P. Veccham,  O. Vydrov,  J. Wenzel,  J. Witte,  A. Yamada,  
 Kun Yao,  S. Yeganeh,  S. R. Yost,  A. Zech,  Igor Ying Zhang,  Xing Zhang,  
 Yu Zhang,  D. Zuev,  A. Aspuru-Guzik,  A. T. Bell,  N. A. Besley,  
 K. B. Bravaya,  B. R. Brooks,  D. Casanova,  Jeng-Da Chai,  S. Coriani,  
 C. J. Cramer,  A. E. DePrince, III,  R. A. DiStasio Jr.,  A. Dreuw,  
 B. D. Dunietz,  T. R. Furlani,  W. A. Goddard III,  S. Grimme,  
 S. Hammes-Schiffer,  T. Head-Gordon,  W. J. Hehre,  Chao-Ping Hsu,  
 T.-C. Jagau,  Yousung Jung,  A. Klamt,  Jing Kong,  D. S. Lambrecht,  
 WanZhen Liang,  N. J. Mayhall,  C. W. McCurdy,  J. B. Neaton,  
 C. Ochsenfeld,  J. A. Parkhill,  R. Peverati,  V. A. Rassolov,  Yihan Shao,  
 L. V. Slipchenko,  T. Stauch,  R. P. Steele,  J. E. Subotnik,  
 A. J. W. Thom,  A. Tkatchenko,  D. G. Truhlar,  T. Van Voorhis,  
 T. A. Wesolowski,  K. B. Whaley,  H. L. Woodcock III,  P. M. Zimmerman,  
 S. Faraji,  P. M. W. Gill,  M. Head-Gordon,  J. M. Herbert,  A. I. Krylov

 Additional authors for Version 5.4.1: 
 S. Kotaru,  Shaozhi Li,  Xiangyuan Li,  F. Matz,  A. Molle,  Haisheng Ren,  
 Yingli Su,  Hung-Yi Tsai,  C. Utku,  Fang Wang

 Contributors to earlier versions of Q-Chem not listed above: 
 R. D. Adamson,  B. Austin,  R. Baer,  J. Baker,  G. J. O. Beran,  
 K. Brandhorst,  S. T. Brown,  E. F. C. Byrd,  A. K. Chakraborty,  
 G. K. L. Chan,  Chun-Min Chang,  Yunqing Chen,  C.-L. Cheng,  
 Siu Hung Chien,  D. M. Chipman,  D. L. Crittenden,  H. Dachsel,  
 R. J. Doerksen,  A. D. Dutoi,  R. G. Edgar,  J. Fosso-Tande,  
 L. Fusti-Molnar,  D. Ghosh,  A. Ghysels,  A. Golubeva-Zadorozhnaya,  
 J. Gonthier,  M. S. Gordon,  S. R. Gwaltney,  G. Hawkins,  J. E. Herr,  
 A. Heyden,  S. Hirata,  E. G. Hohenstein,  G. Kedziora,  F. J. Keil,  
 C. Kelley,  Jihan Kim,  R. A. King,  R. Z. Khaliullin,  P. P. Korambath,  
 W. Kurlancheek,  A. Laurent,  A. M. Lee,  M. S. Lee,  S. V. Levchenko,  
 Ching Yeh Lin,  D. Liotard,  E. Livshits,  R. C. Lochan,  I. Lotan,  
 L. A. Martinez-Martinez,  P. E. Maslen,  N. Nair,  D. P. O'Neill,  
 D. Neuhauser,  E. Neuscamman,  C. M. Oana,  R. Olivares-Amaya,  R. Olson,  
 T. M. Perrine,  B. Peters,  P. A. Pieniazek,  A. Prociuk,  Y. M. Rhee,  
 J. Ritchie,  M. A. Rohrdanz,  E. Rosta,  N. J. Russ,  H. F. Schaefer III,  
 M. W. Schmidt,  N. E. Schultz,  S. Sharma,  N. Shenvi,  C. D. Sherrill,  
 A. C. Simmonett,  A. Sodt,  T. Stein,  D. Stuck,  K. S. Thanthiriwatte,  
 V. Vanovschi,  L. Vogt,  Tao Wang,  A. Warshel,  M. A. Watson,  
 C. F. Williams,  Q. Wu,  X. Xu,  Jun Yang,  W. Zhang,  Yan Zhao

 Please cite Q-Chem as follows:
 Y. Shao et al., Mol. Phys. 113, 184-215 (2015)
 DOI: 10.1080/00268976.2014.952696

 Q-Chem 5.4.1 for Intel X86 EM64T Linux

 Parts of Q-Chem use Armadillo 9.900.5 (Nocturnal Misbehaviour).
 http://arma.sourceforge.net/

 Q-Chem begins on Wed Apr  6 18:36:50 2022  

 Host: node01
0

     Scratch files written to /src/jdavis/qchem.scratch/qchem29750//
 Processing $rem in /src/tsommerfeld/qchem/config/preferences:
 Processing $rem in /home/jdavis/.qchemrc:

 Checking the input file for inconsistencies... 	...done.

--------------------------------------------------------------
User input:
--------------------------------------------------------------
$comment
	Ethylene CAP-ADC(2)
	Basis: C: jun-TZ+4p1d, H: TZ
$end

$molecule
0 1
C       0.6645000000    -0.0000000000    -0.0000000000
C      -0.6645000000     0.0000000000     0.0000000000
H       1.1590799571     0.9623485159     0.0000000000
H       1.1590799571    -0.9623485159    -0.0000000000
H      -1.1590799571    -0.9623485159    -0.0000000000
H      -1.1590799571     0.9623485159     0.0000000000
$end

$rem
	basis gen
	method adc(2)
        EA_STATES [0,0,10,0,0,0,0,0]
	scf_convergence 8
	thresh 14
	adc_cap 1
	cap_type 2
	cap_x 1500
	cap_x_end 5000
	cap_x_step 500
	xc_grid 000250000974
	adc_print 3
	adc_davidson_conv 5
	adc_nguess_singles 100
	adc_nguess_doubles 50
	adc_davidson_maxsubspace 400
	adc_davidson_maxiter 40
	adc_davidson_thresh 14
	mem_total 95000
	threads 12
$end

$basis
H     0
S    1   1.00
      3.258000D-01           1.000000D+00
S    5   1.00
      3.387000D+01           6.068000D-03
      5.095000D+00           4.530800D-02
      1.159000D+00           2.028220D-01
      3.258000D-01           5.039030D-01
      1.027000D-01           3.834210D-01
S    1   1.00
      1.027000D-01           1.000000D+00
P    1   1.00
      1.407000D+00           1.000000D+00
P    1   1.00
      3.880000D-01           1.000000D+00
D    1   1.00
      1.057000D+00           1.0000000
****
C     0
S    8   1.00
   8236.0000000              0.0005310
   1235.0000000              0.0041080
    280.8000000              0.0210870
     79.2700000              0.0818530
     25.5900000              0.2348170
      8.9970000              0.4344010
      3.3190000              0.3461290
      0.3643000             -0.0089830
S    1   1.00
      0.9059000              1.0000000
S    8   1.00
   8236.0000000             -0.0001130
   1235.0000000             -0.0008780
    280.8000000             -0.0045400
     79.2700000             -0.0181330
     25.5900000             -0.0557600
      8.9970000             -0.1268950
      3.3190000             -0.1703520
      0.3643000              0.5986840
S    1   1.00
      0.1285000              1.0000000
S    1   1.00
      0.0440200              1.0000000
P    3   1.00
     18.7100000              0.0140310
      4.1330000              0.0868660
      1.2000000              0.2902160
P    1   1.00
      0.3827000              1.0000000
P    1   1.00
      0.1209000              1.0000000
P    1   1.00
      0.0356900              1.0000000
P    1   1.0
      0.0237933 1.0
P    1   1.0
      0.0158622 1.0
P    1   1.0
      0.0105748 1.0
P    1   1.0
      0.0070498 1.0
D    1   1.00
      1.0970000              1.0000000
D    1   1.00
      0.3180000              1.0000000
D    1   1.00
      0.1000000              1.0000000
D    1   1.00
      0.0500000 1.0
F    1   1.00
      0.7610000              1.0000000
****
$end
--------------------------------------------------------------
 ----------------------------------------------------------------
             Standard Nuclear Orientation (Angstroms)
    I     Atom           X                Y                Z
 ----------------------------------------------------------------
    1      C       0.6645000000     0.0000000000    -0.0000000000
    2      C      -0.6645000000    -0.0000000000     0.0000000000
    3      H       1.1590799571     0.9623485159    -0.0000000000
    4      H       1.1590799571    -0.9623485159    -0.0000000000
    5      H      -1.1590799571    -0.9623485159     0.0000000000
    6      H      -1.1590799571     0.9623485159     0.0000000000
 ----------------------------------------------------------------
 Molecular Point Group                 D2h   NOp =  8
 Largest Abelian Subgroup              D2h   NOp =  8
 Nuclear Repulsion Energy =          33.58921683 hartrees
 There are        8 alpha and        8 beta electrons
 Requested basis set is non-standard
 There are 60 shells and 168 basis functions
 Total memory of 95000 MB is distributed as follows: 
   MEM_STATIC is set to 192 MB
   QALLOC/CCMAN JOB total memory use is  94808 MB
 Warning: actual memory use might exceed 95000 MB

 Total QAlloc Memory Limit  95000 MB
 Mega-Array Size       188 MB
 MEM_STATIC part       192 MB

                       Distance Matrix (Angstroms)
             C (  1)   C (  2)   H (  3)   H (  4)   H (  5)
   C (  2)  1.329000
   H (  3)  1.082000  2.061931
   H (  4)  1.082000  2.061931  1.924697
   H (  5)  2.061931  1.082000  3.013026  2.318160
   H (  6)  2.061931  1.082000  2.318160  3.013026  1.924697
 
 A cutoff of  1.0D-14 yielded   1830 shell pairs
 There are     14430 function pairs (     17733 Cartesian)
 Smallest overlap matrix eigenvalue = 2.35E-06

 Scale SEOQF with 1.000000e-02/1.000000e-02/1.000000e-02

 Standard Electronic Orientation quadrupole field applied
 ================ Generating on-the-fly SAD Guess ================
Attempting to make child job directory: /src/jdavis/qchem.scratch/qchem29750//Frg1/
Attempting to make child job directory: /src/jdavis/qchem.scratch/qchem29750//Frg2/
Creating input file /src/jdavis/qchem.scratch/qchem29750/Frg1.input
using default PutDataFrgm: nothing
calling putenv with: QCSCRATCH=/src/jdavis/qchem.scratch/qchem29750/ 
Spawning Job For Fragment 0
Done Job For Fragment 0
calling putenv with: QCSCRATCH=/src/jdavis/qchem.scratch 
calling putenv with: QCTHREADS=1 
Creating input file /src/jdavis/qchem.scratch/qchem29750/Frg2.input
using default PutDataFrgm: nothing
calling putenv with: QCSCRATCH=/src/jdavis/qchem.scratch/qchem29750/ 
Spawning Job For Fragment 1
Done Job For Fragment 1
calling putenv with: QCSCRATCH=/src/jdavis/qchem.scratch 
calling putenv with: QCTHREADS=1 
 Time for running child jobs:  CPU 2.12 s  wall 56.49 s
 ============= Method Specific SAD Guess Constructed =============
 Guess from on-the-fly superposition of atomic densities
 Warning: Energy on first SCF cycle will be non-variational
 A restricted Hartree-Fock SCF calculation will be
 performed using Pulay DIIS extrapolation
 SCF converges when DIIS error is below 1.0E-08
 using 12 threads for integral computing
 -------------------------------------------------------
 OpenMP Integral computing Module                
 Release: version 1.0, May 2013, Q-Chem Inc. Pittsburgh 
 -------------------------------------------------------
 ---------------------------------------
  Cycle       Energy         DIIS Error
 ---------------------------------------
    1     -78.4638144751      2.97E-02
    2     -78.0364511794      2.22E-03
    3     -78.0582288600      6.08E-04
    4     -78.0600409411      2.14E-04
    5     -78.0602554986      2.39E-05
    6     -78.0602607187      5.01E-06
    7     -78.0602610307      1.33E-06
    8     -78.0602610482      1.53E-07
    9     -78.0602610497      1.96E-08
   10     -78.0602610503      1.97E-09 Convergence criterion met
 ---------------------------------------
 SCF time:  CPU 25.58 s  wall 2.14 s
 SCF   energy in the final basis set = -78.06026105
 Total energy in the final basis set = -78.06026105
================================================================================
|                                                                              |
|                                 A D C  M A N                                 |
|                                                                              |
 ------------------------------------------------------------------------------ 
|                                                                              |
| Components:                                                                  |
|                                                                              |
| - libvmm - 1.3-trunk                                                         |
|   Authors:                                                                   |
|   Evgeny Epifanovsky, Ilya Kaliman                                           |
|                                                                              |
| - libtensor - 2.5-trunk                                                      |
|   Authors:                                                                   |
|   Evgeny Epifanovsky, Michael Wormit, Dmitry Zuev, Sam Manzer,               |
|   Ilya Kaliman                                                               |
|                                                                              |
| - libwfa - 1.1-trunk                                                         |
|   Authors:                                                                   |
|   Felix Plasser, Stefanie Mewes (Baeppler), Benjamin Thomitzni,              |
|   Michael Wormit, Feng Chen, Anna I. Krylov, Pavel Pokhilko                  |
|                                                                              |
| - libadc - 1.1-trunk                                                         |
|   Authors:                                                                   |
|   Michael Wormit, Adrian L. Dempwolff, Philipp H. P. Harbach,                |
|   Caroline Krauter, Dirk Rehn, Matthias Schneider, Jan Wenzel                |
|                                                                              |
| - adcman - 2.6-trunk                                                         |
|   Authors:                                                                   |
|   Michael Wormit, Adrian L. Dempwolff, Philipp H. P. Harbach,                |
|   Caroline Krauter, Daniel Lefrancois, Jan-Michael Mewes, Dirk Rehn,         |
|   Matthias Schneider, Jan Wenzel, Andreas Dreuw                              |
|                                                                              |
| Authors of earlier versions of ADCMAN:                                       |
| Andreas Dreuw, Jan Hendrik Starcke, Dirk Rehn, Michael Wormit                |
|                                                                              |
================================================================================

  Import QC data ...  CPU 0.00 s  wall 0.00 s
 
 Alpha MOs, Restricted
 -- Occupied --                  
-11.228 -11.226  -1.040  -0.781  -0.661  -0.568  -0.516  -0.377
  1 Ag    1 B3u   2 Ag    2 B3u   1 B2u   3 Ag    1 B1g   1 B1u                
 -- Virtual --                   
  0.010   0.010   0.011   0.016   0.016   0.018   0.031   0.033
  3 B3u   2 B2u   2 B1u   2 B1g   1 B2g   4 Ag    4 B3u   3 B2u                
  0.035   0.039   0.042   0.042   0.058   0.069   0.073   0.078
  3 B1u   5 Ag    3 B1g   2 B2g   6 Ag    5 B3u   4 B2u   4 B1u                
  0.082   0.085   0.094   0.129   0.131   0.134   0.142   0.142
  3 B2g   4 B1g   7 Ag    4 B2g   6 B3u   8 Ag    1 B3g   5 B2u                
  0.153   0.155   0.156   0.169   0.185   0.186   0.188   0.191
  5 B1u   5 B1g   9 Ag    7 B3u   6 B2u   8 B3u   5 B2g   1 Au                 
  0.197   0.239   0.241   0.243   0.258   0.273   0.293   0.299
  6 B1u   9 B3u  10 Ag    6 B1g   6 B2g   7 B2u  11 Ag    7 B1g                
  0.302   0.327   0.352   0.355   0.375   0.391   0.403   0.434
  7 B1u  12 Ag    7 B2g  10 B3u   8 B2u   2 B3g  11 B3u  13 Ag                 
  0.442   0.474   0.487   0.490   0.496   0.509   0.572   0.590
  9 B2u   8 B1g  12 B3u  14 Ag    2 Au    8 B1u  13 B3u   9 B1g                
  0.635   0.696   0.707   0.760   0.764   0.768   0.791   0.811
  8 B2g  10 B2u  14 B3u   9 B1u  15 Ag   11 B2u  10 B1g  16 Ag                 
  0.836   0.865   0.872   0.978   1.005   1.023   1.082   1.140
 15 B3u   9 B2g  17 Ag   16 B3u  11 B1g   3 B3g  10 B1u  18 Ag                 
  1.144   1.151   1.203   1.205   1.230   1.263   1.280   1.376
  3 Au   17 B3u  10 B2g  12 B2u  11 B1u   4 B3g  12 B1g  19 Ag                 
  1.423   1.506   1.521   1.553   1.624   1.664   1.684   1.735
 18 B3u  11 B2g  13 B2u  14 B2u  20 Ag   19 B3u   4 Au   13 B1g                
  1.864   2.004   2.030   2.102   2.579   2.736   2.746   2.761
 20 B3u  21 Ag   21 B3u  14 B1g  12 B1u  22 Ag   15 B2u  23 Ag                 
  2.781   2.803   2.901   2.919   2.996   2.997   3.071   3.105
 12 B2g  16 B2u  15 B1g  13 B1u   5 B3g  22 B3u  16 B1g  14 B1u                
  3.136   3.164   3.229   3.267   3.267   3.291   3.463   3.468
 17 B2u  24 Ag    5 Au   13 B2g   6 B3g  25 Ag   23 B3u  18 B2u                
  3.484   3.506   3.516   3.531   3.555   3.617   3.645   3.662
  6 Au   14 B2g  17 B1g  24 B3u  25 B3u  15 B1u   7 B3g  26 Ag                 
  3.798   3.824   3.980   4.008   4.025   4.030   4.061   4.066
 19 B2u  18 B1g  15 B2g  26 B3u  19 B1g  20 B2u  16 B1u  27 Ag                 
  4.118   4.222   4.288   4.299   4.350   4.355   4.368   4.596
  7 Au   27 B3u  28 Ag    8 B3g  20 B1g  16 B2g  17 B1u  28 B3u                
  4.616   4.666   4.705   4.797   4.856   4.947   5.050   5.089
 21 B2u   8 Au   29 Ag   29 B3u  17 B2g  18 B1u  30 Ag   21 B1g                
  5.166   5.224   5.314   5.366   5.427   5.483   5.543   5.677
 22 B2u   9 B3g  30 B3u  31 Ag    9 Au   22 B1g  18 B2g  23 B2u                
  5.724   6.111   6.187   6.319   6.666   6.898  12.927  15.370
 32 Ag   23 B1g  31 B3u  24 B2u  32 B3u  24 B1g  33 Ag   33 B3u                
 
 Beta MOs, Restricted
 -- Occupied --                  
-11.228 -11.226  -1.040  -0.781  -0.661  -0.568  -0.516  -0.377
  1 Ag    1 B3u   2 Ag    2 B3u   1 B2u   3 Ag    1 B1g   1 B1u                
 -- Virtual --                   
  0.010   0.010   0.011   0.016   0.016   0.018   0.031   0.033
  3 B3u   2 B2u   2 B1u   2 B1g   1 B2g   4 Ag    4 B3u   3 B2u                
  0.035   0.039   0.042   0.042   0.058   0.069   0.073   0.078
  3 B1u   5 Ag    3 B1g   2 B2g   6 Ag    5 B3u   4 B2u   4 B1u                
  0.082   0.085   0.094   0.129   0.131   0.134   0.142   0.142
  3 B2g   4 B1g   7 Ag    4 B2g   6 B3u   8 Ag    1 B3g   5 B2u                
  0.153   0.155   0.156   0.169   0.185   0.186   0.188   0.191
  5 B1u   5 B1g   9 Ag    7 B3u   6 B2u   8 B3u   5 B2g   1 Au                 
  0.197   0.239   0.241   0.243   0.258   0.273   0.293   0.299
  6 B1u   9 B3u  10 Ag    6 B1g   6 B2g   7 B2u  11 Ag    7 B1g                
  0.302   0.327   0.352   0.355   0.375   0.391   0.403   0.434
  7 B1u  12 Ag    7 B2g  10 B3u   8 B2u   2 B3g  11 B3u  13 Ag                 
  0.442   0.474   0.487   0.490   0.496   0.509   0.572   0.590
  9 B2u   8 B1g  12 B3u  14 Ag    2 Au    8 B1u  13 B3u   9 B1g                
  0.635   0.696   0.707   0.760   0.764   0.768   0.791   0.811
  8 B2g  10 B2u  14 B3u   9 B1u  15 Ag   11 B2u  10 B1g  16 Ag                 
  0.836   0.865   0.872   0.978   1.005   1.023   1.082   1.140
 15 B3u   9 B2g  17 Ag   16 B3u  11 B1g   3 B3g  10 B1u  18 Ag                 
  1.144   1.151   1.203   1.205   1.230   1.263   1.280   1.376
  3 Au   17 B3u  10 B2g  12 B2u  11 B1u   4 B3g  12 B1g  19 Ag                 
  1.423   1.506   1.521   1.553   1.624   1.664   1.684   1.735
 18 B3u  11 B2g  13 B2u  14 B2u  20 Ag   19 B3u   4 Au   13 B1g                
  1.864   2.004   2.030   2.102   2.579   2.736   2.746   2.761
 20 B3u  21 Ag   21 B3u  14 B1g  12 B1u  22 Ag   15 B2u  23 Ag                 
  2.781   2.803   2.901   2.919   2.996   2.997   3.071   3.105
 12 B2g  16 B2u  15 B1g  13 B1u   5 B3g  22 B3u  16 B1g  14 B1u                
  3.136   3.164   3.229   3.267   3.267   3.291   3.463   3.468
 17 B2u  24 Ag    5 Au   13 B2g   6 B3g  25 Ag   23 B3u  18 B2u                
  3.484   3.506   3.516   3.531   3.555   3.617   3.645   3.662
  6 Au   14 B2g  17 B1g  24 B3u  25 B3u  15 B1u   7 B3g  26 Ag                 
  3.798   3.824   3.980   4.008   4.025   4.030   4.061   4.066
 19 B2u  18 B1g  15 B2g  26 B3u  19 B1g  20 B2u  16 B1u  27 Ag                 
  4.118   4.222   4.288   4.299   4.350   4.355   4.368   4.596
  7 Au   27 B3u  28 Ag    8 B3g  20 B1g  16 B2g  17 B1u  28 B3u                
  4.616   4.666   4.705   4.797   4.856   4.947   5.050   5.089
 21 B2u   8 Au   29 Ag   29 B3u  17 B2g  18 B1u  30 Ag   21 B1g                
  5.166   5.224   5.314   5.366   5.427   5.483   5.543   5.677
 22 B2u   9 B3g  30 B3u  31 Ag    9 Au   22 B1g  18 B2g  23 B2u                
  5.724   6.111   6.187   6.319   6.666   6.898  12.927  15.370
 32 Ag   23 B1g  31 B3u  24 B2u  32 B3u  24 B1g  33 Ag   33 B3u                
  Import AO data ...  CPU 0.05 s  wall 0.05 s
  Using point group: D2h
  Irreducible representations in point group: Ag B1g B2g B3g Au B1u B2u B3u
  Molecular orbitals: 
  Occupied MOs:
  Block   0:   1 ( Ag) A   2 ( Ag) A   3 ( Ag) A
                  -11.23       -1.04     -0.5677
  Block   1:   1 (B1g) A
                 -0.5159
  Block   2:   1 (B1u) A
                 -0.3775
  Block   3:   1 (B2u) A
                 -0.6606
  Block   4:   1 (B3u) A   2 (B3u) A
                  -11.23     -0.7811
  Block   5:   1 ( Ag) B   2 ( Ag) B   3 ( Ag) B
                  -11.23       -1.04     -0.5677
  Block   6:   1 (B1g) B
                 -0.5159
  Block   7:   1 (B1u) B
                 -0.3775
  Block   8:   1 (B2u) B
                 -0.6606
  Block   9:   1 (B3u) B   2 (B3u) B
                  -11.23     -0.7811
  Virtual MOs:
  Block   0:   4 ( Ag) A   5 ( Ag) A   6 ( Ag) A   7 ( Ag) A   8 ( Ag) A
                 0.01805     0.03868      0.0583     0.09368      0.1345
               9 ( Ag) A  10 ( Ag) A  11 ( Ag) A  12 ( Ag) A  13 ( Ag) A
                  0.1563      0.2414      0.2935      0.3273      0.4341
              14 ( Ag) A  15 ( Ag) A  16 ( Ag) A  17 ( Ag) A  18 ( Ag) A
                  0.4896      0.7642      0.8105      0.8724        1.14
              19 ( Ag) A
                   1.376
  Block   1:  20 ( Ag) A  21 ( Ag) A  22 ( Ag) A  23 ( Ag) A  24 ( Ag) A
                   1.624       2.004       2.736       2.761       3.164
              25 ( Ag) A  26 ( Ag) A  27 ( Ag) A  28 ( Ag) A  29 ( Ag) A
                   3.291       3.662       4.066       4.288       4.705
              30 ( Ag) A  31 ( Ag) A  32 ( Ag) A  33 ( Ag) A
                    5.05       5.366       5.724       12.93
  Block   2:   2 (B1g) A   3 (B1g) A   4 (B1g) A   5 (B1g) A   6 (B1g) A
                 0.01573     0.04182     0.08519      0.1554      0.2428
               7 (B1g) A   8 (B1g) A   9 (B1g) A  10 (B1g) A  11 (B1g) A
                  0.2995       0.474      0.5896      0.7912       1.005
              12 (B1g) A  13 (B1g) A
                    1.28       1.735
  Block   3:  14 (B1g) A  15 (B1g) A  16 (B1g) A  17 (B1g) A  18 (B1g) A
                   2.102       2.901       3.071       3.516       3.824
              19 (B1g) A  20 (B1g) A  21 (B1g) A  22 (B1g) A  23 (B1g) A
                   4.025        4.35       5.089       5.483       6.111
              24 (B1g) A
                   6.898
  Block   4:   1 (B2g) A   2 (B2g) A   3 (B2g) A   4 (B2g) A   5 (B2g) A
                   0.016     0.04222     0.08247      0.1287      0.1882
               6 (B2g) A   7 (B2g) A   8 (B2g) A   9 (B2g) A  10 (B2g) A
                   0.258      0.3521      0.6355      0.8649       1.203
  Block   5:  11 (B2g) A  12 (B2g) A  13 (B2g) A  14 (B2g) A  15 (B2g) A
                   1.506       2.781       3.267       3.506        3.98
              16 (B2g) A  17 (B2g) A  18 (B2g) A
                   4.355       4.856       5.543
  Block   6:   1 (B3g) A   2 (B3g) A   3 (B3g) A   4 (B3g) A   5 (B3g) A
                  0.1416      0.3907       1.023       1.263       2.996
               6 (B3g) A   7 (B3g) A   8 (B3g) A   9 (B3g) A
                   3.267       3.645       4.299       5.224
  Block   7:   1 ( Au) A   2 ( Au) A   3 ( Au) A   4 ( Au) A   5 ( Au) A
                  0.1915      0.4958       1.144       1.684       3.229
               6 ( Au) A   7 ( Au) A   8 ( Au) A   9 ( Au) A
                   3.484       4.118       4.666       5.427
  Block   8:   2 (B1u) A   3 (B1u) A   4 (B1u) A   5 (B1u) A   6 (B1u) A
                 0.01094      0.0348     0.07771      0.1527      0.1974
               7 (B1u) A   8 (B1u) A   9 (B1u) A
                  0.3018      0.5091        0.76
  Block   9:  10 (B1u) A  11 (B1u) A  12 (B1u) A  13 (B1u) A  14 (B1u) A
                   1.082        1.23       2.579       2.919       3.105
              15 (B1u) A  16 (B1u) A  17 (B1u) A  18 (B1u) A
                   3.617       4.061       4.368       4.947
  Block  10:   2 (B2u) A   3 (B2u) A   4 (B2u) A   5 (B2u) A   6 (B2u) A
                 0.01028     0.03264     0.07315      0.1417      0.1853
               7 (B2u) A   8 (B2u) A   9 (B2u) A  10 (B2u) A  11 (B2u) A
                   0.273      0.3749      0.4416      0.6961      0.7683
              12 (B2u) A  13 (B2u) A
                   1.205       1.521
  Block  11:  14 (B2u) A  15 (B2u) A  16 (B2u) A  17 (B2u) A  18 (B2u) A
                   1.553       2.746       2.803       3.136       3.468
              19 (B2u) A  20 (B2u) A  21 (B2u) A  22 (B2u) A  23 (B2u) A
                   3.798        4.03       4.616       5.166       5.677
              24 (B2u) A
                   6.319
  Block  12:   3 (B3u) A   4 (B3u) A   5 (B3u) A   6 (B3u) A   7 (B3u) A
                0.009905     0.03133     0.06888       0.131      0.1695
               8 (B3u) A   9 (B3u) A  10 (B3u) A  11 (B3u) A  12 (B3u) A
                  0.1859      0.2392      0.3549      0.4028       0.487
              13 (B3u) A  14 (B3u) A  15 (B3u) A  16 (B3u) A  17 (B3u) A
                  0.5724      0.7072      0.8357      0.9781       1.151
              18 (B3u) A
                   1.423
  Block  13:  19 (B3u) A  20 (B3u) A  21 (B3u) A  22 (B3u) A  23 (B3u) A
                   1.664       1.864        2.03       2.997       3.463
              24 (B3u) A  25 (B3u) A  26 (B3u) A  27 (B3u) A  28 (B3u) A
                   3.531       3.555       4.008       4.222       4.596
              29 (B3u) A  30 (B3u) A  31 (B3u) A  32 (B3u) A  33 (B3u) A
                   4.797       5.314       6.187       6.666       15.37
  Block  14:   4 ( Ag) B   5 ( Ag) B   6 ( Ag) B   7 ( Ag) B   8 ( Ag) B
                 0.01805     0.03868      0.0583     0.09368      0.1345
               9 ( Ag) B  10 ( Ag) B  11 ( Ag) B  12 ( Ag) B  13 ( Ag) B
                  0.1563      0.2414      0.2935      0.3273      0.4341
              14 ( Ag) B  15 ( Ag) B  16 ( Ag) B  17 ( Ag) B  18 ( Ag) B
                  0.4896      0.7642      0.8105      0.8724        1.14
              19 ( Ag) B
                   1.376
  Block  15:  20 ( Ag) B  21 ( Ag) B  22 ( Ag) B  23 ( Ag) B  24 ( Ag) B
                   1.624       2.004       2.736       2.761       3.164
              25 ( Ag) B  26 ( Ag) B  27 ( Ag) B  28 ( Ag) B  29 ( Ag) B
                   3.291       3.662       4.066       4.288       4.705
              30 ( Ag) B  31 ( Ag) B  32 ( Ag) B  33 ( Ag) B
                    5.05       5.366       5.724       12.93
  Block  16:   2 (B1g) B   3 (B1g) B   4 (B1g) B   5 (B1g) B   6 (B1g) B
                 0.01573     0.04182     0.08519      0.1554      0.2428
               7 (B1g) B   8 (B1g) B   9 (B1g) B  10 (B1g) B  11 (B1g) B
                  0.2995       0.474      0.5896      0.7912       1.005
              12 (B1g) B  13 (B1g) B
                    1.28       1.735
  Block  17:  14 (B1g) B  15 (B1g) B  16 (B1g) B  17 (B1g) B  18 (B1g) B
                   2.102       2.901       3.071       3.516       3.824
              19 (B1g) B  20 (B1g) B  21 (B1g) B  22 (B1g) B  23 (B1g) B
                   4.025        4.35       5.089       5.483       6.111
              24 (B1g) B
                   6.898
  Block  18:   1 (B2g) B   2 (B2g) B   3 (B2g) B   4 (B2g) B   5 (B2g) B
                   0.016     0.04222     0.08247      0.1287      0.1882
               6 (B2g) B   7 (B2g) B   8 (B2g) B   9 (B2g) B  10 (B2g) B
                   0.258      0.3521      0.6355      0.8649       1.203
  Block  19:  11 (B2g) B  12 (B2g) B  13 (B2g) B  14 (B2g) B  15 (B2g) B
                   1.506       2.781       3.267       3.506        3.98
              16 (B2g) B  17 (B2g) B  18 (B2g) B
                   4.355       4.856       5.543
  Block  20:   1 (B3g) B   2 (B3g) B   3 (B3g) B   4 (B3g) B   5 (B3g) B
                  0.1416      0.3907       1.023       1.263       2.996
               6 (B3g) B   7 (B3g) B   8 (B3g) B   9 (B3g) B
                   3.267       3.645       4.299       5.224
  Block  21:   1 ( Au) B   2 ( Au) B   3 ( Au) B   4 ( Au) B   5 ( Au) B
                  0.1915      0.4958       1.144       1.684       3.229
               6 ( Au) B   7 ( Au) B   8 ( Au) B   9 ( Au) B
                   3.484       4.118       4.666       5.427
  Block  22:   2 (B1u) B   3 (B1u) B   4 (B1u) B   5 (B1u) B   6 (B1u) B
                 0.01094      0.0348     0.07771      0.1527      0.1974
               7 (B1u) B   8 (B1u) B   9 (B1u) B
                  0.3018      0.5091        0.76
  Block  23:  10 (B1u) B  11 (B1u) B  12 (B1u) B  13 (B1u) B  14 (B1u) B
                   1.082        1.23       2.579       2.919       3.105
              15 (B1u) B  16 (B1u) B  17 (B1u) B  18 (B1u) B
                   3.617       4.061       4.368       4.947
  Block  24:   2 (B2u) B   3 (B2u) B   4 (B2u) B   5 (B2u) B   6 (B2u) B
                 0.01028     0.03264     0.07315      0.1417      0.1853
               7 (B2u) B   8 (B2u) B   9 (B2u) B  10 (B2u) B  11 (B2u) B
                   0.273      0.3749      0.4416      0.6961      0.7683
              12 (B2u) B  13 (B2u) B
                   1.205       1.521
  Block  25:  14 (B2u) B  15 (B2u) B  16 (B2u) B  17 (B2u) B  18 (B2u) B
                   1.553       2.746       2.803       3.136       3.468
              19 (B2u) B  20 (B2u) B  21 (B2u) B  22 (B2u) B  23 (B2u) B
                   3.798        4.03       4.616       5.166       5.677
              24 (B2u) B
                   6.319
  Block  26:   3 (B3u) B   4 (B3u) B   5 (B3u) B   6 (B3u) B   7 (B3u) B
                0.009905     0.03133     0.06888       0.131      0.1695
               8 (B3u) B   9 (B3u) B  10 (B3u) B  11 (B3u) B  12 (B3u) B
                  0.1859      0.2392      0.3549      0.4028       0.487
              13 (B3u) B  14 (B3u) B  15 (B3u) B  16 (B3u) B  17 (B3u) B
                  0.5724      0.7072      0.8357      0.9781       1.151
              18 (B3u) B
                   1.423
  Block  27:  19 (B3u) B  20 (B3u) B  21 (B3u) B  22 (B3u) B  23 (B3u) B
                   1.664       1.864        2.03       2.997       3.463
              24 (B3u) B  25 (B3u) B  26 (B3u) B  27 (B3u) B  28 (B3u) B
                   3.531       3.555       4.008       4.222       4.596
              29 (B3u) B  30 (B3u) B  31 (B3u) B  32 (B3u) B  33 (B3u) B
                   4.797       5.314       6.187       6.666       15.37
  Import MO data ...  CPU 0.12 s  wall 0.03 s
  Import HF data ...  CPU 2.03 s  wall 0.35 s
  Import 2e integrals ...  CPU 68.10 s  wall 6.24 s
  Import CAP matrix ...  CPU 85.14 s  wall 7.10 s

--------------------------------------------------------------------------------
                                   HF Summary                                   
--------------------------------------------------------------------------------
  Energy:                                                  -78.0602610503 a.u.
  Dip. moment [a.u.]:                  [  -0.000000,   -0.000000,    0.000000]
  Total dipole [Debye]:                                               0.000000
  <r^2> [a.u.]:                        [  47.652727,   22.094452,   11.989013]
  Total <r^2> [a.u.]:                                                81.736192
--------------------------------------------------------------------------------
  HF properties ...  CPU 1.30 s  wall 0.07 s
  MP(1) calculation ...  CPU 4.86 s  wall 2.92 s

--------------------------------------------------------------------------------
                                 MP(2) Summary                                  
--------------------------------------------------------------------------------
  MP energy contribution:                                   -0.3688003085 a.u.
  Total energy:                                            -78.4290613588 a.u.
  Dip. moment [a.u.]:                  [  -0.000000,   -0.000000,   -0.000000]
  Total dipole [Debye]:                                               0.000000
  <r^2> [a.u.]:                        [  47.639855,   22.000832,   11.770111]
  Total <r^2> [a.u.]:                                                81.410798
--------------------------------------------------------------------------------
  MP(2) calculation ...  CPU 2.16 s  wall 0.40 s
  Start ADC(2) ...  CPU 0.14 s  wall 0.03 s
  EA-ADC(2) intermediates ...  CPU 0.22 s  wall 0.04 s
  EA-ADC(2) Effective Transition Moments ...  CPU 0.80 s  wall 0.15 s
Less particle guess vectors found than requested: 18 (found), 100 (requested).
Adjusting number of hole-2particle guess vectors to 132.
  Starting Davidson for electron-attached states of irrep B2g ... 
--------------------------------------------------------------------------------
   It NVec Conv  Avg. Norm  Max. Norm  Conv. states           Remark
--------------------------------------------------------------------------------
       150    2  5.317e-02  3.160e-01  0.0160 n n n n n n n y Guess.
    1  160    3  2.098e-03  1.399e-02  0.0159 n n n n n n n y 
    2  170    4  1.676e-05  1.332e-04  0.0159 y n n n n n n y 
    3  180   10  4.519e-08  3.620e-07  0.0159 y y y y y y y y Converged.
--------------------------------------------------------------------------------
  Davidson Summary: 
 ------------------------------------------------------------
  State  0: electron attachment energy =   0.0159 a.u.   (converged)
  State  1: electron attachment energy =   0.0410 a.u.   (converged)
  State  2: electron attachment energy =   0.0681 a.u.   (converged)
  State  3: electron attachment energy =   0.0982 a.u.   (converged)
  State  4: electron attachment energy =   0.1670 a.u.   (converged)
  State  5: electron attachment energy =   0.2509 a.u.   (converged)
  State  6: electron attachment energy =   0.3229 a.u.   (converged)
  State  7: electron attachment energy =   0.4035 a.u.   (converged)
  State  8: electron attachment energy =   0.4035 a.u.   (converged)
  State  9: electron attachment energy =   0.4044 a.u.   (converged)
 ------------------------------------------------------------

  Electron-attached states of irrep B2g ...  CPU 186.41 s  wall 39.05 s
  Pole strengths ...  CPU 0.50 s  wall 0.15 s
  SDMs ...  CPU 11.40 s  wall 2.39 s
  Properties ...  CPU 7.16 s  wall 1.21 s
  ISR TDMS ...  CPU 65.42 s  wall 13.49 s
  ISR transition properties ...  CPU 11.05 s  wall 1.56 s

--------------------------------------------------------------------------------
                        Electron-Attached State Summary
--------------------------------------------------------------------------------

  Electron-attached state 1 (B2g)                                  [converged]
  ----------------------------------------------------------------------------
  Term symbol:  1 (2) B2g                                   R^2 =  3.06079e-09

  Total energy:                                            -78.4131624548 a.u.
  Electron attachment energy:                                      0.432631 eV

  Pole strength:                                                      0.999835

  Dip. moment [a.u.]:                  [   0.000000,   -0.000000,   -0.000000]
  Total dipole [Debye]:                                               0.000000
  <r^2> [a.u.]:                        [ 235.063079,   84.329825,  198.735156]
  Total <r^2> [a.u.]:                                               518.128060

  V1^2 = 0.9998, V2^2 = 0.0002

  Important amplitudes:
       occ i       vir a        vir b           v   
    -------------------------------------------------
                               1 (B2g) B     -0.9998
                               2 (B2g) B     -0.0099
                               4 (B2g) B     -0.0097
                               3 (B2g) B      0.0093
                               5 (B2g) B     -0.0046
     1 (B1u) B    4 (B2g) B    2 (B1u) B     -0.0021
     1 (B1u) A    4 (B2g) A    2 (B1u) B     -0.0020
                               7 (B2g) B     -0.0014
     1 (B1u) B    5 (B2g) B    2 (B1u) B     -0.0014
     1 (B1u) A    5 (B2g) A    2 (B1u) B     -0.0013
     1 (B1u) B    3 (B2g) B    2 (B1u) B      0.0012
     1 (B1u) A    3 (B2g) A    2 (B1u) B      0.0011
                               6 (B2g) B     -0.0011
     1 (B1u) B   12 (Ag ) B    3 (B3u) B      0.0010
     1 (B1u) A   12 (Ag ) A    3 (B3u) B      0.0010
     1 (B1u) A    8 (Ag ) A    3 (B3u) B      0.0010
     1 (B1u) B    8 (Ag ) B    3 (B3u) B      0.0010
     1 (B1u) B    4 (B2g) B    3 (B1u) B     -0.0009
     1 (B1g) B    2 (B1u) B    8 (B2u) B     -0.0009
     1 (B1u) B    4 (B2g) B    6 (B1u) B     -0.0009
     1 (B1g) A    8 (B2u) A    2 (B1u) B      0.0009
     1 (B1u) A    4 (B2g) A    6 (B1u) B     -0.0008
     1 (B1u) A    6 (Ag ) A    3 (B3u) B      0.0008
     1 (B1u) B    6 (Ag ) B    3 (B3u) B      0.0008
     1 (B1u) A    7 (Ag ) A    3 (B3u) B      0.0007
     1 (B1u) A   13 (Ag ) A    3 (B3u) B      0.0007
     1 (B1u) B   13 (Ag ) B    3 (B3u) B      0.0007
     1 (B1u) A    4 (B2g) A    3 (B1u) B     -0.0007
     1 (B1u) B    7 (Ag ) B    3 (B3u) B      0.0007
     1 (B1u) A   12 (Ag ) A    8 (B3u) B      0.0007
     1 (B1u) B    4 (B2g) B    4 (B1u) B     -0.0007
     1 (B1u) B   12 (Ag ) B    8 (B3u) B      0.0007
     2 (B3u) B    4 (B2g) B    3 (B3u) B      0.0007
     1 (B1u) A    9 (Ag ) A    3 (B3u) B     -0.0007
     1 (B1u) B    5 (B2g) B    6 (B1u) B     -0.0007
     1 (B1u) B    9 (Ag ) B    3 (B3u) B     -0.0007
     2 (B3u) A    4 (B2g) A    3 (B3u) B      0.0006
     1 (B1g) A    6 (B2u) A    2 (B1u) B     -0.0006
     1 (B1g) B    2 (B1u) B    6 (B2u) B      0.0006
     1 (B1u) B    5 (B2g) B    3 (B1u) B     -0.0006
    -------------------------------------------------
  ----------------------------------------------------------------------------


  Electron-attached state 2 (B2g)                                  [converged]
  ----------------------------------------------------------------------------
  Term symbol:  2 (2) B2g                                   R^2 =  2.50757e-08

  Total energy:                                            -78.3880778256 a.u.
  Electron attachment energy:                                      1.115219 eV

  Pole strength:                                                      0.996909

  Dip. moment [a.u.]:                  [   0.000000,   -0.000000,   -0.000000]
  Total dipole [Debye]:                                               0.000000
  <r^2> [a.u.]:                        [ 175.359939,   64.235353,  138.283919]
  Total <r^2> [a.u.]:                                               377.879211

  V1^2 = 0.9974, V2^2 = 0.0026

  Important amplitudes:
       occ i       vir a        vir b           v   
    -------------------------------------------------
                               2 (B2g) B      0.9908
                               3 (B2g) B     -0.0846
                               4 (B2g) B      0.0810
                               5 (B2g) B      0.0391
                               7 (B2g) B      0.0129
                               1 (B2g) B     -0.0121
                               6 (B2g) B      0.0107
     1 (B1u) B    4 (B2g) B    3 (B1u) B      0.0050
                               9 (B2g) B     -0.0048
     1 (B1u) B    4 (B2g) B    6 (B1u) B      0.0047
     1 (B1u) A    4 (B2g) A    6 (B1u) B      0.0046
                               8 (B2g) B      0.0042
     1 (B1u) B    4 (B2g) B    4 (B1u) B      0.0039
     1 (B1u) B    5 (B2g) B    6 (B1u) B      0.0037
     1 (B1u) A    4 (B2g) A    3 (B1u) B      0.0036
     1 (B1u) B    5 (B2g) B    3 (B1u) B      0.0034
     1 (B1u) B    4 (B2g) B    5 (B1u) B      0.0032
     1 (B1u) A    5 (B2g) A    6 (B1u) B      0.0032
     1 (B1u) A    7 (B1u) A    4 (B2g) B      0.0031
     1 (B1u) A    7 (B1u) A    5 (B2g) B      0.0030
     1 (B1u) B    5 (B2g) B    4 (B1u) B      0.0029
     1 (B1u) A    5 (B1u) A    4 (B2g) B     -0.0028
     1 (B1u) B    3 (B2g) B    3 (B1u) B     -0.0027
     1 (B1u) A    5 (B1u) A    5 (B2g) B     -0.0026
     1 (B1u) B    5 (B2g) B    5 (B1u) B      0.0026
     1 (B1u) B    5 (B2g) B    8 (B1u) B      0.0026
     1 (B1u) B    4 (B2g) B    2 (B1u) B      0.0025
     1 (B1u) A   12 (Ag ) A    8 (B3u) B     -0.0025
     1 (B1u) A    4 (B2g) A    8 (B1u) B      0.0024
     1 (B1u) B    4 (B2g) B    7 (B1u) B     -0.0024
     1 (B1u) A    3 (B2g) A    6 (B1u) B     -0.0024
     1 (B1u) B    4 (B2g) B    8 (B1u) B      0.0023
     1 (B1u) A    7 (B1u) A    7 (B2g) B      0.0023
     1 (B1u) B    3 (B2g) B    6 (B1u) B     -0.0023
     1 (B1u) A    4 (B1u) A    4 (B2g) B     -0.0023
     1 (B1u) B   12 (Ag ) B    8 (B3u) B     -0.0023
     3 (Ag ) B    6 (Ag ) B    4 (B2g) B      0.0022
     1 (B1u) B    5 (B2g) B    7 (B1u) B     -0.0022
     1 (B1u) A    5 (B2g) A    3 (B1u) B      0.0022
     1 (B1u) A    5 (B2g) A    8 (B1u) B      0.0021
    -------------------------------------------------
  ----------------------------------------------------------------------------


  Electron-attached state 3 (B2g)                                  [converged]
  ----------------------------------------------------------------------------
  Term symbol:  3 (2) B2g                                   R^2 =  1.24933e-07

  Total energy:                                            -78.3609650259 a.u.
  Electron attachment energy:                                      1.852995 eV

  Pole strength:                                                      0.961966

  Dip. moment [a.u.]:                  [   0.000000,   -0.000000,    0.000000]
  Total dipole [Debye]:                                               0.000000
  <r^2> [a.u.]:                        [ 101.290949,   40.503185,   65.037134]
  Total <r^2> [a.u.]:                                               206.831267

  V1^2 = 0.9702, V2^2 = 0.0298

  Important amplitudes:
       occ i       vir a        vir b           v   
    -------------------------------------------------
                               3 (B2g) B     -0.8282
                               4 (B2g) B      0.4614
                               5 (B2g) B      0.2152
                               2 (B2g) B     -0.1268
                               7 (B2g) B      0.0690
                               6 (B2g) B      0.0556
                               9 (B2g) B     -0.0224
                               8 (B2g) B      0.0213
                               1 (B2g) B     -0.0134
     1 (B1u) A    7 (B1u) A    4 (B2g) B      0.0131
     1 (B1u) A    7 (B1u) A    5 (B2g) B      0.0129
     1 (B1u) A    5 (B1u) A    4 (B2g) B     -0.0120
     1 (B1u) B    4 (B2g) B    5 (B1u) B      0.0119
     1 (B1u) B    4 (B2g) B    4 (B1u) B      0.0118
     1 (B1u) A    5 (B1u) A    5 (B2g) B     -0.0112
     1 (B1u) B    4 (B2g) B    8 (B1u) B      0.0108
     1 (B1u) B    4 (B2g) B    7 (B1u) B     -0.0107
     1 (B1u) A    4 (B2g) A    8 (B1u) B      0.0105
     1 (B1u) B    5 (B2g) B    8 (B1u) B      0.0101
     1 (B1u) A    7 (B1u) A    7 (B2g) B      0.0101
     1 (B1u) B    5 (B2g) B    5 (B1u) B      0.0098
     1 (B1u) B    5 (B2g) B    7 (B1u) B     -0.0097
     1 (B1u) A    4 (B1u) A    4 (B2g) B     -0.0095
     1 (B1u) B    5 (B2g) B    4 (B1u) B      0.0092
     1 (B1u) A    9 (B1u) A    5 (B2g) B     -0.0090
     1 (B1u) A    5 (B2g) A    8 (B1u) B      0.0088
     1 (B1u) A    9 (B1u) A    4 (B2g) B     -0.0087
     1 (B1u) B    4 (B2g) B    6 (B1u) B      0.0086
     3 (Ag ) B   10 (Ag ) B    4 (B2g) B      0.0086
     1 (B1u) A    4 (B1u) A    5 (B2g) B     -0.0086
     1 (B1u) A    9 (B1u) A    7 (B2g) B     -0.0082
     1 (B1g) B    7 (B1g) B    4 (B2g) B      0.0081
     3 (Ag ) B   10 (Ag ) B    5 (B2g) B      0.0080
     1 (B1g) A    7 (B1g) A    4 (B2g) B      0.0079
     1 (B1g) A    8 (B1g) A    4 (B2g) B      0.0079
     1 (B1u) A    5 (B1u) A    7 (B2g) B     -0.0078
     2 (B3u) A   11 (B3u) A    4 (B2g) B     -0.0077
     3 (Ag ) A   10 (Ag ) A    4 (B2g) B      0.0077
     3 (Ag ) A   10 (Ag ) A    5 (B2g) B      0.0077
     1 (B1u) A    9 (B1u) A    9 (B2g) B      0.0077
    -------------------------------------------------
  ----------------------------------------------------------------------------


  Electron-attached state 4 (B2g)                                  [converged]
  ----------------------------------------------------------------------------
  Term symbol:  4 (2) B2g                                   R^2 =  1.35483e-07

  Total energy:                                            -78.3308962949 a.u.
  Electron attachment energy:                                      2.671207 eV

  Pole strength:                                                      0.972316

  Dip. moment [a.u.]:                  [   0.000000,    0.000000,   -0.000000]
  Total dipole [Debye]:                                               0.000000
  <r^2> [a.u.]:                        [ 124.832907,   48.763983,   90.452048]
  Total <r^2> [a.u.]:                                               264.048938

  V1^2 = 0.9782, V2^2 = 0.0218

  Important amplitudes:
       occ i       vir a        vir b           v   
    -------------------------------------------------
                               4 (B2g) B     -0.7707
                               3 (B2g) B     -0.5462
                               5 (B2g) B     -0.2698
                               7 (B2g) B     -0.0800
                               6 (B2g) B     -0.0666
                               2 (B2g) B      0.0346
                               9 (B2g) B      0.0236
                               8 (B2g) B     -0.0235
     1 (B1u) A    7 (B1u) A    4 (B2g) B     -0.0123
     1 (B1u) A    7 (B1u) A    5 (B2g) B     -0.0119
     1 (B1u) A    5 (B1u) A    4 (B2g) B      0.0111
     1 (B1u) A    5 (B1u) A    5 (B2g) B      0.0104
     1 (B1u) B    4 (B2g) B    8 (B1u) B     -0.0095
     1 (B1u) A    7 (B1u) A    7 (B2g) B     -0.0093
     1 (B1u) B    4 (B2g) B    7 (B1u) B      0.0091
     1 (B1u) A    4 (B2g) A    8 (B1u) B     -0.0087
     1 (B1u) A    4 (B1u) A    4 (B2g) B      0.0087
     1 (B1u) B    4 (B2g) B    5 (B1u) B     -0.0085
     1 (B1u) A    9 (B1u) A    5 (B2g) B      0.0085
     1 (B1u) B    5 (B2g) B    8 (B1u) B     -0.0083
     1 (B1u) A    9 (B1u) A    4 (B2g) B      0.0082
     1 (B1u) B    5 (B2g) B    7 (B1u) B      0.0081
     1 (B1u) A    4 (B1u) A    5 (B2g) B      0.0080
     1 (B1u) A    9 (B1u) A    7 (B2g) B      0.0076
     3 (Ag ) B   10 (Ag ) B    4 (B2g) B     -0.0075
     1 (B1u) A    5 (B1u) A    7 (B2g) B      0.0074
     1 (B1u) B    5 (B2g) B    5 (B1u) B     -0.0073
     1 (B1u) A    5 (B2g) A    8 (B1u) B     -0.0072
     1 (B1g) A    7 (B1g) A    4 (B2g) B     -0.0071
     3 (Ag ) A   10 (Ag ) A    4 (B2g) B     -0.0071
     1 (B1g) B    7 (B1g) B    4 (B2g) B     -0.0070
     3 (Ag ) B   10 (Ag ) B    5 (B2g) B     -0.0069
     1 (B1g) A    8 (B1g) A    4 (B2g) B     -0.0069
     3 (Ag ) A   10 (Ag ) A    5 (B2g) B     -0.0069
     1 (B1u) A    9 (B1u) A    9 (B2g) B     -0.0069
     1 (B1g) A    7 (B1g) A    5 (B2g) B     -0.0069
     2 (B3u) A   11 (B3u) A    4 (B2g) B      0.0068
     2 (B3u) A   11 (B3u) A    5 (B2g) B      0.0067
     1 (B1g) A    8 (B1g) A    5 (B2g) B     -0.0067
     1 (B2u) A    7 (B2u) A    4 (B2g) B     -0.0067
    -------------------------------------------------
  ----------------------------------------------------------------------------


  Electron-attached state 5 (B2g)                                  [converged]
  ----------------------------------------------------------------------------
  Term symbol:  5 (2) B2g                                   R^2 =  1.49990e-07

  Total energy:                                            -78.2620791482 a.u.
  Electron attachment energy:                                      4.543817 eV

  Pole strength:                                                      0.983117

  Dip. moment [a.u.]:                  [   0.000000,    0.000000,   -0.000000]
  Total dipole [Debye]:                                               0.000000
  <r^2> [a.u.]:                        [ 118.176141,   44.292785,   77.759334]
  Total <r^2> [a.u.]:                                               240.228260

  V1^2 = 0.9856, V2^2 = 0.0144

  Important amplitudes:
       occ i       vir a        vir b           v   
    -------------------------------------------------
                               5 (B2g) B      0.8992
                               4 (B2g) B     -0.3915
                               7 (B2g) B      0.1038
                               6 (B2g) B      0.0956
                               3 (B2g) B      0.0503
                               8 (B2g) B      0.0284
                               9 (B2g) B     -0.0239
     1 (B1u) A    7 (B1u) A    4 (B2g) B      0.0099
     1 (B1u) A    4 (B2g) A    5 (B1u) B     -0.0097
     1 (B1u) A    4 (B2g) A    4 (B1u) B     -0.0096
     1 (B1u) A    7 (B1u) A    5 (B2g) B      0.0096
     1 (B1u) A    4 (B2g) A    6 (B1u) B     -0.0093
     1 (B1u) A    5 (B1u) A    4 (B2g) B     -0.0088
     1 (B1u) A    5 (B1u) A    5 (B2g) B     -0.0084
     1 (B1u) B    4 (B2g) B    6 (B1u) B     -0.0076
     1 (B1u) A    5 (B2g) A    5 (B1u) B     -0.0076
     1 (B1u) A    7 (B1u) A    7 (B2g) B      0.0075
     1 (B1u) A    5 (B2g) A    4 (B1u) B     -0.0071
     1 (B1u) A    4 (B1u) A    4 (B2g) B     -0.0069
     1 (B1u) A    9 (B1u) A    5 (B2g) B     -0.0069
     1 (B1u) A    9 (B1u) A    4 (B2g) B     -0.0066
     1 (B1u) A    4 (B1u) A    5 (B2g) B     -0.0065
     1 (B1u) A    5 (B1u) A    7 (B2g) B     -0.0062
     1 (B1u) A    5 (B2g) A    6 (B1u) B     -0.0061
     1 (B1u) A    9 (B1u) A    7 (B2g) B     -0.0061
     3 (Ag ) A   10 (Ag ) A    4 (B2g) B      0.0057
     1 (B1u) B    4 (B2g) B    7 (B1u) B     -0.0057
     1 (B1u) B    5 (B2g) B    6 (B1u) B     -0.0056
                              11 (B2g) B      0.0056
     1 (B1g) A    7 (B1g) A    4 (B2g) B      0.0054
     1 (B1g) A    8 (B1g) A    5 (B2g) B      0.0053
     1 (B1u) A    9 (B1u) A    9 (B2g) B      0.0052
     1 (B1g) A    7 (B1g) A    5 (B2g) B      0.0051
     1 (B2u) A    7 (B2u) A    5 (B2g) B      0.0051
     1 (B1u) B    5 (B2g) B    7 (B1u) B     -0.0051
     2 (B3u) A   11 (B3u) A    5 (B2g) B     -0.0051
     3 (Ag ) A   10 (Ag ) A    5 (B2g) B      0.0050
                              12 (B2g) B      0.0050
     1 (B1u) A    4 (B2g) A   11 (B1u) B      0.0050
     1 (B2u) A    8 (B2u) A    4 (B2g) B      0.0050
    -------------------------------------------------
  ----------------------------------------------------------------------------


  Electron-attached state 6 (B2g)                                  [converged]
  ----------------------------------------------------------------------------
  Term symbol:  6 (2) B2g                                   R^2 =  1.26911e-07

  Total energy:                                            -78.1781584131 a.u.
  Electron attachment energy:                                      6.827416 eV

  Pole strength:                                                      0.991996

  Dip. moment [a.u.]:                  [  -0.000000,   -0.000000,    0.000000]
  Total dipole [Debye]:                                               0.000000
  <r^2> [a.u.]:                        [  87.154397,   34.285867,   48.205908]
  Total <r^2> [a.u.]:                                               169.646172

  V1^2 = 0.9926, V2^2 = 0.0074

  Important amplitudes:
       occ i       vir a        vir b           v   
    -------------------------------------------------
                               6 (B2g) B     -0.9744
                               5 (B2g) B      0.1547
                               7 (B2g) B     -0.1191
                               4 (B2g) B      0.0620
                               8 (B2g) B     -0.0224
                               9 (B2g) B      0.0217
                               3 (B2g) B     -0.0106
     1 (B1u) A    4 (B2g) A    5 (B1u) B      0.0101
     1 (B1u) A    5 (B2g) A    5 (B1u) B      0.0075
     1 (B1u) A    4 (B2g) A    7 (B1u) B     -0.0072
     1 (B1u) A    7 (B1u) A    4 (B2g) B     -0.0066
     1 (B1u) B   12 (Ag ) B    8 (B3u) B     -0.0062
     1 (B1u) A    5 (B2g) A    7 (B1u) B     -0.0061
     1 (B1u) A    4 (B2g) A    4 (B1u) B      0.0060
     1 (B1u) B    4 (B2g) B    6 (B1u) B     -0.0059
     1 (B1u) A    8 (Ag ) A    8 (B3u) B     -0.0058
     1 (B1u) A    5 (B1u) A    4 (B2g) B      0.0058
     1 (B1u) A   12 (Ag ) A    8 (B3u) B     -0.0057
     1 (B1u) A    7 (B1u) A    5 (B2g) B     -0.0056
     1 (B1u) A    4 (B2g) A    6 (B1u) B     -0.0056
     1 (B1u) A    3 (B2g) A    5 (B1u) B     -0.0054
     1 (B1u) A    5 (B1u) A    5 (B2g) B      0.0048
     1 (B1u) B    5 (B2g) B    6 (B1u) B     -0.0047
     1 (B1u) A    4 (B1u) A    4 (B2g) B      0.0046
     1 (B1u) A   12 (Ag ) A    9 (B3u) B     -0.0045
     1 (B1u) A    5 (B2g) A    4 (B1u) B      0.0045
     1 (B1u) B    8 (Ag ) B    8 (B3u) B     -0.0044
     1 (B1u) A    9 (B1u) A    4 (B2g) B      0.0044
     1 (B1u) B   12 (Ag ) B    9 (B3u) B     -0.0044
     1 (B1u) B    4 (B2g) B    5 (B1u) B      0.0044
     1 (B1u) A    6 (Ag ) A    8 (B3u) B     -0.0042
     1 (B1u) B   13 (Ag ) B    8 (B3u) B     -0.0042
     1 (B1u) A    7 (Ag ) A    8 (B3u) B     -0.0041
     1 (B1u) A   13 (Ag ) A    8 (B3u) B     -0.0041
     1 (B1u) A    1 (B3g) A    1 (Au ) B      0.0041
     1 (B1u) A    9 (Ag ) A    8 (B3u) B      0.0041
     1 (B1u) A    9 (B1u) A    5 (B2g) B      0.0041
     1 (B1u) B    2 (B3g) B    1 (Au ) B      0.0041
     1 (B1u) A    7 (B1u) A    7 (B2g) B     -0.0040
     1 (B1u) A    4 (B2g) A    3 (B1u) B      0.0040
    -------------------------------------------------
  ----------------------------------------------------------------------------


  Electron-attached state 7 (B2g)                                  [converged]
  ----------------------------------------------------------------------------
  Term symbol:  7 (2) B2g                                   R^2 =  3.61957e-07

  Total energy:                                            -78.1061737678 a.u.
  Electron attachment energy:                                      8.786218 eV

  Pole strength:                                                      0.971459

  Dip. moment [a.u.]:                  [   0.000000,    0.000000,   -0.000000]
  Total dipole [Debye]:                                               0.000000
  <r^2> [a.u.]:                        [  75.666838,   33.360353,   44.665266]
  Total <r^2> [a.u.]:                                               153.692457

  V1^2 = 0.9732, V2^2 = 0.0268

  Important amplitudes:
       occ i       vir a        vir b           v   
    -------------------------------------------------
                               7 (B2g) B      0.9559
                               6 (B2g) B     -0.1579
                               5 (B2g) B     -0.1458
                               8 (B2g) B      0.0749
                               4 (B2g) B     -0.0670
                               9 (B2g) B     -0.0525
     1 (B1u) A    4 (B2g) A    7 (B1u) B      0.0204
     1 (B1u) A    4 (B2g) A    5 (B1u) B     -0.0180
     1 (B1u) A    5 (B2g) A    7 (B1u) B      0.0164
     1 (B1u) A    4 (B2g) A    6 (B1u) B     -0.0154
     1 (B1u) A    5 (B2g) A    5 (B1u) B     -0.0137
     1 (B1u) A    7 (B1u) A    4 (B2g) B      0.0132
     1 (B1u) A    7 (B1u) A    5 (B2g) B      0.0129
                               3 (B2g) B      0.0128
     1 (B1u) B    4 (B2g) B    6 (B1u) B     -0.0128
     1 (B1u) A    4 (B2g) A    4 (B1u) B     -0.0126
     1 (B1u) A    5 (B1u) A    4 (B2g) B     -0.0118
     1 (B1u) A    5 (B1u) A    5 (B2g) B     -0.0116
                              11 (B2g) B      0.0111
     1 (B1u) A    5 (B2g) A    6 (B1u) B     -0.0102
     1 (B1u) A    3 (B2g) A    7 (B1u) B     -0.0098
     1 (B1u) A    4 (B1u) A    4 (B2g) B     -0.0096
     1 (B1u) A    5 (B2g) A    4 (B1u) B     -0.0095
     1 (B1u) A    4 (B1u) A    5 (B2g) B     -0.0094
     1 (B1u) B    5 (B2g) B    6 (B1u) B     -0.0092
     1 (B1u) A    7 (B1u) A    7 (B2g) B      0.0091
     1 (B1u) A    9 (B1u) A    5 (B2g) B     -0.0090
     1 (B1u) A    3 (B2g) A    5 (B1u) B      0.0090
     1 (B1u) A    9 (B1u) A    4 (B2g) B     -0.0087
     1 (B1u) A    5 (B1u) A    7 (B2g) B     -0.0082
     1 (B1u) A    3 (B2g) A    6 (B1u) B      0.0082
                              10 (B2g) B     -0.0082
     1 (B1u) A    7 (B2g) A    7 (B1u) B      0.0080
     1 (B1u) A   12 (Ag ) A    9 (B3u) B      0.0076
     1 (B1u) A    5 (B2g) A    9 (B1u) B     -0.0074
                              12 (B2g) B      0.0072
     1 (B1u) A    9 (B1u) A    7 (B2g) B     -0.0072
     1 (B1u) B    4 (B2g) B    7 (B1u) B      0.0072
     1 (B1u) A    4 (B2g) A    9 (B1u) B     -0.0071
     1 (B1u) A    4 (B2g) A    3 (B1u) B     -0.0069
    -------------------------------------------------
  ----------------------------------------------------------------------------


  Electron-attached state 8 (B2g)                                  [converged]
  ----------------------------------------------------------------------------
  Term symbol:  8 (2) B2g                                   R^2 =  1.99076e-12

  Total energy:                                            -78.0255573440 a.u.
  Electron attachment energy:                                     10.979903 eV

  Pole strength:                                                      0.000000

  Dip. moment [a.u.]:                  [  -0.000000,    0.000000,    0.000000]
  Total dipole [Debye]:                                               0.000000
  <r^2> [a.u.]:                        [ 304.919087,  418.750579,  141.713695]
  Total <r^2> [a.u.]:                                               865.383361

  V1^2 = 0.0000, V2^2 = 1.0000

  Important amplitudes:
       occ i       vir a        vir b           v   
    -------------------------------------------------
     1 (B1u) A    2 (B1g) A    2 (B2u) B      0.5283
     1 (B1u) B    2 (B1g) B    2 (B2u) B      0.4658
     1 (B1u) A    2 (B2u) A    2 (B1g) B      0.0626
                               1 (B2g) B      0.0000
                               3 (B2g) B      0.0000
                               4 (B2g) B     -0.0000
                               6 (B2g) B      0.0000
                               8 (B2g) B      0.0000
                               5 (B2g) B      0.0000
                               7 (B2g) B     -0.0000
                               9 (B2g) B     -0.0000
                              11 (B2g) B      0.0000
                              10 (B2g) B      0.0000
     1 (B1u) B    4 (Ag ) B    3 (B3u) B     -0.0000
                               2 (B2g) B     -0.0000
     1 (B1u) B    4 (B2g) B    4 (B1u) B     -0.0000
                              13 (B2g) B     -0.0000
     1 (B1u) B    4 (B2g) B    5 (B1u) B     -0.0000
     1 (B1u) A    4 (B2g) A    4 (B1u) B     -0.0000
     1 (B1u) A    4 (Ag ) A    3 (B3u) B     -0.0000
     1 (B1u) A    4 (B2g) A    5 (B1u) B     -0.0000
     1 (B1u) B    4 (B2g) B    3 (B1u) B     -0.0000
     1 (B1u) B    3 (B2g) B    4 (B1u) B      0.0000
     1 (B1u) A    4 (B2g) A    8 (B1u) B     -0.0000
     1 (B1u) A    3 (B3u) A    4 (Ag ) B      0.0000
     1 (B1u) B    5 (B2g) B    4 (B1u) B     -0.0000
     1 (B1u) B    5 (B2g) B    5 (B1u) B     -0.0000
     1 (B1u) A    3 (B2g) A    4 (B1u) B      0.0000
     1 (B1u) B    4 (B2g) B    8 (B1u) B     -0.0000
     1 (B1u) A    4 (B2g) A    6 (B1u) B     -0.0000
     1 (B1u) B    4 (B2g) B    6 (B1u) B     -0.0000
     1 (B1u) A    5 (B2g) A    8 (B1u) B     -0.0000
     1 (B1u) A    4 (B2g) A    3 (B1u) B     -0.0000
                              16 (B2g) B     -0.0000
     1 (B1u) B    3 (B2g) B    3 (B1u) B      0.0000
     1 (B1u) A    5 (B2g) A    4 (B1u) B     -0.0000
     1 (B1u) B    5 (B2g) B    8 (B1u) B     -0.0000
     1 (B1u) B    3 (B2g) B    5 (B1u) B      0.0000
     1 (B1u) A    8 (Ag ) A    8 (B3u) B      0.0000
     1 (B1u) A    5 (B2g) A    5 (B1u) B     -0.0000
    -------------------------------------------------
  ----------------------------------------------------------------------------


  Electron-attached state 9 (B2g)                                  [converged]
  ----------------------------------------------------------------------------
  Term symbol:  9 (2) B2g                                   R^2 =  6.29682e-12

  Total energy:                                            -78.0255573425 a.u.
  Electron attachment energy:                                     10.979903 eV

  Pole strength:                                                      0.000000

  Dip. moment [a.u.]:                  [  -0.000000,    0.000000,    0.000000]
  Total dipole [Debye]:                                               0.000000
  <r^2> [a.u.]:                        [ 304.919107,  418.750614,  141.713707]
  Total <r^2> [a.u.]:                                               865.383428

  V1^2 = 0.0000, V2^2 = 1.0000

  Important amplitudes:
       occ i       vir a        vir b           v   
    -------------------------------------------------
     1 (B1u) A    2 (B2u) A    2 (B1g) B      0.5740
     1 (B1u) B    2 (B1g) B    2 (B2u) B     -0.3412
     1 (B1u) A    2 (B1g) A    2 (B2u) B      0.2328
                               6 (B2g) B      0.0001
                               2 (B2g) B     -0.0000
                               1 (B2g) B     -0.0000
                               3 (B2g) B      0.0000
                               7 (B2g) B     -0.0000
     1 (B1u) A    4 (Ag ) A    3 (B3u) B      0.0000
                               4 (B2g) B     -0.0000
     1 (B1u) B    4 (Ag ) B    3 (B3u) B      0.0000
                               8 (B2g) B      0.0000
                               5 (B2g) B      0.0000
     1 (B1u) A    1 (B2g) A    2 (B1u) B     -0.0000
     1 (B1u) B    1 (B2g) B    2 (B1u) B     -0.0000
                               9 (B2g) B     -0.0000
                              11 (B2g) B      0.0000
     1 (B1u) A    3 (B3u) A    4 (Ag ) B      0.0000
     1 (B1u) B    4 (B2g) B    3 (B1u) B     -0.0000
     1 (B1u) A    4 (B2g) A    3 (B1u) B     -0.0000
     1 (B1u) A    4 (B2g) A    4 (B1u) B     -0.0000
     1 (B1u) B    4 (B2g) B    4 (B1u) B     -0.0000
     1 (B1u) A    3 (B2g) A    3 (B1u) B      0.0000
     1 (B1u) A    4 (Ag ) A    4 (B3u) B      0.0000
     1 (B1u) B    3 (B2g) B    3 (B1u) B      0.0000
     1 (B1u) B    4 (B2g) B    2 (B1u) B     -0.0000
     1 (B1u) A    4 (B2g) A    2 (B1u) B     -0.0000
     1 (B1u) A    8 (Ag ) A    8 (B3u) B      0.0000
     1 (B1u) A    6 (Ag ) A    4 (B3u) B      0.0000
     1 (B1u) B   12 (Ag ) B    8 (B3u) B      0.0000
     1 (B1u) A    4 (B2g) A    5 (B1u) B     -0.0000
     1 (B1u) A    3 (B2g) A    2 (B1u) B      0.0000
     1 (B1u) A    3 (B2g) A    4 (B1u) B      0.0000
     1 (B1u) B    3 (B2g) B    2 (B1u) B      0.0000
     1 (B1u) A   12 (Ag ) A    8 (B3u) B      0.0000
                              10 (B2g) B      0.0000
     1 (B1u) B    4 (B2g) B    5 (B1u) B     -0.0000
     1 (B1u) A    6 (Ag ) A    3 (B3u) B      0.0000
     1 (B1u) A    6 (Ag ) A    8 (B3u) B      0.0000
     1 (B1u) B    3 (B2g) B    4 (B1u) B      0.0000
    -------------------------------------------------
  ----------------------------------------------------------------------------


  Electron-attached state 10 (B2g)                                  [converged]
  ----------------------------------------------------------------------------
  Term symbol:  10 (2) B2g                                  R^2 =  4.95075e-11

  Total energy:                                            -78.0246271612 a.u.
  Electron attachment energy:                                     11.005214 eV

  Pole strength:                                                      0.000000

  Dip. moment [a.u.]:                  [  -0.000000,   -0.000000,   -0.000000]
  Total dipole [Debye]:                                               0.000000
  <r^2> [a.u.]:                        [ 306.027751,  154.905214,  410.672359]
  Total <r^2> [a.u.]:                                               871.605324

  V1^2 = 0.0000, V2^2 = 1.0000

  Important amplitudes:
       occ i       vir a        vir b           v   
    -------------------------------------------------
     1 (B1u) A    2 (B1u) A    1 (B2g) B      0.5734
     1 (B1u) B    1 (B2g) B    2 (B1u) B     -0.3450
     1 (B1u) A    1 (B2g) A    2 (B1u) B      0.2284
                               4 (B2g) B      0.0001
                               6 (B2g) B      0.0001
                               5 (B2g) B      0.0001
                               7 (B2g) B      0.0001
                               3 (B2g) B     -0.0000
                               8 (B2g) B     -0.0000
                               2 (B2g) B      0.0000
     1 (B1u) A    5 (B1u) A    4 (B2g) B     -0.0000
     1 (B1u) A    4 (B1u) A    4 (B2g) B     -0.0000
     1 (B1u) A    7 (B1u) A    4 (B2g) B      0.0000
     1 (B1u) A    5 (B1u) A    5 (B2g) B     -0.0000
     1 (B1u) A    7 (B1u) A    5 (B2g) B      0.0000
     1 (B1u) A    4 (B1u) A    5 (B2g) B     -0.0000
     1 (B1u) A    3 (B1u) A    4 (B2g) B     -0.0000
     1 (B1u) B    4 (B2g) B    4 (B1u) B      0.0000
                               9 (B2g) B      0.0000
     1 (B1u) B    4 (B2g) B    8 (B1u) B      0.0000
     1 (B1u) B    4 (B2g) B    7 (B1u) B     -0.0000
     1 (B1u) B    4 (B2g) B    5 (B1u) B      0.0000
     1 (B1u) A    4 (B2g) A    8 (B1u) B      0.0000
                               1 (B2g) B     -0.0000
     1 (B1u) B    5 (B2g) B    8 (B1u) B      0.0000
     1 (B1u) A    7 (B1u) A    7 (B2g) B      0.0000
     1 (B1u) B    5 (B2g) B    7 (B1u) B     -0.0000
     1 (B1u) A    4 (B1u) A    3 (B2g) B      0.0000
     1 (B1u) B    5 (B2g) B    5 (B1u) B      0.0000
     1 (B1u) A    5 (B2g) A    8 (B1u) B      0.0000
     1 (B1u) A    3 (B1u) A    5 (B2g) B     -0.0000
     1 (B1u) A    5 (B1u) A    7 (B2g) B     -0.0000
     3 (Ag ) B   10 (Ag ) B    4 (B2g) B      0.0000
     1 (B1u) A    5 (B1u) A    3 (B2g) B      0.0000
     1 (B1u) B    5 (B2g) B    4 (B1u) B      0.0000
     3 (Ag ) A    6 (Ag ) A    4 (B2g) B      0.0000
     1 (B1g) A    7 (B1g) A    4 (B2g) B      0.0000
     3 (Ag ) A   10 (Ag ) A    4 (B2g) B      0.0000
     1 (B1u) A    9 (B1u) A    5 (B2g) B     -0.0000
     1 (B1u) A    9 (B1u) A    4 (B2g) B     -0.0000
    -------------------------------------------------
  ----------------------------------------------------------------------------


--------------------------------------------------------------------------------
  Printing results ...  CPU 0.14 s  wall 0.09 s

--------------------------------------------------------------------------------
                               Transition Summary                               
--------------------------------------------------------------------------------

  Transition from electron-attached state   1 to electron-attached state   2:
  -------------------------------------------------------
  Transition:  1 (2) B2g  ->  2 (2) B2g
  Excitation energy:                                               0.682587 eV
  Osc. strength:                                                      0.000000
  Trans. dip. moment [a.u.]:           [   0.000000,    0.000000,    0.000000]
  <i|r^2|0> [a.u.]:                    [  66.370008,   22.193917,   66.620715]

  Transition from electron-attached state   1 to electron-attached state   3:
  -------------------------------------------------------
  Transition:  1 (2) B2g  ->  3 (2) B2g
  Excitation energy:                                               1.420364 eV
  Osc. strength:                                                      0.000000
  Trans. dip. moment [a.u.]:           [  -0.000000,    0.000000,   -0.000000]
  <i|r^2|0> [a.u.]:                    [ -17.138470,   -5.868016,  -17.511266]

  Transition from electron-attached state   2 to electron-attached state   3:
  -------------------------------------------------------
  Transition:  2 (2) B2g  ->  3 (2) B2g
  Excitation energy:                                               0.737777 eV
  Osc. strength:                                                      0.000000
  Trans. dip. moment [a.u.]:           [  -0.000000,   -0.000000,   -0.000000]
  <i|r^2|0> [a.u.]:                    [ -54.323672,  -18.139793,  -54.994204]

  Transition from electron-attached state   1 to electron-attached state   4:
  -------------------------------------------------------
  Transition:  1 (2) B2g  ->  4 (2) B2g
  Excitation energy:                                               2.238576 eV
  Osc. strength:                                                      0.000000
  Trans. dip. moment [a.u.]:           [  -0.000000,   -0.000000,    0.000000]
  <i|r^2|0> [a.u.]:                    [ -11.920520,   -4.132172,  -12.459994]

  Transition from electron-attached state   2 to electron-attached state   4:
  -------------------------------------------------------
  Transition:  2 (2) B2g  ->  4 (2) B2g
  Excitation energy:                                               1.555989 eV
  Osc. strength:                                                      0.000000
  Trans. dip. moment [a.u.]:           [  -0.000000,    0.000000,    0.000000]
  <i|r^2|0> [a.u.]:                    [ -37.631303,  -12.544146,  -37.206509]

  Transition from electron-attached state   3 to electron-attached state   4:
  -------------------------------------------------------
  Transition:  3 (2) B2g  ->  4 (2) B2g
  Excitation energy:                                               0.818212 eV
  Osc. strength:                                                      0.000000
  Trans. dip. moment [a.u.]:           [   0.000000,   -0.000000,    0.000000]
  <i|r^2|0> [a.u.]:                    [  49.345941,   16.640144,   51.732541]

  Transition from electron-attached state   1 to electron-attached state   5:
  -------------------------------------------------------
  Transition:  1 (2) B2g  ->  5 (2) B2g
  Excitation energy:                                               4.111186 eV
  Osc. strength:                                                      0.000000
  Trans. dip. moment [a.u.]:           [  -0.000000,    0.000000,    0.000000]
  <i|r^2|0> [a.u.]:                    [  -7.051297,   -2.593523,   -7.742561]

  Transition from electron-attached state   2 to electron-attached state   5:
  -------------------------------------------------------
  Transition:  2 (2) B2g  ->  5 (2) B2g
  Excitation energy:                                               3.428598 eV
  Osc. strength:                                                      0.000000
  Trans. dip. moment [a.u.]:           [  -0.000000,   -0.000000,    0.000000]
  <i|r^2|0> [a.u.]:                    [ -15.130287,   -3.834078,  -11.759112]

  Transition from electron-attached state   3 to electron-attached state   5:
  -------------------------------------------------------
  Transition:  3 (2) B2g  ->  5 (2) B2g
  Excitation energy:                                               2.690822 eV
  Osc. strength:                                                      0.000000
  Trans. dip. moment [a.u.]:           [  -0.000000,   -0.000000,    0.000000]
  <i|r^2|0> [a.u.]:                    [  16.097654,    6.380436,   17.990485]

  Transition from electron-attached state   4 to electron-attached state   5:
  -------------------------------------------------------
  Transition:  4 (2) B2g  ->  5 (2) B2g
  Excitation energy:                                               1.872610 eV
  Osc. strength:                                                      0.000000
  Trans. dip. moment [a.u.]:           [  -0.000000,   -0.000000,   -0.000000]
  <i|r^2|0> [a.u.]:                    [  42.688437,   14.720067,   45.242902]

  Transition from electron-attached state   1 to electron-attached state   6:
  -------------------------------------------------------
  Transition:  1 (2) B2g  ->  6 (2) B2g
  Excitation energy:                                               6.394785 eV
  Osc. strength:                                                      0.000000
  Trans. dip. moment [a.u.]:           [  -0.000000,    0.000000,   -0.000000]
  <i|r^2|0> [a.u.]:                    [   1.410492,   -0.902697,   -2.721918]

  Transition from electron-attached state   2 to electron-attached state   6:
  -------------------------------------------------------
  Transition:  2 (2) B2g  ->  6 (2) B2g
  Excitation energy:                                               5.712198 eV
  Osc. strength:                                                      0.000000
  Trans. dip. moment [a.u.]:           [  -0.000000,   -0.000000,   -0.000000]
  <i|r^2|0> [a.u.]:                    [  -8.632723,    1.379866,    4.272682]

  Transition from electron-attached state   3 to electron-attached state   6:
  -------------------------------------------------------
  Transition:  3 (2) B2g  ->  6 (2) B2g
  Excitation energy:                                               4.974421 eV
  Osc. strength:                                                      0.000000
  Trans. dip. moment [a.u.]:           [  -0.000000,   -0.000000,   -0.000000]
  <i|r^2|0> [a.u.]:                    [  -4.638777,    1.403713,    4.744860]

  Transition from electron-attached state   4 to electron-attached state   6:
  -------------------------------------------------------
  Transition:  4 (2) B2g  ->  6 (2) B2g
  Excitation energy:                                               4.156209 eV
  Osc. strength:                                                      0.000000
  Trans. dip. moment [a.u.]:           [   0.000000,    0.000000,    0.000000]
  <i|r^2|0> [a.u.]:                    [  -4.389061,    2.046239,    5.611362]

  Transition from electron-attached state   5 to electron-attached state   6:
  -------------------------------------------------------
  Transition:  5 (2) B2g  ->  6 (2) B2g
  Excitation energy:                                               2.283599 eV
  Osc. strength:                                                      0.000000
  Trans. dip. moment [a.u.]:           [  -0.000000,   -0.000000,    0.000000]
  <i|r^2|0> [a.u.]:                    [  22.035856,    3.709625,   11.520880]

  Transition from electron-attached state   1 to electron-attached state   7:
  -------------------------------------------------------
  Transition:  1 (2) B2g  ->  7 (2) B2g
  Excitation energy:                                               8.353587 eV
  Osc. strength:                                                      0.000000
  Trans. dip. moment [a.u.]:           [   0.000000,   -0.000000,   -0.000000]
  <i|r^2|0> [a.u.]:                    [   6.439944,    1.340992,    4.046300]

  Transition from electron-attached state   2 to electron-attached state   7:
  -------------------------------------------------------
  Transition:  2 (2) B2g  ->  7 (2) B2g
  Excitation energy:                                               7.671000 eV
  Osc. strength:                                                      0.000000
  Trans. dip. moment [a.u.]:           [   0.000000,    0.000000,    0.000000]
  <i|r^2|0> [a.u.]:                    [   3.827367,    3.636340,   10.716435]

  Transition from electron-attached state   3 to electron-attached state   7:
  -------------------------------------------------------
  Transition:  3 (2) B2g  ->  7 (2) B2g
  Excitation energy:                                               6.933223 eV
  Osc. strength:                                                      0.000000
  Trans. dip. moment [a.u.]:           [  -0.000000,    0.000000,   -0.000000]
  <i|r^2|0> [a.u.]:                    [ -10.334705,   -1.612940,   -5.730638]

  Transition from electron-attached state   4 to electron-attached state   7:
  -------------------------------------------------------
  Transition:  4 (2) B2g  ->  7 (2) B2g
  Excitation energy:                                               6.115011 eV
  Osc. strength:                                                      0.000000
  Trans. dip. moment [a.u.]:           [  -0.000000,    0.000000,    0.000000]
  <i|r^2|0> [a.u.]:                    [ -15.885822,   -3.571546,   -9.820113]

  Transition from electron-attached state   5 to electron-attached state   7:
  -------------------------------------------------------
  Transition:  5 (2) B2g  ->  7 (2) B2g
  Excitation energy:                                               4.242401 eV
  Osc. strength:                                                      0.000000
  Trans. dip. moment [a.u.]:           [  -0.000000,   -0.000000,    0.000000]
  <i|r^2|0> [a.u.]:                    [ -22.074465,   -9.172131,  -28.328843]

  Transition from electron-attached state   6 to electron-attached state   7:
  -------------------------------------------------------
  Transition:  6 (2) B2g  ->  7 (2) B2g
  Excitation energy:                                               1.958802 eV
  Osc. strength:                                                      0.000000
  Trans. dip. moment [a.u.]:           [   0.000000,   -0.000000,   -0.000000]
  <i|r^2|0> [a.u.]:                    [  -4.222760,   -0.977534,   -2.491684]

  Transition from electron-attached state   1 to electron-attached state   8:
  -------------------------------------------------------
  Transition:  1 (2) B2g  ->  8 (2) B2g
  Excitation energy:                                              10.547271 eV
  Osc. strength:                                                      0.000000
  Trans. dip. moment [a.u.]:           [  -0.000000,    0.000000,    0.000000]
  <i|r^2|0> [a.u.]:                    [   0.000180,    0.001052,   -0.000821]

  Transition from electron-attached state   2 to electron-attached state   8:
[...]
-1.27116879006452937e-01 2.51014529914766614e-04 -6.51035323950752403e-05 -3.69608466200023141e-04 7.63160397381580256e-04 -1.62422889309660722e-03 -3.05857681843686811e-03 1.49813241731888870e-07 -4.88887936788915940e-06 -1.03471742287969590e+02

************************************************************
************************************************************
The real part of the CAP subspace matrix, onset=4500:
************************************************************
0.00000000000000000e+00 0.00000000000000000e+00 0.00000000000000000e+00 0.00000000000000000e+00 0.00000000000000000e+00 0.00000000000000000e+00 0.00000000000000000e+00 0.00000000000000000e+00 0.00000000000000000e+00 0.00000000000000000e+00
0.00000000000000000e+00 0.00000000000000000e+00 0.00000000000000000e+00 0.00000000000000000e+00 0.00000000000000000e+00 0.00000000000000000e+00 0.00000000000000000e+00 0.00000000000000000e+00 0.00000000000000000e+00 0.00000000000000000e+00
0.00000000000000000e+00 0.00000000000000000e+00 0.00000000000000000e+00 0.00000000000000000e+00 0.00000000000000000e+00 0.00000000000000000e+00 0.00000000000000000e+00 0.00000000000000000e+00 0.00000000000000000e+00 0.00000000000000000e+00
0.00000000000000000e+00 0.00000000000000000e+00 0.00000000000000000e+00 0.00000000000000000e+00 0.00000000000000000e+00 0.00000000000000000e+00 0.00000000000000000e+00 0.00000000000000000e+00 0.00000000000000000e+00 0.00000000000000000e+00
0.00000000000000000e+00 0.00000000000000000e+00 0.00000000000000000e+00 0.00000000000000000e+00 0.00000000000000000e+00 0.00000000000000000e+00 0.00000000000000000e+00 0.00000000000000000e+00 0.00000000000000000e+00 0.00000000000000000e+00
0.00000000000000000e+00 0.00000000000000000e+00 0.00000000000000000e+00 0.00000000000000000e+00 0.00000000000000000e+00 0.00000000000000000e+00 0.00000000000000000e+00 0.00000000000000000e+00 0.00000000000000000e+00 0.00000000000000000e+00
0.00000000000000000e+00 0.00000000000000000e+00 0.00000000000000000e+00 0.00000000000000000e+00 0.00000000000000000e+00 0.00000000000000000e+00 0.00000000000000000e+00 0.00000000000000000e+00 0.00000000000000000e+00 0.00000000000000000e+00
0.00000000000000000e+00 0.00000000000000000e+00 0.00000000000000000e+00 0.00000000000000000e+00 0.00000000000000000e+00 0.00000000000000000e+00 0.00000000000000000e+00 0.00000000000000000e+00 0.00000000000000000e+00 0.00000000000000000e+00
0.00000000000000000e+00 0.00000000000000000e+00 0.00000000000000000e+00 0.00000000000000000e+00 0.00000000000000000e+00 0.00000000000000000e+00 0.00000000000000000e+00 0.00000000000000000e+00 0.00000000000000000e+00 0.00000000000000000e+00
0.00000000000000000e+00 0.00000000000000000e+00 0.00000000000000000e+00 0.00000000000000000e+00 0.00000000000000000e+00 0.00000000000000000e+00 0.00000000000000000e+00 0.00000000000000000e+00 0.00000000000000000e+00 0.00000000000000000e+00

************************************************************
************************************************************
The imaginary part of the CAP subspace matrix, onset=4500:
************************************************************
-3.93953511348533638e+01 2.30447300710902496e+01 -2.21067910194768196e+01 -2.12450408362241987e+01 -5.28720526585394790e+00 4.04077582703837201e+00 2.08400211081034570e+00 9.92424016966887799e-05 -3.27168065193224594e-04 -1.01154135756340829e-01
2.30447300710902496e+01 -3.32048948313287013e+01 1.74293074915165640e+01 6.52091892319313882e+00 -9.20177105898498304e+00 -5.99711902825493226e+00 3.25758865937920117e+00 5.84937592058840431e-06 8.88088150660789276e-04 3.62684094921863500e-04
-2.21067910194768196e+01 1.74293074915165640e+01 -1.97319701267049226e+01 -2.09187647998325268e+01 -3.26019532214165508e+00 6.01503079058363888e+00 -6.96348345196522223e-01 2.49947658621240808e-04 8.82814140710809427e-04 -2.66175065412961647e-05
-2.12450408362241987e+01 6.52091892319313882e+00 -2.09187647998325268e+01 -3.25083157607445514e+01 -1.70264689602257384e+01 5.76216358907862425e+00 4.30239307327580178e+00 1.30848295303269012e-05 1.20208421607745689e-04 -2.30145070349158939e-04
-5.28720526585394790e+00 -9.20177105898498304e+00 -3.26019532214165508e+00 -1.70264689602257384e+01 -2.51064233665159584e+01 -3.74411482864074241e+00 1.22047096422795125e+01 -3.18972751920380501e-04 -5.62088848434684680e-04 6.76277412841023388e-04
4.04077582703837201e+00 -5.99711902825493226e+00 6.01503079058363888e+00 5.76216358907862425e+00 -3.74411482864074241e+00 -1.11752428431047122e+01 1.26839970115970568e+00 -1.92202521028294118e-05 2.45087983922070984e-03 -1.39042392375104376e-03
2.08400211081034570e+00 3.25758865937920117e+00 -6.96348345196522223e-01 4.30239307327580178e+00 1.22047096422795125e+01 1.26839970115970568e+00 -9.58318039030950075e+00 -4.08965049256372430e-04 -2.75612822220756446e-03 -2.72132668828382104e-03
9.92424016966887799e-05 5.84937592058840431e-06 2.49947658621240808e-04 1.30848295303269012e-05 -3.18972751920380501e-04 -1.92202521028294118e-05 -4.08965049256372430e-04 -8.92052087883740796e+01 -1.81286445410933084e-07 -2.42058119810569864e-08
-3.27168065193224594e-04 8.88088150660789276e-04 8.82814140710809427e-04 1.20208421607745689e-04 -5.62088848434684680e-04 2.45087983922070984e-03 -2.75612822220756446e-03 -1.81286445410933084e-07 -8.92052098790912424e+01 -3.85361053236006558e-06
-1.01154135756340829e-01 3.62684094921863500e-04 -2.66175065412961647e-05 -2.30145070349158939e-04 6.76277412841023388e-04 -1.39042392375104376e-03 -2.72132668828382104e-03 -2.42058119810569864e-08 -3.85361053236006558e-06 -9.44251980327139222e+01

************************************************************
************************************************************
The real part of the CAP subspace matrix, onset=5000:
************************************************************
0.00000000000000000e+00 0.00000000000000000e+00 0.00000000000000000e+00 0.00000000000000000e+00 0.00000000000000000e+00 0.00000000000000000e+00 0.00000000000000000e+00 0.00000000000000000e+00 0.00000000000000000e+00 0.00000000000000000e+00
0.00000000000000000e+00 0.00000000000000000e+00 0.00000000000000000e+00 0.00000000000000000e+00 0.00000000000000000e+00 0.00000000000000000e+00 0.00000000000000000e+00 0.00000000000000000e+00 0.00000000000000000e+00 0.00000000000000000e+00
0.00000000000000000e+00 0.00000000000000000e+00 0.00000000000000000e+00 0.00000000000000000e+00 0.00000000000000000e+00 0.00000000000000000e+00 0.00000000000000000e+00 0.00000000000000000e+00 0.00000000000000000e+00 0.00000000000000000e+00
0.00000000000000000e+00 0.00000000000000000e+00 0.00000000000000000e+00 0.00000000000000000e+00 0.00000000000000000e+00 0.00000000000000000e+00 0.00000000000000000e+00 0.00000000000000000e+00 0.00000000000000000e+00 0.00000000000000000e+00
0.00000000000000000e+00 0.00000000000000000e+00 0.00000000000000000e+00 0.00000000000000000e+00 0.00000000000000000e+00 0.00000000000000000e+00 0.00000000000000000e+00 0.00000000000000000e+00 0.00000000000000000e+00 0.00000000000000000e+00
0.00000000000000000e+00 0.00000000000000000e+00 0.00000000000000000e+00 0.00000000000000000e+00 0.00000000000000000e+00 0.00000000000000000e+00 0.00000000000000000e+00 0.00000000000000000e+00 0.00000000000000000e+00 0.00000000000000000e+00
0.00000000000000000e+00 0.00000000000000000e+00 0.00000000000000000e+00 0.00000000000000000e+00 0.00000000000000000e+00 0.00000000000000000e+00 0.00000000000000000e+00 0.00000000000000000e+00 0.00000000000000000e+00 0.00000000000000000e+00
0.00000000000000000e+00 0.00000000000000000e+00 0.00000000000000000e+00 0.00000000000000000e+00 0.00000000000000000e+00 0.00000000000000000e+00 0.00000000000000000e+00 0.00000000000000000e+00 0.00000000000000000e+00 0.00000000000000000e+00
0.00000000000000000e+00 0.00000000000000000e+00 0.00000000000000000e+00 0.00000000000000000e+00 0.00000000000000000e+00 0.00000000000000000e+00 0.00000000000000000e+00 0.00000000000000000e+00 0.00000000000000000e+00 0.00000000000000000e+00
0.00000000000000000e+00 0.00000000000000000e+00 0.00000000000000000e+00 0.00000000000000000e+00 0.00000000000000000e+00 0.00000000000000000e+00 0.00000000000000000e+00 0.00000000000000000e+00 0.00000000000000000e+00 0.00000000000000000e+00

************************************************************
************************************************************
The imaginary part of the CAP subspace matrix, onset=5000:
************************************************************
-3.58108842296420349e+01 2.03218231119153785e+01 -2.01029637026855106e+01 -1.97145695450478406e+01 -5.18035773131530863e+00 3.66427416089272251e+00 1.97327658524082650e+00 9.69186362578520105e-05 -3.42999546258320668e-04 -8.07546136879088439e-02
2.03218231119153785e+01 -2.91334413318113157e+01 1.59961362592936798e+01 6.74794068024556015e+00 -7.97767909608390369e+00 -5.57945908297509607e+00 3.00673257215675926e+00 1.07487477247860991e-05 8.53983587996957763e-04 4.26479522682622126e-04
-2.01029637026855106e+01 1.59961362592936798e+01 -1.76714575907046907e+01 -1.88131080537439672e+01 -3.43171480118797101e+00 5.41015902293319684e+00 -2.71423450669023847e-01 2.38116385316069329e-04 8.27009915969125929e-04 -7.23693316726243944e-06
-1.97145695450478406e+01 6.74794068024556015e+00 -1.88131080537439672e+01 -2.88598738880825429e+01 -1.55243095253749779e+01 4.92959979874567278e+00 4.29370487810006374e+00 1.56415787664852530e-05 1.35403786165702936e-04 -1.11552364390523335e-04
-5.18035773131530863e+00 -7.97767909608390369e+00 -3.43171480118797101e+00 -1.55243095253749779e+01 -2.19069028627405693e+01 -3.42765717762891953e+00 1.06723701747410047e+01 -3.01282120274740789e-04 -5.14022609329608735e-04 5.98501993542318710e-04
3.66427416089272251e+00 -5.57945908297509607e+00 5.41015902293319684e+00 4.92959979874567278e+00 -3.42765717762891953e+00 -8.94430565280233303e+00 1.42916913337308871e+00 -1.18946957342430356e-05 2.30808424253637658e-03 -1.18356836833533215e-03
1.97327658524082650e+00 3.00673257215675926e+00 -2.71423450669023847e-01 4.29370487810006374e+00 1.06723701747410047e+01 1.42916913337308871e+00 -7.87872849057774705e+00 -3.64696029366485337e-04 -2.48604400963463356e-03 -2.40412478673242887e-03
9.69186362578520105e-05 1.07487477247860991e-05 2.38116385316069329e-04 1.56415787664852530e-05 -3.01282120274740789e-04 -1.18946957342430356e-05 -3.64696029366485337e-04 -8.04858938133546502e+01 -1.73129784286629729e-07 -1.58493328951896249e-07
-3.42999546258320668e-04 8.53983587996957763e-04 8.27009915969125929e-04 1.35403786165702936e-04 -5.14022609329608735e-04 2.30808424253637658e-03 -2.48604400963463356e-03 -1.73129784286629729e-07 -8.04858951745832201e+01 -3.02432867928589940e-06
-8.07546136879088439e-02 4.26479522682622126e-04 -7.23693316726243944e-06 -1.11552364390523335e-04 5.98501993542318710e-04 -1.18356836833533215e-03 -2.40412478673242887e-03 -1.58493328951896249e-07 -3.02432867928589940e-06 -8.58408286598349832e+01

************************************************************
  Printing results (es2es) ...  CPU 0.02 s  wall 0.12 s
  Time of ADC calculation:  CPU 447.04 s  wall 75.42 s
--------------------------------------------------------------------------------
================================================================================
 
 --------------------------------------------------------------
             Orbital Energies (a.u.) and Symmetries
 --------------------------------------------------------------
 
 Alpha MOs, Restricted
 -- Occupied --                  
-11.228 -11.226  -1.040  -0.781  -0.661  -0.568  -0.516  -0.377
  1 Ag    1 B3u   2 Ag    2 B3u   1 B2u   3 Ag    1 B1g   1 B1u                
 -- Virtual --                   
  0.010   0.010   0.011   0.016   0.016   0.018   0.031   0.033
  3 B3u   2 B2u   2 B1u   2 B1g   1 B2g   4 Ag    4 B3u   3 B2u                
  0.035   0.039   0.042   0.042   0.058   0.069   0.073   0.078
  3 B1u   5 Ag    3 B1g   2 B2g   6 Ag    5 B3u   4 B2u   4 B1u                
  0.082   0.085   0.094   0.129   0.131   0.134   0.142   0.142
  3 B2g   4 B1g   7 Ag    4 B2g   6 B3u   8 Ag    1 B3g   5 B2u                
  0.153   0.155   0.156   0.169   0.185   0.186   0.188   0.191
  5 B1u   5 B1g   9 Ag    7 B3u   6 B2u   8 B3u   5 B2g   1 Au                 
  0.197   0.239   0.241   0.243   0.258   0.273   0.293   0.299
  6 B1u   9 B3u  10 Ag    6 B1g   6 B2g   7 B2u  11 Ag    7 B1g                
  0.302   0.327   0.352   0.355   0.375   0.391   0.403   0.434
  7 B1u  12 Ag    7 B2g  10 B3u   8 B2u   2 B3g  11 B3u  13 Ag                 
  0.442   0.474   0.487   0.490   0.496   0.509   0.572   0.590
  9 B2u   8 B1g  12 B3u  14 Ag    2 Au    8 B1u  13 B3u   9 B1g                
  0.635   0.696   0.707   0.760   0.764   0.768   0.791   0.811
  8 B2g  10 B2u  14 B3u   9 B1u  15 Ag   11 B2u  10 B1g  16 Ag                 
  0.836   0.865   0.872   0.978   1.005   1.023   1.082   1.140
 15 B3u   9 B2g  17 Ag   16 B3u  11 B1g   3 B3g  10 B1u  18 Ag                 
  1.144   1.151   1.203   1.205   1.230   1.263   1.280   1.376
  3 Au   17 B3u  10 B2g  12 B2u  11 B1u   4 B3g  12 B1g  19 Ag                 
  1.423   1.506   1.521   1.553   1.624   1.664   1.684   1.735
 18 B3u  11 B2g  13 B2u  14 B2u  20 Ag   19 B3u   4 Au   13 B1g                
  1.864   2.004   2.030   2.102   2.579   2.736   2.746   2.761
 20 B3u  21 Ag   21 B3u  14 B1g  12 B1u  22 Ag   15 B2u  23 Ag                 
  2.781   2.803   2.901   2.919   2.996   2.997   3.071   3.105
 12 B2g  16 B2u  15 B1g  13 B1u   5 B3g  22 B3u  16 B1g  14 B1u                
  3.136   3.164   3.229   3.267   3.267   3.291   3.463   3.468
 17 B2u  24 Ag    5 Au   13 B2g   6 B3g  25 Ag   23 B3u  18 B2u                
  3.484   3.506   3.516   3.531   3.555   3.617   3.645   3.662
  6 Au   14 B2g  17 B1g  24 B3u  25 B3u  15 B1u   7 B3g  26 Ag                 
  3.798   3.824   3.980   4.008   4.025   4.030   4.061   4.066
 19 B2u  18 B1g  15 B2g  26 B3u  19 B1g  20 B2u  16 B1u  27 Ag                 
  4.118   4.222   4.288   4.299   4.350   4.355   4.368   4.596
  7 Au   27 B3u  28 Ag    8 B3g  20 B1g  16 B2g  17 B1u  28 B3u                
  4.616   4.666   4.705   4.797   4.856   4.947   5.050   5.089
 21 B2u   8 Au   29 Ag   29 B3u  17 B2g  18 B1u  30 Ag   21 B1g                
  5.166   5.224   5.314   5.366   5.427   5.483   5.543   5.677
 22 B2u   9 B3g  30 B3u  31 Ag    9 Au   22 B1g  18 B2g  23 B2u                
  5.724   6.111   6.187   6.319   6.666   6.898  12.927  15.370
 32 Ag   23 B1g  31 B3u  24 B2u  32 B3u  24 B1g  33 Ag   33 B3u                
 
 Beta MOs, Restricted
 -- Occupied --                  
-11.228 -11.226  -1.040  -0.781  -0.661  -0.568  -0.516  -0.377
  1 Ag    1 B3u   2 Ag    2 B3u   1 B2u   3 Ag    1 B1g   1 B1u                
 -- Virtual --                   
  0.010   0.010   0.011   0.016   0.016   0.018   0.031   0.033
  3 B3u   2 B2u   2 B1u   2 B1g   1 B2g   4 Ag    4 B3u   3 B2u                
  0.035   0.039   0.042   0.042   0.058   0.069   0.073   0.078
  3 B1u   5 Ag    3 B1g   2 B2g   6 Ag    5 B3u   4 B2u   4 B1u                
  0.082   0.085   0.094   0.129   0.131   0.134   0.142   0.142
  3 B2g   4 B1g   7 Ag    4 B2g   6 B3u   8 Ag    1 B3g   5 B2u                
  0.153   0.155   0.156   0.169   0.185   0.186   0.188   0.191
  5 B1u   5 B1g   9 Ag    7 B3u   6 B2u   8 B3u   5 B2g   1 Au                 
  0.197   0.239   0.241   0.243   0.258   0.273   0.293   0.299
  6 B1u   9 B3u  10 Ag    6 B1g   6 B2g   7 B2u  11 Ag    7 B1g                
  0.302   0.327   0.352   0.355   0.375   0.391   0.403   0.434
  7 B1u  12 Ag    7 B2g  10 B3u   8 B2u   2 B3g  11 B3u  13 Ag                 
  0.442   0.474   0.487   0.490   0.496   0.509   0.572   0.590
  9 B2u   8 B1g  12 B3u  14 Ag    2 Au    8 B1u  13 B3u   9 B1g                
  0.635   0.696   0.707   0.760   0.764   0.768   0.791   0.811
  8 B2g  10 B2u  14 B3u   9 B1u  15 Ag   11 B2u  10 B1g  16 Ag                 
  0.836   0.865   0.872   0.978   1.005   1.023   1.082   1.140
 15 B3u   9 B2g  17 Ag   16 B3u  11 B1g   3 B3g  10 B1u  18 Ag                 
  1.144   1.151   1.203   1.205   1.230   1.263   1.280   1.376
  3 Au   17 B3u  10 B2g  12 B2u  11 B1u   4 B3g  12 B1g  19 Ag                 
  1.423   1.506   1.521   1.553   1.624   1.664   1.684   1.735
 18 B3u  11 B2g  13 B2u  14 B2u  20 Ag   19 B3u   4 Au   13 B1g                
  1.864   2.004   2.030   2.102   2.579   2.736   2.746   2.761
 20 B3u  21 Ag   21 B3u  14 B1g  12 B1u  22 Ag   15 B2u  23 Ag                 
  2.781   2.803   2.901   2.919   2.996   2.997   3.071   3.105
 12 B2g  16 B2u  15 B1g  13 B1u   5 B3g  22 B3u  16 B1g  14 B1u                
  3.136   3.164   3.229   3.267   3.267   3.291   3.463   3.468
 17 B2u  24 Ag    5 Au   13 B2g   6 B3g  25 Ag   23 B3u  18 B2u                
  3.484   3.506   3.516   3.531   3.555   3.617   3.645   3.662
  6 Au   14 B2g  17 B1g  24 B3u  25 B3u  15 B1u   7 B3g  26 Ag                 
  3.798   3.824   3.980   4.008   4.025   4.030   4.061   4.066
 19 B2u  18 B1g  15 B2g  26 B3u  19 B1g  20 B2u  16 B1u  27 Ag                 
  4.118   4.222   4.288   4.299   4.350   4.355   4.368   4.596
  7 Au   27 B3u  28 Ag    8 B3g  20 B1g  16 B2g  17 B1u  28 B3u                
  4.616   4.666   4.705   4.797   4.856   4.947   5.050   5.089
 21 B2u   8 Au   29 Ag   29 B3u  17 B2g  18 B1u  30 Ag   21 B1g                
  5.166   5.224   5.314   5.366   5.427   5.483   5.543   5.677
 22 B2u   9 B3g  30 B3u  31 Ag    9 Au   22 B1g  18 B2g  23 B2u                
  5.724   6.111   6.187   6.319   6.666   6.898  12.927  15.370
 32 Ag   23 B1g  31 B3u  24 B2u  32 B3u  24 B1g  33 Ag   33 B3u                
 --------------------------------------------------------------
 
          Ground-State Mulliken Net Atomic Charges

     Atom                 Charge (a.u.)
  ----------------------------------------
      1 C                    -0.349372
      2 C                    -0.349372
      3 H                     0.174686
      4 H                     0.174686
      5 H                     0.174686
      6 H                     0.174686
  ----------------------------------------
  Sum of atomic charges =     0.000000

 -----------------------------------------------------------------
                    Cartesian Multipole Moments
 -----------------------------------------------------------------
    Charge (ESU x 10^10)
                 0.0000
    Dipole Moment (Debye)
         X      -0.0000      Y      -0.0000      Z       0.0000
       Tot       0.0000
    Quadrupole Moments (Debye-Ang)
        XX     -12.8319     XY       0.0000     YY     -11.9245
        XZ      -0.0000     YZ      -0.0000     ZZ     -16.1256
    Octopole Moments (Debye-Ang^2)
       XXX      -0.0000    XXY      -0.0000    XYY      -0.0000
       YYY      -0.0000    XXZ      -0.0000    XYZ       0.0000
       YYZ      -0.0000    XZZ      -0.0000    YZZ      -0.0000
       ZZZ       0.0000
    Hexadecapole Moments (Debye-Ang^3)
      XXXX     -67.9369   XXXY      -0.0000   XXYY     -13.0892
      XYYY      -0.0000   YYYY     -26.7725   XXXZ      -0.0000
      XXYZ      -0.0000   XYYZ      -0.0000   YYYZ      -0.0000
      XXZZ     -15.3982   XYZZ      -0.0000   YYZZ      -9.0156
      XZZZ      -0.0000   YZZZ      -0.0000   ZZZZ     -21.4680
 -----------------------------------------------------------------
 Total job time:  161.64s(wall), 509.10s(cpu) 
 Wed Apr  6 18:39:32 2022

        *************************************************************
        *                                                           *
        *  Thank you very much for using Q-Chem.  Have a nice day.  *
        *                                                           *
        *************************************************************


