/src/tsommerfeld/qchem/exe/qcprog.exe .cap.inp.22617.qcin.1 /src/jdavis/qchem.scratch/qchem22617/

                  Welcome to Q-Chem
     A Quantum Leap Into The Future Of Chemistry


 Q-Chem 5.4 (devel), Q-Chem, Inc., Pleasanton, CA (2021)

 E. Epifanovsky,  A. T. B. Gilbert,  Xintian Feng,  Joonho Lee,  Yuezhi Mao,  
 N. Mardirossian,  P. Pokhilko,  A. White,  M. Wormit,  M. P. Coons,  
 A. L. Dempwolff,  Zhengting Gan,  D. Hait,  P. R. Horn,  L. D. Jacobson,  
 I. Kaliman,  J. Kussmann,  A. W. Lange,  Ka Un Lao,  D. S. Levine,  Jie Liu,  
 S. C. McKenzie,  A. F. Morrison,  K. Nanda,  F. Plasser,  D. R. Rehn,  
 M. L. Vidal,  Zhi-Qiang You,  Ying Zhu,  B. Alam,  B. Albrecht,  
 A. Aldossary,  E. Alguire,  J. H. Andersen,  D. Barton,  K. Begam,  A. Behn,  
 Y. A. Bernard,  E. J. Berquist,  H. Burton,  A. Carreras,  K. Carter-Fenk,  
 R. Chakraborty,  A. D. Chien,  K. D. Closser,  V. Cofer-Shabica,  
 S. Dasgupta,  Jia Deng,  M. de Wergifosse,  M. Diedenhofen,  Hainam Do,  
 S. Ehlert,  Po-Tung Fang,  S. Fatehi,  Qingguo Feng,  T. Friedhoff,  
 J. Gayvert,  Qinghui Ge,  G. Gidofalvi,  M. Goldey,  J. Gomes,  
 C. Gonzalez-Espinoza,  S. Gulania,  A. Gunina,  M. W. D. Hanson-Heine,  
 P. H. P. Harbach,  A. W. Hauser,  M. F. Herbst,  M. Hernandez Vera,  
 M. Hodecker,  Z. C. Holden,  S. Houck,  Xunkun Huang,  Kerwin Hui,  
 B. C. Huynh,  M. Ivanov,  Hyunjun Ji,  Hanjie Jiang,  B. Kaduk,  S. Kaehler,  
 K. Khistyaev,  Jaehoon Kim,  P. Klunzinger,  Z. Koczor-Benda,  
 Joong Hoon Koh,  D. Kosenkov,  L. Koulias,  T. Kowalczyk,  C. M. Krauter,  
 K. Kue,  A. Kunitsa,  T. Kus,  A. Landau,  K. V. Lawler,  D. Lefrancois,  
 S. Lehtola,  Rain Li,  Yi-Pei Li,  Jiashu Liang,  M. Liebenthal,  
 Hung-Hsuan Lin,  You-Sheng Lin,  Fenglai Liu,  Kuan-Yu Liu,  
 M. Loipersberger,  A. Luenser,  A. Manjanath,  P. Manohar,  E. Mansoor,  
 S. F. Manzer,  Shan-Ping Mao,  A. V. Marenich,  T. Markovich,  S. Mason,  
 S. A. Maurer,  P. F. McLaughlin,  M. F. S. J. Menger,  J.-M. Mewes,  
 S. A. Mewes,  P. Morgante,  J. W. Mullinax,  K. J. Oosterbaan,  G. Paran,  
 Alexander C. Paul,  Suranjan K. Paul,  F. Pavosevic,  Zheng Pei,  S. Prager,  
 E. I. Proynov,  E. Ramos,  B. Rana,  A. E. Rask,  A. Rettig,  R. M. Richard,  
 F. Rob,  E. Rossomme,  T. Scheele,  M. Scheurer,  M. Schneider,  
 N. Sergueev,  S. M. Sharada,  W. Skomorowski,  D. W. Small,  C. J. Stein,  
 Yu-Chuan Su,  E. J. Sundstrom,  Zhen Tao,  J. Thirman,  T. Tsuchimochi,  
 N. M. Tubman,  S. P. Veccham,  O. Vydrov,  J. Wenzel,  J. Witte,  A. Yamada,  
 Kun Yao,  S. Yeganeh,  S. R. Yost,  A. Zech,  Igor Ying Zhang,  Xing Zhang,  
 Yu Zhang,  D. Zuev,  A. Aspuru-Guzik,  A. T. Bell,  N. A. Besley,  
 K. B. Bravaya,  B. R. Brooks,  D. Casanova,  Jeng-Da Chai,  S. Coriani,  
 C. J. Cramer,  A. E. DePrince, III,  R. A. DiStasio Jr.,  A. Dreuw,  
 B. D. Dunietz,  T. R. Furlani,  W. A. Goddard III,  S. Grimme,  
 S. Hammes-Schiffer,  T. Head-Gordon,  W. J. Hehre,  Chao-Ping Hsu,  
 T.-C. Jagau,  Yousung Jung,  A. Klamt,  Jing Kong,  D. S. Lambrecht,  
 WanZhen Liang,  N. J. Mayhall,  C. W. McCurdy,  J. B. Neaton,  
 C. Ochsenfeld,  J. A. Parkhill,  R. Peverati,  V. A. Rassolov,  Yihan Shao,  
 L. V. Slipchenko,  T. Stauch,  R. P. Steele,  J. E. Subotnik,  
 A. J. W. Thom,  A. Tkatchenko,  D. G. Truhlar,  T. Van Voorhis,  
 T. A. Wesolowski,  K. B. Whaley,  H. L. Woodcock III,  P. M. Zimmerman,  
 S. Faraji,  P. M. W. Gill,  M. Head-Gordon,  J. M. Herbert,  A. I. Krylov

 Additional authors for Version 5.4.1: 
 S. Kotaru,  Shaozhi Li,  Xiangyuan Li,  F. Matz,  A. Molle,  Haisheng Ren,  
 Yingli Su,  Hung-Yi Tsai,  C. Utku,  Fang Wang

 Contributors to earlier versions of Q-Chem not listed above: 
 R. D. Adamson,  B. Austin,  R. Baer,  J. Baker,  G. J. O. Beran,  
 K. Brandhorst,  S. T. Brown,  E. F. C. Byrd,  A. K. Chakraborty,  
 G. K. L. Chan,  Chun-Min Chang,  Yunqing Chen,  C.-L. Cheng,  
 Siu Hung Chien,  D. M. Chipman,  D. L. Crittenden,  H. Dachsel,  
 R. J. Doerksen,  A. D. Dutoi,  R. G. Edgar,  J. Fosso-Tande,  
 L. Fusti-Molnar,  D. Ghosh,  A. Ghysels,  A. Golubeva-Zadorozhnaya,  
 J. Gonthier,  M. S. Gordon,  S. R. Gwaltney,  G. Hawkins,  J. E. Herr,  
 A. Heyden,  S. Hirata,  E. G. Hohenstein,  G. Kedziora,  F. J. Keil,  
 C. Kelley,  Jihan Kim,  R. A. King,  R. Z. Khaliullin,  P. P. Korambath,  
 W. Kurlancheek,  A. Laurent,  A. M. Lee,  M. S. Lee,  S. V. Levchenko,  
 Ching Yeh Lin,  D. Liotard,  E. Livshits,  R. C. Lochan,  I. Lotan,  
 L. A. Martinez-Martinez,  P. E. Maslen,  N. Nair,  D. P. O'Neill,  
 D. Neuhauser,  E. Neuscamman,  C. M. Oana,  R. Olivares-Amaya,  R. Olson,  
 T. M. Perrine,  B. Peters,  P. A. Pieniazek,  A. Prociuk,  Y. M. Rhee,  
 J. Ritchie,  M. A. Rohrdanz,  E. Rosta,  N. J. Russ,  H. F. Schaefer III,  
 M. W. Schmidt,  N. E. Schultz,  S. Sharma,  N. Shenvi,  C. D. Sherrill,  
 A. C. Simmonett,  A. Sodt,  T. Stein,  D. Stuck,  K. S. Thanthiriwatte,  
 V. Vanovschi,  L. Vogt,  Tao Wang,  A. Warshel,  M. A. Watson,  
 C. F. Williams,  Q. Wu,  X. Xu,  Jun Yang,  W. Zhang,  Yan Zhao

 Please cite Q-Chem as follows:
 Y. Shao et al., Mol. Phys. 113, 184-215 (2015)
 DOI: 10.1080/00268976.2014.952696

 Q-Chem 5.4.1 for Intel X86 EM64T Linux

 Parts of Q-Chem use Armadillo 9.900.5 (Nocturnal Misbehaviour).
 http://arma.sourceforge.net/

 Q-Chem begins on Tue Mar 29 21:08:21 2022  

 Host: node01
0

     Scratch files written to /src/jdavis/qchem.scratch/qchem22617//
 Processing $rem in /src/tsommerfeld/qchem/config/preferences:
 Processing $rem in /home/jdavis/.qchemrc:

 Checking the input file for inconsistencies... 	...done.

--------------------------------------------------------------
User input:
--------------------------------------------------------------
$comment
	H_Ethylene CAP-ADC(2)-x
	Basis: C: aDZ+4p1d, H: DZ
$end

$molecule
-1 1
C        -0.6645000000    0.0000000000   -0.1764707059
C         0.6645000000    0.0000000000   -0.1764707059
H        -1.1590800000    0.0000000000    0.7858782941
H         1.1590800000    0.0000000000    0.7858782941
H        -1.1590800000    0.0000000000   -1.1388187059
H         1.1590800000    0.0000000000   -1.1388187059
H         0.0000000000    0.0000000000    2.8235292941
$end

$rem
	basis gen
	method adc(2)-x
        EE_STATES [0,30,0,0]
	scf_convergence 8
	thresh 14
	adc_cap 1
	cap_type 2
	cap_x 1500
	cap_x_end 5000
	cap_x_step 500
	xc_grid 000250000974
	adc_print 3
	adc_davidson_conv 5
	adc_nguess_singles 100
	adc_nguess_doubles 50
	adc_davidson_maxsubspace 400
	adc_davidson_maxiter 40
	adc_davidson_thresh 14
	mem_total 95000
	threads 12
$end

$basis
C     1
S   9   1.00
      6.665000D+03           6.920000D-04
      1.000000D+03           5.329000D-03
      2.280000D+02           2.707700D-02
      6.471000D+01           1.017180D-01
      2.106000D+01           2.747400D-01
      7.495000D+00           4.485640D-01
      2.797000D+00           2.850740D-01
      5.215000D-01           1.520400D-02
      1.596000D-01          -3.191000D-03
S   9   1.00
      6.665000D+03          -1.460000D-04
      1.000000D+03          -1.154000D-03
      2.280000D+02          -5.725000D-03
      6.471000D+01          -2.331200D-02
      2.106000D+01          -6.395500D-02
      7.495000D+00          -1.499810D-01
      2.797000D+00          -1.272620D-01
      5.215000D-01           5.445290D-01
      1.596000D-01           5.804960D-01
S   1   1.00
      1.596000D-01           1.000000D+00
S   1   1.00
      0.0469000              1.0000000
P   4   1.00
      9.439000D+00           3.810900D-02
      2.002000D+00           2.094800D-01
      5.456000D-01           5.085570D-01
      1.517000D-01           4.688420D-01
P   1   1.00
      1.517000D-01           1.000000D+00
P   1   1.00
      0.0404100              1.0000000
P    1  1.00
     0.0269400   1.0
P    1  1.00
     0.0179600   1.0
P    1  1.00
     0.0119733   1.0
P    1  1.00
     0.0079822   1.0
D   1   1.00
      5.500000D-01           1.0000000
D   1   1.00
      0.1510000              1.0000000
D    1  1.00
     0.0755000   1.0
****
C     2
S   9   1.00
      6.665000D+03           6.920000D-04
      1.000000D+03           5.329000D-03
      2.280000D+02           2.707700D-02
      6.471000D+01           1.017180D-01
      2.106000D+01           2.747400D-01
      7.495000D+00           4.485640D-01
      2.797000D+00           2.850740D-01
      5.215000D-01           1.520400D-02
      1.596000D-01          -3.191000D-03
S   9   1.00
      6.665000D+03          -1.460000D-04
      1.000000D+03          -1.154000D-03
      2.280000D+02          -5.725000D-03
      6.471000D+01          -2.331200D-02
      2.106000D+01          -6.395500D-02
      7.495000D+00          -1.499810D-01
      2.797000D+00          -1.272620D-01
      5.215000D-01           5.445290D-01
      1.596000D-01           5.804960D-01
S   1   1.00
      1.596000D-01           1.000000D+00
S   1   1.00
      0.0469000              1.0000000
P   4   1.00
      9.439000D+00           3.810900D-02
      2.002000D+00           2.094800D-01
      5.456000D-01           5.085570D-01
      1.517000D-01           4.688420D-01
P   1   1.00
      1.517000D-01           1.000000D+00
P   1   1.00
      0.0404100              1.0000000
P    1  1.00
     0.0269400   1.0
P    1  1.00
     0.0179600   1.0
P    1  1.00
     0.0119733   1.0
P    1  1.00
     0.0079822   1.0
D   1   1.00
      5.500000D-01           1.0000000
D   1   1.00
      0.1510000              1.0000000
D    1  1.00
     0.0755000   1.0
****
H     3
S   4   1.00
      1.301000D+01           1.968500D-02
      1.962000D+00           1.379770D-01
      4.446000D-01           4.781480D-01
      1.220000D-01           5.012400D-01
S   1   1.00
      1.220000D-01           1.000000D+00
P   1   1.00
      7.270000D-01           1.0000000
****
H     4
S   4   1.00
      1.301000D+01           1.968500D-02
      1.962000D+00           1.379770D-01
      4.446000D-01           4.781480D-01
      1.220000D-01           5.012400D-01
S   1   1.00
      1.220000D-01           1.000000D+00
P   1   1.00
      7.270000D-01           1.0000000
****
H     5
S   4   1.00
      1.301000D+01           1.968500D-02
      1.962000D+00           1.379770D-01
      4.446000D-01           4.781480D-01
      1.220000D-01           5.012400D-01
S   1   1.00
      1.220000D-01           1.000000D+00
P   1   1.00
      7.270000D-01           1.0000000
****
H     6
S   4   1.00
      1.301000D+01           1.968500D-02
      1.962000D+00           1.379770D-01
      4.446000D-01           4.781480D-01
      1.220000D-01           5.012400D-01
S   1   1.00
      1.220000D-01           1.000000D+00
P   1   1.00
      7.270000D-01           1.0000000
****
H     7
S    4   1.00
      1.301000D+01           1.968500D-02
      1.962000D+00           1.379770D-01
      4.446000D-01           4.781480D-01
      1.220000D-01           5.012400D-01
S    1   1.00
      1.220000D-01           1.000000D+00
S    1   1.00
      0.0297400              1.0000000
P    1   1.00
      7.270000D-01           1.0000000
P    1   1.00
      0.1410000              1.0000000
****
$end
--------------------------------------------------------------
 ----------------------------------------------------------------
             Standard Nuclear Orientation (Angstroms)
    I     Atom           X                Y                Z
 ----------------------------------------------------------------
    1      C      -0.6645000000    -0.0000000000    -0.1764707059
    2      C       0.6645000000     0.0000000000    -0.1764707059
    3      H      -1.1590800000    -0.0000000000     0.7858782941
    4      H       1.1590800000     0.0000000000     0.7858782941
    5      H      -1.1590800000    -0.0000000000    -1.1388187059
    6      H       1.1590800000     0.0000000000    -1.1388187059
    7      H       0.0000000000     0.0000000000     2.8235292941
 ----------------------------------------------------------------
 Molecular Point Group                 C2v   NOp =  4
 Largest Abelian Subgroup              C2v   NOp =  4
 Nuclear Repulsion Energy =          36.36366470 hartrees
 There are        9 alpha and        9 beta electrons
 Requested basis set is non-standard
 There are 43 shells and 105 basis functions
 Total memory of 95000 MB is distributed as follows: 
   MEM_STATIC is set to 192 MB
   QALLOC/CCMAN JOB total memory use is  94808 MB
 Warning: actual memory use might exceed 95000 MB

 Total QAlloc Memory Limit  95000 MB
 Mega-Array Size       188 MB
 MEM_STATIC part       192 MB

                       Distance Matrix (Angstroms)
             C (  1)   C (  2)   H (  3)   H (  4)   H (  5)   H (  6)
   C (  2)  1.329000
   H (  3)  1.082000  2.061931
   H (  4)  2.061931  1.082000  2.318160
   H (  5)  1.082000  2.061931  1.924697  3.013026
   H (  6)  2.061931  1.082000  3.013026  1.924697  2.318160
   H (  7)  3.072712  3.072712  2.344246  2.344246  4.128398  4.128398

 
 A cutoff of  1.0D-14 yielded    946 shell pairs
 There are      5682 function pairs (      6363 Cartesian)
 Smallest overlap matrix eigenvalue = 7.57E-06

 Scale SEOQF with 1.000000e-01/1.000000e-01/1.000000e-01

 Standard Electronic Orientation quadrupole field applied
 Nucleus-field energy     =    -0.0000000009 hartrees
 ================ Generating on-the-fly SAD Guess ================
Attempting to make child job directory: /src/jdavis/qchem.scratch/qchem22617//Frg1/
Attempting to make child job directory: /src/jdavis/qchem.scratch/qchem22617//Frg2/
Creating input file /src/jdavis/qchem.scratch/qchem22617/Frg1.input
using default PutDataFrgm: nothing
calling putenv with: QCSCRATCH=/src/jdavis/qchem.scratch/qchem22617/ 
Spawning Job For Fragment 0
Done Job For Fragment 0
calling putenv with: QCSCRATCH=/src/jdavis/qchem.scratch 
calling putenv with: QCTHREADS=1 
Creating input file /src/jdavis/qchem.scratch/qchem22617/Frg2.input
using default PutDataFrgm: nothing
calling putenv with: QCSCRATCH=/src/jdavis/qchem.scratch/qchem22617/ 
Spawning Job For Fragment 1
Done Job For Fragment 1
calling putenv with: QCSCRATCH=/src/jdavis/qchem.scratch 
calling putenv with: QCTHREADS=1 
 Time for running child jobs:  CPU 2.15 s  wall 54.96 s
 ============= Method Specific SAD Guess Constructed =============
 Guess from on-the-fly superposition of atomic densities
 Warning: Energy on first SCF cycle will be non-variational
 A restricted Hartree-Fock SCF calculation will be
 performed using Pulay DIIS extrapolation
 SCF converges when DIIS error is below 1.0E-08
 using 12 threads for integral computing
 -------------------------------------------------------
 OpenMP Integral computing Module                
 Release: version 1.0, May 2013, Q-Chem Inc. Pittsburgh 
 -------------------------------------------------------
 ---------------------------------------
  Cycle       Energy         DIIS Error
 ---------------------------------------
    1     -78.8136340917      4.71E-02
    2     -78.4636630145      4.49E-03
    3     -78.5168639292      1.17E-03
    4     -78.5198029745      3.69E-04
    5     -78.5201612521      8.12E-05
    6     -78.5201897017      1.91E-05
    7     -78.5201921328      5.32E-06
    8     -78.5201924219      9.30E-07
    9     -78.5201924328      2.18E-07
   10     -78.5201924337      4.61E-08
   11     -78.5201924333      9.90E-09 Convergence criterion met
 ---------------------------------------
 SCF time:  CPU 15.24 s  wall 1.28 s
 SCF   energy in the final basis set = -78.52019243
 Total energy in the final basis set = -78.52019243
================================================================================
|                                                                              |
|                                 A D C  M A N                                 |
|                                                                              |
 ------------------------------------------------------------------------------ 
|                                                                              |
| Components:                                                                  |
|                                                                              |
| - libvmm - 1.3-trunk                                                         |
|   Authors:                                                                   |
|   Evgeny Epifanovsky, Ilya Kaliman                                           |
|                                                                              |
| - libtensor - 2.5-trunk                                                      |
|   Authors:                                                                   |
|   Evgeny Epifanovsky, Michael Wormit, Dmitry Zuev, Sam Manzer,               |
|   Ilya Kaliman                                                               |
|                                                                              |
| - libwfa - 1.1-trunk                                                         |
|   Authors:                                                                   |
|   Felix Plasser, Stefanie Mewes (Baeppler), Benjamin Thomitzni,              |
|   Michael Wormit, Feng Chen, Anna I. Krylov, Pavel Pokhilko                  |
|                                                                              |
| - libadc - 1.1-trunk                                                         |
|   Authors:                                                                   |
|   Michael Wormit, Adrian L. Dempwolff, Philipp H. P. Harbach,                |
|   Caroline Krauter, Dirk Rehn, Matthias Schneider, Jan Wenzel                |
|                                                                              |
| - adcman - 2.6-trunk                                                         |
|   Authors:                                                                   |
|   Michael Wormit, Adrian L. Dempwolff, Philipp H. P. Harbach,                |
|   Caroline Krauter, Daniel Lefrancois, Jan-Michael Mewes, Dirk Rehn,         |
|   Matthias Schneider, Jan Wenzel, Andreas Dreuw                              |
|                                                                              |
| Authors of earlier versions of ADCMAN:                                       |
| Andreas Dreuw, Jan Hendrik Starcke, Dirk Rehn, Michael Wormit                |
|                                                                              |
================================================================================

  Import QC data ...  CPU 0.00 s  wall 0.00 s
 
 Alpha MOs, Restricted
 -- Occupied --                  
-11.074 -11.072  -0.880  -0.622  -0.497  -0.407  -0.351  -0.217
  1 A1    1 B1    2 A1    2 B1    3 A1    4 A1    3 B1    1 B2                 
 -0.045
  5 A1                                                                         
 -- Virtual --                   
  0.061   0.067   0.068   0.068   0.072   0.083   0.102   0.112
  4 B1    2 B2    6 A1    1 A2    5 B1    7 A1    6 B1    3 B2                 
  0.114   0.115   0.122   0.128   0.159   0.166   0.176   0.176
  2 A2    8 A1    7 B1    9 A1    8 B1   10 A1    4 B2    3 A2                 
  0.186   0.188   0.232   0.247   0.253   0.268   0.276   0.281
 11 A1    9 B1   12 A1   10 B1    4 A2   13 A1    5 B2   11 B1                 
  0.298   0.311   0.326   0.356   0.379   0.380   0.404   0.416
 12 B1   14 A1    5 A2    6 B2   15 A1   13 B1   16 A1    7 B2                 
  0.419   0.430   0.433   0.447   0.468   0.483   0.492   0.521
  6 A2   17 A1   14 B1   15 B1    7 A2   18 A1    8 B2   16 B1                 
  0.557   0.560   0.591   0.631   0.637   0.642   0.693   0.721
 17 B1   19 A1   20 A1   18 B1   21 A1    8 A2   22 A1   19 B1                 
  0.726   0.761   0.797   0.799   0.851   0.868   0.877   0.998
  9 B2   23 A1   24 A1   20 B1   10 B2    9 A2   21 B1   22 B1                 
  1.064   1.071   1.077   1.213   1.242   1.253   1.265   1.284
 23 B1   10 A2   25 A1   11 B2   26 A1   24 B1   27 A1   11 A2                 
  1.352   1.385   1.432   1.669   1.699   1.733   1.803   1.815
 25 B1   28 A1   29 A1   26 B1   27 B1   30 A1   12 B2   13 B2                 
  1.885   1.931   1.952   1.956   1.973   2.057   2.107   2.107
 14 B2   31 A1   28 B1   12 A2   32 A1   13 A2   15 B2   29 B1                 
  2.147   2.148   2.193   2.201   2.415   2.436   2.524   2.637
 33 A1   30 B1   16 B2   34 A1   35 A1   31 B1   14 A2   15 A2                 
  2.730   2.797   2.819   2.885   3.062   3.077   3.620   3.818
 36 A1   32 B1   33 B1   34 B1   37 A1   38 A1   35 B1   36 B1                 
 
 Beta MOs, Restricted
 -- Occupied --                  
-11.074 -11.072  -0.880  -0.622  -0.497  -0.407  -0.351  -0.217
  1 A1    1 B1    2 A1    2 B1    3 A1    4 A1    3 B1    1 B2                 
 -0.045
  5 A1                                                                         
 -- Virtual --                   
  0.061   0.067   0.068   0.068   0.072   0.083   0.102   0.112
  4 B1    2 B2    6 A1    1 A2    5 B1    7 A1    6 B1    3 B2                 
  0.114   0.115   0.122   0.128   0.159   0.166   0.176   0.176
  2 A2    8 A1    7 B1    9 A1    8 B1   10 A1    4 B2    3 A2                 
  0.186   0.188   0.232   0.247   0.253   0.268   0.276   0.281
 11 A1    9 B1   12 A1   10 B1    4 A2   13 A1    5 B2   11 B1                 
  0.298   0.311   0.326   0.356   0.379   0.380   0.404   0.416
 12 B1   14 A1    5 A2    6 B2   15 A1   13 B1   16 A1    7 B2                 
  0.419   0.430   0.433   0.447   0.468   0.483   0.492   0.521
  6 A2   17 A1   14 B1   15 B1    7 A2   18 A1    8 B2   16 B1                 
  0.557   0.560   0.591   0.631   0.637   0.642   0.693   0.721
 17 B1   19 A1   20 A1   18 B1   21 A1    8 A2   22 A1   19 B1                 
  0.726   0.761   0.797   0.799   0.851   0.868   0.877   0.998
  9 B2   23 A1   24 A1   20 B1   10 B2    9 A2   21 B1   22 B1                 
  1.064   1.071   1.077   1.213   1.242   1.253   1.265   1.284
 23 B1   10 A2   25 A1   11 B2   26 A1   24 B1   27 A1   11 A2                 
  1.352   1.385   1.432   1.669   1.699   1.733   1.803   1.815
 25 B1   28 A1   29 A1   26 B1   27 B1   30 A1   12 B2   13 B2                 
  1.885   1.931   1.952   1.956   1.973   2.057   2.107   2.107
 14 B2   31 A1   28 B1   12 A2   32 A1   13 A2   15 B2   29 B1                 
  2.147   2.148   2.193   2.201   2.415   2.436   2.524   2.637
 33 A1   30 B1   16 B2   34 A1   35 A1   31 B1   14 A2   15 A2                 
  2.730   2.797   2.819   2.885   3.062   3.077   3.620   3.818
 36 A1   32 B1   33 B1   34 B1   37 A1   38 A1   35 B1   36 B1                 
  Import AO data ...  CPU 0.01 s  wall 0.01 s
  Using point group: C2v
  Irreducible representations in point group: A1 A2 B1 B2
  Molecular orbitals: 
  Occupied MOs:
  Block   0:   1 ( A1) A   2 ( A1) A   3 ( A1) A   4 ( A1) A   5 ( A1) A
                  -11.07     -0.8796     -0.4965     -0.4074      -0.045
  Block   1:   1 ( B1) A   2 ( B1) A   3 ( B1) A
                  -11.07      -0.622     -0.3507
  Block   2:   1 ( B2) A
                 -0.2166
  Block   3:   1 ( A1) B   2 ( A1) B   3 ( A1) B   4 ( A1) B   5 ( A1) B
                  -11.07     -0.8796     -0.4965     -0.4074      -0.045
  Block   4:   1 ( B1) B   2 ( B1) B   3 ( B1) B
                  -11.07      -0.622     -0.3507
  Block   5:   1 ( B2) B
                 -0.2166
  Virtual MOs:
  Block   0:   6 ( A1) A   7 ( A1) A   8 ( A1) A   9 ( A1) A  10 ( A1) A
                 0.06773     0.08305      0.1152      0.1282      0.1664
              11 ( A1) A  12 ( A1) A  13 ( A1) A  14 ( A1) A  15 ( A1) A
                   0.186      0.2321      0.2683      0.3115      0.3786
              16 ( A1) A  17 ( A1) A
                  0.4036      0.4302
  Block   1:  18 ( A1) A  19 ( A1) A  20 ( A1) A  21 ( A1) A  22 ( A1) A
                  0.4834      0.5605      0.5913      0.6373      0.6927
              23 ( A1) A  24 ( A1) A  25 ( A1) A  26 ( A1) A  27 ( A1) A
                  0.7608       0.797       1.077       1.242       1.265
  Block   2:  28 ( A1) A  29 ( A1) A  30 ( A1) A  31 ( A1) A  32 ( A1) A
                   1.385       1.432       1.733       1.931       1.973
              33 ( A1) A  34 ( A1) A  35 ( A1) A  36 ( A1) A  37 ( A1) A
                   2.147       2.201       2.415        2.73       3.062
              38 ( A1) A
                   3.077
  Block   3:   1 ( A2) A   2 ( A2) A   3 ( A2) A   4 ( A2) A   5 ( A2) A
                 0.06775      0.1135      0.1764      0.2527      0.3261
               6 ( A2) A   7 ( A2) A   8 ( A2) A   9 ( A2) A  10 ( A2) A
                  0.4189      0.4682      0.6417      0.8678       1.071
              11 ( A2) A  12 ( A2) A  13 ( A2) A  14 ( A2) A  15 ( A2) A
                   1.284       1.956       2.057       2.524       2.637
  Block   4:   4 ( B1) A   5 ( B1) A   6 ( B1) A   7 ( B1) A   8 ( B1) A
                  0.0615     0.07246      0.1019      0.1224      0.1593
               9 ( B1) A  10 ( B1) A  11 ( B1) A  12 ( B1) A  13 ( B1) A
                  0.1884      0.2469      0.2812      0.2985      0.3795
              14 ( B1) A  15 ( B1) A
                  0.4326      0.4472
  Block   5:  16 ( B1) A  17 ( B1) A  18 ( B1) A  19 ( B1) A  20 ( B1) A
                  0.5208      0.5568      0.6314      0.7211      0.7995
              21 ( B1) A  22 ( B1) A  23 ( B1) A  24 ( B1) A  25 ( B1) A
                  0.8774      0.9976       1.064       1.253       1.352
  Block   6:  26 ( B1) A  27 ( B1) A  28 ( B1) A  29 ( B1) A  30 ( B1) A
                   1.669       1.699       1.952       2.107       2.148
              31 ( B1) A  32 ( B1) A  33 ( B1) A  34 ( B1) A  35 ( B1) A
                   2.436       2.797       2.819       2.885        3.62
              36 ( B1) A
                   3.818
  Block   7:   2 ( B2) A   3 ( B2) A   4 ( B2) A   5 ( B2) A   6 ( B2) A
                 0.06706      0.1124      0.1761      0.2764      0.3556
               7 ( B2) A   8 ( B2) A   9 ( B2) A  10 ( B2) A  11 ( B2) A
                  0.4159      0.4922      0.7262      0.8506       1.213
              12 ( B2) A  13 ( B2) A  14 ( B2) A  15 ( B2) A  16 ( B2) A
                   1.803       1.815       1.885       2.107       2.193
  Block   8:   6 ( A1) B   7 ( A1) B   8 ( A1) B   9 ( A1) B  10 ( A1) B
                 0.06773     0.08305      0.1152      0.1282      0.1664
              11 ( A1) B  12 ( A1) B  13 ( A1) B  14 ( A1) B  15 ( A1) B
                   0.186      0.2321      0.2683      0.3115      0.3786
              16 ( A1) B  17 ( A1) B
                  0.4036      0.4302
  Block   9:  18 ( A1) B  19 ( A1) B  20 ( A1) B  21 ( A1) B  22 ( A1) B
                  0.4834      0.5605      0.5913      0.6373      0.6927
              23 ( A1) B  24 ( A1) B  25 ( A1) B  26 ( A1) B  27 ( A1) B
                  0.7608       0.797       1.077       1.242       1.265
  Block  10:  28 ( A1) B  29 ( A1) B  30 ( A1) B  31 ( A1) B  32 ( A1) B
                   1.385       1.432       1.733       1.931       1.973
              33 ( A1) B  34 ( A1) B  35 ( A1) B  36 ( A1) B  37 ( A1) B
                   2.147       2.201       2.415        2.73       3.062
              38 ( A1) B
                   3.077
  Block  11:   1 ( A2) B   2 ( A2) B   3 ( A2) B   4 ( A2) B   5 ( A2) B
                 0.06775      0.1135      0.1764      0.2527      0.3261
               6 ( A2) B   7 ( A2) B   8 ( A2) B   9 ( A2) B  10 ( A2) B
                  0.4189      0.4682      0.6417      0.8678       1.071
              11 ( A2) B  12 ( A2) B  13 ( A2) B  14 ( A2) B  15 ( A2) B
                   1.284       1.956       2.057       2.524       2.637
  Block  12:   4 ( B1) B   5 ( B1) B   6 ( B1) B   7 ( B1) B   8 ( B1) B
                  0.0615     0.07246      0.1019      0.1224      0.1593
               9 ( B1) B  10 ( B1) B  11 ( B1) B  12 ( B1) B  13 ( B1) B
                  0.1884      0.2469      0.2812      0.2985      0.3795
              14 ( B1) B  15 ( B1) B
                  0.4326      0.4472
  Block  13:  16 ( B1) B  17 ( B1) B  18 ( B1) B  19 ( B1) B  20 ( B1) B
                  0.5208      0.5568      0.6314      0.7211      0.7995
              21 ( B1) B  22 ( B1) B  23 ( B1) B  24 ( B1) B  25 ( B1) B
                  0.8774      0.9976       1.064       1.253       1.352
  Block  14:  26 ( B1) B  27 ( B1) B  28 ( B1) B  29 ( B1) B  30 ( B1) B
                   1.669       1.699       1.952       2.107       2.148
              31 ( B1) B  32 ( B1) B  33 ( B1) B  34 ( B1) B  35 ( B1) B
                   2.436       2.797       2.819       2.885        3.62
              36 ( B1) B
                   3.818
  Block  15:   2 ( B2) B   3 ( B2) B   4 ( B2) B   5 ( B2) B   6 ( B2) B
                 0.06706      0.1124      0.1761      0.2764      0.3556
               7 ( B2) B   8 ( B2) B   9 ( B2) B  10 ( B2) B  11 ( B2) B
                  0.4159      0.4922      0.7262      0.8506       1.213
              12 ( B2) B  13 ( B2) B  14 ( B2) B  15 ( B2) B  16 ( B2) B
                   1.803       1.815       1.885       2.107       2.193
  Import MO data ...  CPU 0.05 s  wall 0.01 s
  Import HF data ...  CPU 0.75 s  wall 0.16 s
  Import 2e integrals ...  CPU 11.64 s  wall 0.97 s
  Import CAP matrix ...  CPU 52.88 s  wall 4.41 s

--------------------------------------------------------------------------------
                                   HF Summary                                   
--------------------------------------------------------------------------------
  Energy:                                                  -78.5201924333 a.u.
  Dip. moment [a.u.]:                  [   0.000000,    0.000000,   -4.391884]
  Total dipole [Debye]:                                              11.163059
  <r^2> [a.u.]:                        [  57.738744,   19.336180,   84.915262]
  Total <r^2> [a.u.]:                                               161.990185
--------------------------------------------------------------------------------
  HF properties ...  CPU 0.42 s  wall 0.03 s
  MP(1) calculation ...  CPU 2.31 s  wall 0.32 s
  N^6 prerequesite intermediates ...  CPU 1.34 s  wall 0.16 s

--------------------------------------------------------------------------------
                                 MP(2) Summary                                  
--------------------------------------------------------------------------------
  MP energy contribution:                                   -0.3162152463 a.u.
  Total energy:                                            -78.8364076796 a.u.
  Dip. moment [a.u.]:                  [   0.000000,   -0.000000,   -4.282630]
  Total dipole [Debye]:                                              10.885362
  <r^2> [a.u.]:                        [  59.993829,   20.300173,   85.258406]
  Total <r^2> [a.u.]:                                               165.552409
--------------------------------------------------------------------------------
  MP(2) calculation ...  CPU 1.23 s  wall 0.49 s
  Start ADC(2)-x ...  CPU 0.06 s  wall 0.01 s
  ADC(2) intermediates ...  CPU 0.13 s  wall 0.03 s
  Starting Davidson for singlet states of irrep A2 ... 
--------------------------------------------------------------------------------
   It NVec Conv  Avg. Norm  Max. Norm  Conv. states           Remark
--------------------------------------------------------------------------------
       150    0  3.958e-02  3.586e-01  0.0668 n n n n n n n n Guess.
    1  180    0  1.236e-02  1.409e-01  0.0246 n n n n n n n n 
    2  210    0  7.341e-03  7.602e-02  0.0226 n n n n n n n n 
    3  240    0  9.195e-03  1.464e-01  0.0225 n n n n n n n n 
    4  270    0  6.250e-03  9.570e-02  0.0225 n n n n n n n n 
    5  300    0  3.214e-03  3.919e-02  0.0225 n n n n n n n n 
    6  330    0  3.777e-03  7.251e-02  0.0225 n n n n n n n n 
    7  360    2  2.015e-03  4.309e-02  0.0225 y y n n n n n n 
    8  390    3  9.463e-04  1.815e-02  0.0225 y y y n n n n n 
    9  400    7  9.206e-04  1.762e-02  0.0225 y y y y n n y y 
   10   60    8  3.724e-04  6.167e-03  0.0225 y y y y n n y y Subspace collapsed.
   11   90   10  3.776e-04  6.195e-03  0.0225 y y y y y n y y 
   12  120   11  2.440e-04  3.754e-03  0.0225 y y y y y y y y 
   13  150   14  2.017e-04  3.362e-03  0.0225 y y y y y y y y 
   14  180   15  1.871e-04  4.218e-03  0.0225 y y y y y y y y 
   15  210   15  5.714e-04  1.665e-02  0.0225 y y y y y y y y 
   16  240   16  2.977e-04  6.772e-03  0.0225 y y y y y y y y 
   17  270   18  1.822e-04  4.615e-03  0.0225 y y y y y y y y 
   18  300   18  1.175e-04  3.140e-03  0.0225 y y y y y y y y 
   19  330   20  8.653e-05  2.353e-03  0.0225 y y y y y y y y 
   20  360   22  5.916e-05  1.621e-03  0.0225 y y y y y y y y 
   21  390   25  3.757e-05  1.034e-03  0.0225 y y y y y y y y 
   22  400   25  3.725e-05  1.026e-03  0.0225 y y y y y y y y 
   23   59   26  1.589e-05  4.375e-04  0.0225 y y y y y y y y Subspace collapsed.
   24   87   26  1.248e-05  3.433e-04  0.0225 y y y y y y y y 
   25  115   26  8.571e-06  2.362e-04  0.0225 y y y y y y y y 
   26  142   28  6.356e-06  1.748e-04  0.0225 y y y y y y y y 
   27  168   28  5.354e-06  1.469e-04  0.0225 y y y y y y y y 
   28  193   28  4.153e-06  1.137e-04  0.0225 y y y y y y y y 
   29  218   28  3.118e-06  8.509e-05  0.0225 y y y y y y y y 
   30  219   28  3.118e-06  8.508e-05  0.0225 y y y y y y y y 
   31  241   28  1.916e-06  5.219e-05  0.0225 y y y y y y y y 
   32  241   28  1.916e-06  5.219e-05  0.0225 y y y y y y y y 
   33  271   28  1.374e-06  3.741e-05  0.0225 y y y y y y y y 
   34  273   28  1.376e-06  3.747e-05  0.0225 y y y y y y y y 
   35  273   28  1.376e-06  3.747e-05  0.0225 y y y y y y y y 
   36  274   28  1.377e-06  3.748e-05  0.0225 y y y y y y y y 
   37  274   28  1.377e-06  3.748e-05  0.0225 y y y y y y y y 
   38  274   28  1.377e-06  3.748e-05  0.0225 y y y y y y y y 
   39  304   28  1.020e-06  2.772e-05  0.0225 y y y y y y y y 
--------------------------------------------------------------------------------
  Davidson Summary: 
 ------------------------------------------------------------
  State  0: excitation energy =   0.0225 a.u.   (converged)
  State  1: excitation energy =   0.0505 a.u.   (converged)
  State  2: excitation energy =   0.0795 a.u.   (converged)
  State  3: excitation energy =   0.1151 a.u.   (converged)
  State  4: excitation energy =   0.1920 a.u.   (converged)
  State  5: excitation energy =   0.1965 a.u.   (converged)
  State  6: excitation energy =   0.2027 a.u.   (converged)
  State  7: excitation energy =   0.2198 a.u.   (converged)
  State  8: excitation energy =   0.2223 a.u.   (converged)
  State  9: excitation energy =   0.2232 a.u.   (converged)
  State 10: excitation energy =   0.2487 a.u.   (converged)
  State 11: excitation energy =   0.2605 a.u.   (converged)
  State 12: excitation energy =   0.2725 a.u.   (converged)
  State 13: excitation energy =   0.2764 a.u.   (converged)
  State 14: excitation energy =   0.2901 a.u.   (converged)
  State 15: excitation energy =   0.2924 a.u.   (converged)
  State 16: excitation energy =   0.3125 a.u.   (converged)
  State 17: excitation energy =   0.3139 a.u.   (converged)
  State 18: excitation energy =   0.3205 a.u.   (converged)
  State 19: excitation energy =   0.3220 a.u.   (converged)
  State 20: excitation energy =   0.3251 a.u.   (converged)
  State 21: excitation energy =   0.3265 a.u.   (converged)
  State 22: excitation energy =   0.3294 a.u.   (converged)
  State 23: excitation energy =   0.3313 a.u.   (converged)
  State 24: excitation energy =   0.3343 a.u.   (converged)
  State 25: excitation energy =   0.3392 a.u.   (converged)
  State 26: excitation energy =   0.3423 a.u.   (converged)
  State 27: excitation energy =   0.3432 a.u.   (converged)
  State 28: excitation energy =   0.3447 a.u.   (not converged)
  State 29: excitation energy =   0.3452 a.u.   (not converged)
 ------------------------------------------------------------

  Singlet states of irrep A2 ...  CPU 10529.97 s  wall 1643.85 s
  TDMs ...  CPU 12.96 s  wall 2.88 s
  SDMs ...  CPU 26.60 s  wall 5.42 s
  Transition properties ...  CPU 1.20 s  wall 0.23 s
  Properties ...  CPU 7.88 s  wall 1.55 s
  ISR TDMS ...  CPU 452.16 s  wall 96.10 s
  ISR transition properties ...  CPU 38.14 s  wall 6.55 s
  Sum-over-states TPA ...  CPU 0.01 s  wall 0.01 s

--------------------------------------------------------------------------------
                             Excited State Summary
--------------------------------------------------------------------------------
--------------------------------------------------------------------------------

  Excited state  1 (singlet, A2)                                   [converged]
  ----------------------------------------------------------------------------
  Term symbol:  1 (1) A2                                    R^2 =  6.78213e-16

  Total energy:                                            -78.8138635044 a.u.
  Excitation energy:                                               0.613458 eV

  Osc. strength:                                                      0.000000
  Trans. dip. moment [a.u.]:           [  -0.000000,    0.000000,    0.000000]
  <i|r^2|0> [a.u.]:                    [  -0.000000,   -0.000000,    0.000000]
  Two-photon absorption cross-section (SoS) [a.u.]:                   0.000000
  Two-photon absorption matrix (SoS) [a.u.]:
                                       |    0.000000   -0.000000   -0.000000 |
                                       |   -0.000000   -0.000000    0.000000 |
                                       |   -0.000000    0.000000    0.000000 |

  Dip. moment [a.u.]:                  [  -0.000000,   -0.000000,    0.431974]
  Total dipole [Debye]:                                               1.097968
  <r^2> [a.u.]:                        [ 216.163089,  179.127889,  109.176004]
  Total <r^2> [a.u.]:                                               504.466982

  V1^2 = 0.8652, V2^2 = 0.1348

  Important amplitudes:
      occ i      occ j       vir a       vir b          v   
    ---------------------------------------------------------
     5 (A1) A               1 (A2) A                 -0.6342
     5 (A1) A               2 (A2) A                 -0.1696
     5 (A1) A   5 (A1) B   25 (A1) A    1 (A2) B     -0.0493
     5 (A1) A   5 (A1) B    9 (A1) A    1 (A2) B     -0.0478
     5 (A1) A   5 (A1) B   12 (A1) A    1 (A2) B     -0.0474
     5 (A1) A   5 (A1) B   11 (A1) A    1 (A2) B     -0.0410
     5 (A1) A   5 (A1) B   15 (A1) A    1 (A2) B     -0.0408
     5 (A1) A               3 (A2) A                 -0.0369
     5 (A1) A   5 (A1) B   16 (A1) A    1 (A2) B     -0.0339
     5 (A1) A   5 (A1) B   14 (A1) A    1 (A2) B      0.0273
     5 (A1) A   5 (A1) B   18 (A1) A    1 (A2) B     -0.0218
     5 (A1) A   5 (A1) B    7 (A1) A    1 (A2) B     -0.0206
     5 (A1) A   5 (A1) B   21 (A1) A    1 (A2) B      0.0171
     5 (A1) A   5 (A1) B   13 (A1) A    1 (A2) B     -0.0154
     5 (A1) A   5 (A1) B   26 (A1) A    1 (A2) B      0.0152
     5 (A1) A               4 (A2) A                 -0.0142
     5 (A1) A   5 (A1) B   23 (A1) A    1 (A2) B      0.0136
     5 (A1) A   5 (A1) B   25 (A1) A    2 (A2) B     -0.0131
     5 (A1) A   5 (A1) B    9 (A1) A    2 (A2) B     -0.0127
     5 (A1) A   5 (A1) B   12 (A1) A    2 (A2) B     -0.0126
     5 (A1) A   5 (A1) B    8 (A1) A    1 (A2) B     -0.0116
     5 (A1) A   5 (A1) B   15 (A1) A    2 (A2) B     -0.0110
     5 (A1) A   5 (A1) B   11 (A1) A    2 (A2) B     -0.0109
     5 (A1) A   5 (A1) B   16 (A1) A    2 (A2) B     -0.0091
     5 (A1) A   1 (B2) B    1 (A2) A    6 (B2) B      0.0080
     5 (A1) A   5 (A1) B   20 (A1) A    1 (A2) B     -0.0077
     5 (A1) A   5 (A1) B   24 (A1) A    1 (A2) B      0.0075
     5 (A1) A   1 (B2) A    1 (A2) A    6 (B2) A      0.0075
     5 (A1) A   5 (A1) B   14 (A1) A    2 (A2) B      0.0073
     5 (A1) A   5 (A1) B    6 (A1) A    1 (A2) B     -0.0072
     5 (A1) A   3 (B1) B    1 (A2) A   13 (B1) B     -0.0063
     5 (A1) A   3 (B1) B    1 (A2) A   16 (B1) B      0.0063
     5 (A1) A   1 (B2) B    1 (A2) A    9 (B2) B      0.0062
     5 (A1) A   1 (B2) A    1 (A2) A    9 (B2) A      0.0062
     5 (A1) A   3 (B1) A    1 (A2) A   16 (B1) A      0.0060
     5 (A1) A   3 (B1) A    1 (A2) A   13 (B1) A     -0.0060
     5 (A1) A   5 (A1) B   18 (A1) A    2 (A2) B     -0.0060
     3 (A1) A   5 (A1) A   19 (A1) A    1 (A2) A      0.0059
     3 (A1) A   5 (A1) B   19 (A1) A    1 (A2) B      0.0058
     5 (A1) A   5 (A1) B   27 (A1) A    1 (A2) B     -0.0057
    ---------------------------------------------------------
  ----------------------------------------------------------------------------


  Excited state  2 (singlet, A2)                                   [converged]
  ----------------------------------------------------------------------------
  Term symbol:  2 (1) A2                                    R^2 =  2.72612e-15

  Total energy:                                            -78.7858915713 a.u.
  Excitation energy:                                               1.374613 eV

  Osc. strength:                                                      0.000000
  Trans. dip. moment [a.u.]:           [  -0.000000,   -0.000000,    0.000000]
  <i|r^2|0> [a.u.]:                    [  -0.000000,   -0.000000,    0.000000]
  Two-photon absorption cross-section (SoS) [a.u.]:                   0.000000
  Two-photon absorption matrix (SoS) [a.u.]:
                                       |    0.000000    0.000000   -0.000000 |
                                       |    0.000000    0.000000   -0.000000 |
                                       |   -0.000000   -0.000000    0.000000 |

  Dip. moment [a.u.]:                  [  -0.000000,   -0.000000,    0.425121]
  Total dipole [Debye]:                                               1.080549
  <r^2> [a.u.]:                        [ 161.637897,  124.370623,   91.060551]
  Total <r^2> [a.u.]:                                               377.069072

  V1^2 = 0.8633, V2^2 = 0.1367

  Important amplitudes:
      occ i      occ j       vir a       vir b          v   
    ---------------------------------------------------------
     5 (A1) A               2 (A2) A                  0.5813
     5 (A1) A               3 (A2) A                  0.2254
     5 (A1) A               1 (A2) A                 -0.1718
     5 (A1) A               4 (A2) A                  0.1014
     5 (A1) A               5 (A2) A                 -0.0498
     5 (A1) A   5 (A1) B   25 (A1) A    2 (A2) B      0.0450
     5 (A1) A   5 (A1) B    9 (A1) A    2 (A2) B      0.0436
     5 (A1) A   5 (A1) B   12 (A1) A    2 (A2) B      0.0433
     5 (A1) A   5 (A1) B   15 (A1) A    2 (A2) B      0.0375
     5 (A1) A   5 (A1) B   11 (A1) A    2 (A2) B      0.0374
     5 (A1) A   5 (A1) B   16 (A1) A    2 (A2) B      0.0310
     5 (A1) A   5 (A1) B   14 (A1) A    2 (A2) B     -0.0250
     5 (A1) A               6 (A2) A                  0.0244
     5 (A1) A   5 (A1) B   18 (A1) A    2 (A2) B      0.0203
     5 (A1) A   5 (A1) B    7 (A1) A    2 (A2) B      0.0188
     5 (A1) A   5 (A1) B   25 (A1) A    3 (A2) B      0.0170
     5 (A1) A   5 (A1) B    9 (A1) A    3 (A2) B      0.0165
     5 (A1) A   5 (A1) B   12 (A1) A    3 (A2) B      0.0164
     5 (A1) A   5 (A1) B   21 (A1) A    2 (A2) B     -0.0158
     5 (A1) A   5 (A1) B   15 (A1) A    3 (A2) B      0.0147
     5 (A1) A   5 (A1) B   13 (A1) A    2 (A2) B      0.0141
     5 (A1) A   5 (A1) B   11 (A1) A    3 (A2) B      0.0140
     5 (A1) A   5 (A1) B   26 (A1) A    2 (A2) B     -0.0140
     5 (A1) A   5 (A1) B   25 (A1) A    1 (A2) B     -0.0134
     5 (A1) A   5 (A1) B    9 (A1) A    1 (A2) B     -0.0130
     5 (A1) A   5 (A1) B   12 (A1) A    1 (A2) B     -0.0129
     5 (A1) A   5 (A1) B   23 (A1) A    2 (A2) B     -0.0127
     5 (A1) A   5 (A1) B   16 (A1) A    3 (A2) B      0.0120
     5 (A1) A   5 (A1) B   11 (A1) A    1 (A2) B     -0.0112
     5 (A1) A   5 (A1) B   15 (A1) A    1 (A2) B     -0.0110
     5 (A1) A   5 (A1) B    8 (A1) A    2 (A2) B      0.0105
     5 (A1) A   5 (A1) B   14 (A1) A    3 (A2) B     -0.0097
     5 (A1) A   5 (A1) B   16 (A1) A    1 (A2) B     -0.0092
     5 (A1) A   5 (A1) B   18 (A1) A    3 (A2) B      0.0084
     5 (A1) A   5 (A1) B   14 (A1) A    1 (A2) B      0.0074
     5 (A1) A   1 (B2) B    2 (A2) A    6 (B2) B     -0.0073
     5 (A1) A   5 (A1) B    7 (A1) A    3 (A2) B      0.0071
     5 (A1) A   5 (A1) B   20 (A1) A    2 (A2) B      0.0070
     5 (A1) A   1 (B2) A    2 (A2) A    6 (B2) A     -0.0069
     5 (A1) A   5 (A1) B   24 (A1) A    2 (A2) B     -0.0069
    ---------------------------------------------------------
  ----------------------------------------------------------------------------


  Excited state  3 (singlet, A2)                                   [converged]
  ----------------------------------------------------------------------------
  Term symbol:  3 (1) A2                                    R^2 =  8.81721e-15

  Total energy:                                            -78.7569039577 a.u.
  Excitation energy:                                               2.163406 eV

  Osc. strength:                                                      0.000000
  Trans. dip. moment [a.u.]:           [   0.000000,    0.000000,    0.000000]
  <i|r^2|0> [a.u.]:                    [  -0.000000,   -0.000000,    0.000000]
  Two-photon absorption cross-section (SoS) [a.u.]:                   0.000000
  Two-photon absorption matrix (SoS) [a.u.]:
                                       |   -0.000000   -0.000000    0.000000 |
                                       |   -0.000000   -0.000000    0.000000 |
                                       |    0.000000    0.000000    0.000000 |

  Dip. moment [a.u.]:                  [  -0.000000,   -0.000000,    0.391508]
  Total dipole [Debye]:                                               0.995115
  <r^2> [a.u.]:                        [  99.436844,   62.569294,   71.462380]
  Total <r^2> [a.u.]:                                               233.468519

  V1^2 = 0.8442, V2^2 = 0.1558

  Important amplitudes:
      occ i      occ j       vir a       vir b          v   
    ---------------------------------------------------------
     5 (A1) A               4 (A2) A                 -0.3952
     5 (A1) A               3 (A2) A                 -0.3731
     5 (A1) A               5 (A2) A                  0.2492
     5 (A1) A               2 (A2) A                  0.2353
     5 (A1) A               6 (A2) A                 -0.0700
     5 (A1) A               7 (A2) A                  0.0456
     5 (A1) A               8 (A2) A                 -0.0313
     5 (A1) A               1 (A2) A                 -0.0290
     5 (A1) A   5 (A1) B   25 (A1) A    3 (A2) B     -0.0279
     5 (A1) A   5 (A1) B   25 (A1) A    4 (A2) B     -0.0274
     5 (A1) A   5 (A1) B    9 (A1) A    3 (A2) B     -0.0270
     5 (A1) A   5 (A1) B   12 (A1) A    3 (A2) B     -0.0269
     5 (A1) A   5 (A1) B   12 (A1) A    4 (A2) B     -0.0266
     5 (A1) A   5 (A1) B    9 (A1) A    4 (A2) B     -0.0262
     5 (A1) A   5 (A1) B   15 (A1) A    4 (A2) B     -0.0253
     5 (A1) A   5 (A1) B   15 (A1) A    3 (A2) B     -0.0241
     5 (A1) A   5 (A1) B   11 (A1) A    3 (A2) B     -0.0229
     5 (A1) A   5 (A1) B   11 (A1) A    4 (A2) B     -0.0220
     5 (A1) A   5 (A1) B   16 (A1) A    4 (A2) B     -0.0199
     5 (A1) A   5 (A1) B   16 (A1) A    3 (A2) B     -0.0196
     5 (A1) A   5 (A1) B   25 (A1) A    2 (A2) B      0.0185
     5 (A1) A   5 (A1) B    9 (A1) A    2 (A2) B      0.0180
     5 (A1) A   5 (A1) B   12 (A1) A    2 (A2) B      0.0178
     5 (A1) A   5 (A1) B   14 (A1) A    4 (A2) B      0.0162
     5 (A1) A   5 (A1) B   18 (A1) A    4 (A2) B     -0.0161
     5 (A1) A   5 (A1) B   14 (A1) A    3 (A2) B      0.0159
     5 (A1) A   5 (A1) B   15 (A1) A    5 (A2) B      0.0156
     5 (A1) A   5 (A1) B   25 (A1) A    5 (A2) B      0.0155
     5 (A1) A   5 (A1) B   11 (A1) A    2 (A2) B      0.0155
     5 (A1) A   5 (A1) B   15 (A1) A    2 (A2) B      0.0151
     5 (A1) A   5 (A1) B   12 (A1) A    5 (A2) B      0.0151
     5 (A1) A   5 (A1) B    9 (A1) A    5 (A2) B      0.0145
     5 (A1) A   5 (A1) B   18 (A1) A    3 (A2) B     -0.0139
     5 (A1) A   5 (A1) B   16 (A1) A    2 (A2) B      0.0126
     5 (A1) A              11 (A2) A                 -0.0126
     5 (A1) A   5 (A1) B   11 (A1) A    5 (A2) B      0.0120
     5 (A1) A   5 (A1) B   21 (A1) A    4 (A2) B      0.0117
     5 (A1) A   5 (A1) B    7 (A1) A    3 (A2) B     -0.0117
     5 (A1) A   5 (A1) B   16 (A1) A    5 (A2) B      0.0116
     5 (A1) A   1 (B2) B    5 (A2) A    5 (B2) B     -0.0115
    ---------------------------------------------------------
  ----------------------------------------------------------------------------


  Excited state  4 (singlet, A2)                                   [converged]
  ----------------------------------------------------------------------------
  Term symbol:  4 (1) A2                                    R^2 =  3.13886e-15

  Total energy:                                            -78.7213018800 a.u.
  Excitation energy:                                               3.132188 eV

  Osc. strength:                                                      0.000000
  Trans. dip. moment [a.u.]:           [  -0.000000,    0.000000,    0.000000]
  <i|r^2|0> [a.u.]:                    [  -0.000000,   -0.000000,    0.000000]
  Two-photon absorption cross-section (SoS) [a.u.]:                   0.000000
  Two-photon absorption matrix (SoS) [a.u.]:
                                       |   -0.000000   -0.000000   -0.000000 |
                                       |   -0.000000   -0.000000    0.000000 |
                                       |   -0.000000    0.000000    0.000000 |

  Dip. moment [a.u.]:                  [  -0.000000,   -0.000000,    0.409155]
  Total dipole [Debye]:                                               1.039968
  <r^2> [a.u.]:                        [ 121.525558,   85.890962,   78.858172]
  Total <r^2> [a.u.]:                                               286.274692

  V1^2 = 0.8472, V2^2 = 0.1528

  Important amplitudes:
      occ i      occ j       vir a       vir b          v   
    ---------------------------------------------------------
     5 (A1) A               3 (A2) A                 -0.4807
     5 (A1) A               5 (A2) A                 -0.3094
     5 (A1) A               4 (A2) A                  0.2771
     5 (A1) A               2 (A2) A                  0.1023
     5 (A1) A               7 (A2) A                 -0.0785
     5 (A1) A               6 (A2) A                  0.0417
     5 (A1) A   5 (A1) B   25 (A1) A    3 (A2) B     -0.0377
     5 (A1) A   5 (A1) B    9 (A1) A    3 (A2) B     -0.0368
     5 (A1) A   5 (A1) B   12 (A1) A    3 (A2) B     -0.0363
     5 (A1) A               8 (A2) A                  0.0336
     5 (A1) A   5 (A1) B   11 (A1) A    3 (A2) B     -0.0316
     5 (A1) A   5 (A1) B   15 (A1) A    3 (A2) B     -0.0311
     5 (A1) A   5 (A1) B   16 (A1) A    3 (A2) B     -0.0260
     5 (A1) A   5 (A1) B   14 (A1) A    3 (A2) B      0.0209
     5 (A1) A   5 (A1) B   25 (A1) A    5 (A2) B     -0.0204
     5 (A1) A   5 (A1) B   12 (A1) A    5 (A2) B     -0.0197
     5 (A1) A   5 (A1) B   15 (A1) A    5 (A2) B     -0.0194
     5 (A1) A   5 (A1) B   25 (A1) A    4 (A2) B      0.0193
     5 (A1) A   5 (A1) B    9 (A1) A    5 (A2) B     -0.0192
     5 (A1) A   5 (A1) B   12 (A1) A    4 (A2) B      0.0184
     5 (A1) A   5 (A1) B    9 (A1) A    4 (A2) B      0.0181
     5 (A1) A   5 (A1) B   15 (A1) A    4 (A2) B      0.0175
     5 (A1) A   5 (A1) B   18 (A1) A    3 (A2) B     -0.0166
     5 (A1) A   5 (A1) B   11 (A1) A    5 (A2) B     -0.0161
     5 (A1) A   5 (A1) B    7 (A1) A    3 (A2) B     -0.0158
     5 (A1) A   5 (A1) B   11 (A1) A    4 (A2) B      0.0153
     5 (A1) A   5 (A1) B   16 (A1) A    5 (A2) B     -0.0149
     5 (A1) A              11 (A2) A                  0.0144
     5 (A1) A   5 (A1) B   16 (A1) A    4 (A2) B      0.0137
     5 (A1) A   5 (A1) B   21 (A1) A    3 (A2) B      0.0130
     5 (A1) A   5 (A1) B   18 (A1) A    5 (A2) B     -0.0128
     5 (A1) A   5 (A1) B   14 (A1) A    5 (A2) B      0.0122
     5 (A1) A   1 (B2) B    5 (A2) A    4 (B2) B      0.0121
     5 (A1) A   5 (A1) B   13 (A1) A    3 (A2) B     -0.0118
     5 (A1) A   5 (A1) B   26 (A1) A    3 (A2) B      0.0117
     5 (A1) A   5 (A1) B   14 (A1) A    4 (A2) B     -0.0112
     5 (A1) A   1 (B2) B    5 (A2) A    5 (B2) B      0.0110
     5 (A1) A   5 (A1) B   18 (A1) A    4 (A2) B      0.0109
     5 (A1) A   5 (A1) B   23 (A1) A    3 (A2) B      0.0103
     5 (A1) A               9 (A2) A                 -0.0102
    ---------------------------------------------------------
  ----------------------------------------------------------------------------


  Excited state  5 (singlet, A2)                                   [converged]
  ----------------------------------------------------------------------------
  Term symbol:  5 (1) A2                                    R^2 =  4.19124e-14

  Total energy:                                            -78.6443788907 a.u.
  Excitation energy:                                               5.225369 eV

  Osc. strength:                                                      0.000000
  Trans. dip. moment [a.u.]:           [  -0.000000,    0.000000,   -0.000000]
  <i|r^2|0> [a.u.]:                    [  -0.000000,   -0.000000,   -0.000000]
  Two-photon absorption cross-section (SoS) [a.u.]:                   0.000000
  Two-photon absorption matrix (SoS) [a.u.]:
                                       |    0.000000   -0.000000   -0.000000 |
                                       |   -0.000000   -0.000000    0.000000 |
                                       |   -0.000000    0.000000   -0.000000 |

  Dip. moment [a.u.]:                  [   0.000000,   -0.000000,    0.515239]
  Total dipole [Debye]:                                               1.309607
  <r^2> [a.u.]:                        [ 111.293592,   87.701876,   79.092316]
  Total <r^2> [a.u.]:                                               278.087784

  V1^2 = 0.7077, V2^2 = 0.2923

  Important amplitudes:
      occ i      occ j       vir a       vir b          v   
    ---------------------------------------------------------
     5 (A1) A               5 (A2) A                  0.4055
     5 (A1) A               4 (A2) A                  0.3971
     5 (A1) A               7 (A2) A                  0.1404
     5 (A1) A               3 (A2) A                 -0.0884
     5 (A1) A   1 (B2) B    5 (A2) A    2 (B2) B     -0.0662
     5 (A1) A               8 (A2) A                 -0.0547
     5 (A1) A   1 (B2) B    4 (A2) A    2 (B2) B      0.0529
     5 (A1) A   1 (B2) B    5 (A2) A    3 (B2) B     -0.0422
     5 (A1) A   1 (B2) B    4 (A2) A    3 (B2) B      0.0346
     5 (A1) A   1 (B2) B    2 (B2) A    5 (A2) B     -0.0336
     5 (A1) A   1 (B2) A    5 (A2) A    2 (B2) A     -0.0325
     5 (A1) A   5 (A1) B   25 (A1) A    4 (A2) B      0.0318
     5 (A1) A   5 (A1) B    9 (A1) A    4 (A2) B      0.0317
     5 (A1) A   5 (A1) B   12 (A1) A    4 (A2) B      0.0310
     5 (A1) A   5 (A1) B   25 (A1) A    5 (A2) B      0.0286
     5 (A1) A   5 (A1) B   12 (A1) A    5 (A2) B      0.0272
     5 (A1) A   5 (A1) B   11 (A1) A    4 (A2) B      0.0270
     5 (A1) A   1 (B2) B    7 (A2) A    2 (B2) B     -0.0270
     5 (A1) A   1 (B2) B    2 (B2) A    4 (A2) B      0.0269
     5 (A1) A               6 (A2) A                 -0.0268
     5 (A1) A   5 (A1) B    9 (A1) A    5 (A2) B      0.0267
     5 (A1) A   5 (A1) B   15 (A1) A    4 (A2) B      0.0264
     5 (A1) A   1 (B2) A    4 (A2) A    2 (B2) A      0.0260
     5 (A1) A   5 (A1) B   15 (A1) A    5 (A2) B      0.0252
     5 (A1) A   1 (B2) B    5 (A2) A    4 (B2) B     -0.0245
     5 (A1) A   5 (A1) B   11 (A1) A    5 (A2) B      0.0228
     5 (A1) A   1 (B2) B    3 (B2) A    5 (A2) B     -0.0225
     5 (A1) A   5 (A1) B   16 (A1) A    4 (A2) B      0.0221
     5 (A1) A   1 (B2) B    4 (A2) A    4 (B2) B      0.0217
     5 (A1) A   5 (A1) B   16 (A1) A    5 (A2) B      0.0201
     5 (A1) A   1 (B2) A    5 (A2) A    3 (B2) A     -0.0197
     5 (A1) A   1 (B2) B    8 (A2) A    2 (B2) B      0.0185
     5 (A1) A   1 (B2) B    3 (B2) A    4 (A2) B      0.0179
     5 (A1) A   5 (A1) B   14 (A1) A    4 (A2) B     -0.0178
     5 (A1) A   1 (B2) B    7 (A2) A    3 (B2) B     -0.0177
     5 (A1) A   1 (B2) B    4 (B2) A    5 (A2) B     -0.0175
     5 (A1) A   1 (B2) A    4 (A2) A    3 (B2) A      0.0167
     5 (A1) A   1 (B2) B    6 (A2) A    2 (B2) B      0.0166
     5 (A1) A   1 (B2) B    3 (A2) A    2 (B2) B      0.0165
     5 (A1) A   5 (A1) B   14 (A1) A    5 (A2) B     -0.0163
    ---------------------------------------------------------
  ----------------------------------------------------------------------------


  Excited state  6 (singlet, A2)                                   [converged]
  ----------------------------------------------------------------------------
  Term symbol:  6 (1) A2                                    R^2 =  2.10347e-13

  Total energy:                                            -78.6398970024 a.u.
  Excitation energy:                                               5.347327 eV

  Osc. strength:                                                      0.000000
  Trans. dip. moment [a.u.]:           [  -0.000000,    0.000000,   -0.000000]
  <i|r^2|0> [a.u.]:                    [  -0.000000,   -0.000000,   -0.000000]
  Two-photon absorption cross-section (SoS) [a.u.]:                   0.000000
  Two-photon absorption matrix (SoS) [a.u.]:
                                       |    0.000000   -0.000000   -0.000000 |
                                       |   -0.000000   -0.000000    0.000000 |
                                       |   -0.000000    0.000000   -0.000000 |

  Dip. moment [a.u.]:                  [   0.000000,   -0.000000,    0.978549]
  Total dipole [Debye]:                                               2.487224
  <r^2> [a.u.]:                        [ 120.937636,  191.448080,  113.397603]
  Total <r^2> [a.u.]:                                               425.783320

  V1^2 = 0.1257, V2^2 = 0.8743

  Important amplitudes:
      occ i      occ j       vir a       vir b          v   
    ---------------------------------------------------------
     5 (A1) A               5 (A2) A                  0.1871
     5 (A1) A   1 (B2) B    5 (A2) A    2 (B2) B      0.1789
     5 (A1) A               4 (A2) A                  0.1508
     5 (A1) A   1 (B2) B    4 (A2) A    2 (B2) B     -0.1425
     5 (A1) A   1 (B2) B    2 (B2) A    5 (A2) B      0.0894
     5 (A1) A   1 (B2) A    5 (A2) A    2 (B2) A      0.0894
     5 (A1) A   1 (B2) B    7 (A2) A    2 (B2) B      0.0726
     5 (A1) A   1 (B2) B    2 (B2) A    4 (A2) B     -0.0712
     5 (A1) A   1 (B2) A    4 (A2) A    2 (B2) A     -0.0712
     5 (A1) A               7 (A2) A                  0.0559
     5 (A1) A   1 (B2) B    5 (A2) A    3 (B2) B      0.0543
     5 (A1) A   1 (B2) B    8 (A2) A    2 (B2) B     -0.0495
     5 (A1) A   1 (B2) B    3 (A2) A    2 (B2) B     -0.0448
     5 (A1) A   1 (B2) B    6 (A2) A    2 (B2) B     -0.0446
     5 (A1) A   1 (B2) B    4 (A2) A    3 (B2) B     -0.0430
     5 (A1) A   1 (B2) A    7 (A2) A    2 (B2) A      0.0363
     5 (A1) A   1 (B2) B    2 (B2) A    7 (A2) B      0.0363
     5 (A1) A               3 (A2) A                 -0.0329
     5 (A1) A   1 (B2) A    5 (A2) A    3 (B2) A      0.0275
     5 (A1) A   1 (B2) B    3 (B2) A    5 (A2) B      0.0267
     5 (A1) A   1 (B2) B    2 (B2) A    8 (A2) B     -0.0249
     5 (A1) A   1 (B2) A    8 (A2) A    2 (B2) A     -0.0247
     5 (A1) A   1 (B2) B    2 (B2) A    6 (A2) B     -0.0225
     5 (A1) A   1 (B2) A    3 (A2) A    2 (B2) A     -0.0225
     5 (A1) A   1 (B2) B    2 (B2) A    3 (A2) B     -0.0224
     5 (A1) A   1 (B2) A    6 (A2) A    2 (B2) A     -0.0221
     5 (A1) A   1 (B2) B    7 (A2) A    3 (B2) B      0.0218
     5 (A1) A   1 (B2) A    4 (A2) A    3 (B2) A     -0.0217
     5 (A1) A   1 (B2) B    3 (B2) A    4 (A2) B     -0.0214
     5 (A1) A               8 (A2) A                 -0.0201
     5 (A1) A   1 (B2) B   11 (A2) A    2 (B2) B     -0.0177
     5 (A1) A   1 (B2) B    8 (A2) A    3 (B2) B     -0.0147
     5 (A1) A   1 (B2) B    3 (A2) A    3 (B2) B     -0.0139
     5 (A1) A   1 (B2) B    6 (A2) A    3 (B2) B     -0.0135
     5 (A1) A   5 (A1) B   25 (A1) A    5 (A2) B      0.0134
     5 (A1) A   5 (A1) B   12 (A1) A    5 (A2) B      0.0129
     5 (A1) A   5 (A1) B    9 (A1) A    5 (A2) B      0.0127
     5 (A1) A               6 (A2) A                 -0.0124
     5 (A1) A   5 (A1) B   25 (A1) A    4 (A2) B      0.0121
     5 (A1) A   5 (A1) B   15 (A1) A    5 (A2) B      0.0121
    ---------------------------------------------------------
  ----------------------------------------------------------------------------


  Excited state  7 (singlet, A2)                                   [converged]
  ----------------------------------------------------------------------------
  Term symbol:  7 (1) A2                                    R^2 =  4.93959e-15

  Total energy:                                            -78.6337030658 a.u.
  Excitation energy:                                               5.515873 eV

  Osc. strength:                                                      0.000000
  Trans. dip. moment [a.u.]:           [  -0.000000,   -0.000000,   -0.000000]
  <i|r^2|0> [a.u.]:                    [   0.000000,   -0.000000,   -0.000000]
  Two-photon absorption cross-section (SoS) [a.u.]:                   0.000000
  Two-photon absorption matrix (SoS) [a.u.]:
                                       |   -0.000000   -0.000000   -0.000000 |
                                       |   -0.000000   -0.000000   -0.000000 |
                                       |   -0.000000   -0.000000   -0.000000 |

  Dip. moment [a.u.]:                  [  -0.000000,    0.000000,    1.022377]
  Total dipole [Debye]:                                               2.598624
  <r^2> [a.u.]:                        [ 180.132142,   56.706542,  135.380987]
  Total <r^2> [a.u.]:                                               372.219670

  V1^2 = 0.8954, V2^2 = 0.1046

  Important amplitudes:
      occ i      occ j       vir a       vir b          v   
    ---------------------------------------------------------
     1 (B2) A               4 (B1) A                 -0.5130
     1 (B2) A               6 (B1) A                 -0.3595
     1 (B2) A               8 (B1) A                 -0.1873
     1 (B2) A              10 (B1) A                 -0.0835
     1 (B2) A               5 (B1) A                  0.0816
     1 (B2) A               7 (B1) A                 -0.0626
     1 (B2) A               9 (B1) A                 -0.0283
     1 (B2) A              13 (B1) A                 -0.0241
     1 (B2) A              11 (B1) A                 -0.0207
     1 (B2) A              14 (B1) A                  0.0206
     5 (A1) A   1 (B2) B    9 (A1) A    4 (B1) B     -0.0197
     5 (A1) A   1 (B2) A    9 (A1) A    4 (B1) A     -0.0190
     5 (A1) A   1 (B2) B   11 (A1) A    4 (B1) B     -0.0179
     1 (B2) A   1 (B2) B    4 (B1) A    8 (B2) B     -0.0175
     5 (A1) A   1 (B2) B   18 (A1) A    4 (B1) B      0.0173
     5 (A1) A   1 (B2) A   11 (A1) A    4 (B1) A     -0.0169
     1 (B2) A   1 (B2) B    4 (B1) A    5 (B2) B     -0.0165
     5 (A1) A   1 (B2) A   18 (A1) A    4 (B1) A      0.0161
     5 (A1) A   1 (B2) B   19 (A1) A    4 (B1) B      0.0135
     5 (A1) A   1 (B2) B    9 (A1) A    6 (B1) B     -0.0128
     3 (B1) A   1 (B2) B   19 (B1) A    4 (B1) B      0.0125
     5 (A1) A   1 (B2) A    9 (A1) A    6 (B1) A     -0.0123
     1 (B2) A   1 (B2) B    6 (B1) A    8 (B2) B     -0.0121
     3 (A1) A   1 (B2) B   21 (A1) A    4 (B1) B      0.0120
     5 (A1) A   1 (B2) A   19 (A1) A    4 (B1) A      0.0120
     5 (A1) A   1 (B2) B   15 (A1) A    4 (B1) B      0.0116
     1 (B2) A   1 (B2) B    6 (B1) A    5 (B2) B     -0.0116
     5 (A1) A   1 (B2) B   11 (A1) A    6 (B1) B     -0.0113
     1 (B2) A   1 (B2) B    4 (B1) A    4 (B2) B     -0.0109
     5 (A1) A   1 (B2) B   18 (A1) A    6 (B1) B      0.0109
     5 (A1) A   1 (B2) B   21 (A1) A    4 (B1) B     -0.0107
     5 (A1) A   1 (B2) A   11 (A1) A    6 (B1) A     -0.0106
     3 (B1) A   1 (B2) A    4 (B1) A   19 (B1) A     -0.0106
     1 (B2) A              15 (B1) A                 -0.0103
     1 (B2) A              18 (B1) A                  0.0103
     5 (A1) A   1 (B2) A   15 (A1) A    4 (B1) A      0.0102
     5 (A1) A   1 (B2) A   18 (A1) A    6 (B1) A      0.0100
     2 (B1) A   1 (B2) B   18 (B1) A    4 (B1) B      0.0100
     5 (A1) A   1 (B2) A   21 (A1) A    4 (B1) A     -0.0097
     3 (A1) A   1 (B2) A   21 (A1) A    4 (B1) A      0.0096
    ---------------------------------------------------------
  ----------------------------------------------------------------------------


  Excited state  8 (singlet, A2)                                   [converged]
  ----------------------------------------------------------------------------
  Term symbol:  8 (1) A2                                    R^2 =  3.95626e-14

  Total energy:                                            -78.6166189807 a.u.
  Excitation energy:                                               5.980755 eV

  Osc. strength:                                                      0.000000
  Trans. dip. moment [a.u.]:           [   0.000000,    0.000000,   -0.000000]
  <i|r^2|0> [a.u.]:                    [  -0.000000,   -0.000000,   -0.000000]
  Two-photon absorption cross-section (SoS) [a.u.]:                   0.000000
  Two-photon absorption matrix (SoS) [a.u.]:
                                       |    0.000000   -0.000000    0.000000 |
                                       |   -0.000000    0.000000    0.000000 |
                                       |    0.000000    0.000000   -0.000000 |

  Dip. moment [a.u.]:                  [   0.000000,    0.000000,   -1.306148]
  Total dipole [Debye]:                                               3.319899
  <r^2> [a.u.]:                        [ 207.001138,   66.232126,  216.015324]
  Total <r^2> [a.u.]:                                               489.248588

  V1^2 = 0.8910, V2^2 = 0.1090

  Important amplitudes:
      occ i      occ j       vir a       vir b          v   
    ---------------------------------------------------------
     1 (B2) A               5 (B1) A                 -0.4191
     1 (B2) A               4 (B1) A                 -0.3516
     1 (B2) A               6 (B1) A                  0.2357
     1 (B2) A               8 (B1) A                  0.2071
     1 (B2) A               7 (B1) A                  0.1775
     1 (B2) A              10 (B1) A                  0.0956
     1 (B2) A               9 (B1) A                  0.0648
     1 (B2) A              11 (B1) A                  0.0338
     1 (B2) A              13 (B1) A                  0.0268
     1 (B2) A              14 (B1) A                 -0.0226
     1 (B2) A              15 (B1) A                  0.0166
     5 (A1) A   1 (B2) B    9 (A1) A    5 (B1) B     -0.0163
     5 (A1) A   1 (B2) A    9 (A1) A    5 (B1) A     -0.0162
     5 (A1) A   1 (B2) B   11 (A1) A    5 (B1) B     -0.0157
     5 (A1) A   1 (B2) B   18 (A1) A    5 (B1) B      0.0157
     5 (A1) A   1 (B2) A   11 (A1) A    5 (B1) A     -0.0151
     5 (A1) A   1 (B2) A   18 (A1) A    5 (B1) A      0.0146
     1 (B2) A   1 (B2) B    5 (B1) A    8 (B2) B     -0.0143
     5 (A1) A   1 (B2) A    9 (A1) A    4 (B1) A     -0.0140
     5 (A1) A   1 (B2) B    9 (A1) A    4 (B1) B     -0.0140
     1 (B2) A   1 (B2) B    5 (B1) A    5 (B2) B     -0.0134
     5 (A1) A   1 (B2) B   11 (A1) A    4 (B1) B     -0.0126
     5 (A1) A   1 (B2) B   19 (A1) A    5 (B1) B      0.0124
     5 (A1) A   1 (B2) A   11 (A1) A    4 (B1) A     -0.0123
     5 (A1) A   1 (B2) B   18 (A1) A    4 (B1) B      0.0123
     1 (B2) A              18 (B1) A                 -0.0120
     1 (B2) A   1 (B2) B    4 (B1) A    8 (B2) B     -0.0120
     5 (A1) A   1 (B2) A   18 (A1) A    4 (B1) A      0.0115
     1 (B2) A   1 (B2) B    4 (B1) A    5 (B2) B     -0.0113
     5 (A1) A   1 (B2) A   19 (A1) A    5 (B1) A      0.0110
     5 (A1) A   1 (B2) B   15 (A1) A    5 (B1) B      0.0110
     3 (B1) A   1 (B2) B   19 (B1) A    5 (B1) B      0.0103
     5 (A1) A   1 (B2) A   15 (A1) A    5 (B1) A      0.0098
     3 (A1) A   1 (B2) B   21 (A1) A    5 (B1) B      0.0098
     5 (A1) A   1 (B2) B   19 (A1) A    4 (B1) B      0.0096
     5 (A1) A   1 (B2) B   21 (A1) A    5 (B1) B     -0.0094
     1 (B2) A   1 (B2) B    5 (B1) A    4 (B2) B     -0.0089
     3 (B1) A   1 (B2) A    5 (B1) A   19 (B1) A     -0.0088
     3 (B1) A   1 (B2) B   19 (B1) A    4 (B1) B      0.0086
     5 (A1) A   1 (B2) A   21 (A1) A    5 (B1) A     -0.0086
    ---------------------------------------------------------
  ----------------------------------------------------------------------------


  Excited state  9 (singlet, A2)                                   [converged]
  ----------------------------------------------------------------------------
  Term symbol:  9 (1) A2                                    R^2 =  2.65866e-14

  Total energy:                                            -78.6141079178 a.u.
  Excitation energy:                                               6.049084 eV

  Osc. strength:                                                      0.000000
  Trans. dip. moment [a.u.]:           [  -0.000000,   -0.000000,    0.000000]
  <i|r^2|0> [a.u.]:                    [  -0.000000,   -0.000000,    0.000000]
  Two-photon absorption cross-section (SoS) [a.u.]:                   0.000000
  Two-photon absorption matrix (SoS) [a.u.]:
                                       |   -0.000000   -0.000000   -0.000000 |
                                       |   -0.000000   -0.000000   -0.000000 |
                                       |   -0.000000   -0.000000   -0.000000 |

  Dip. moment [a.u.]:                  [   0.000000,    0.000000,   -8.011640]
  Total dipole [Debye]:                                              20.363560
  <r^2> [a.u.]:                        [ 243.467069,   79.120832,  156.785730]
  Total <r^2> [a.u.]:                                               479.373631

  V1^2 = 0.8898, V2^2 = 0.1102

  Important amplitudes:
      occ i      occ j       vir a       vir b          v   
    ---------------------------------------------------------
     1 (B2) A               5 (B1) A                 -0.4795
     1 (B2) A               6 (B1) A                 -0.3043
     1 (B2) A               4 (B1) A                  0.2315
     1 (B2) A               8 (B1) A                 -0.2295
     1 (B2) A              10 (B1) A                 -0.1033
     1 (B2) A               7 (B1) A                  0.0571
     1 (B2) A              13 (B1) A                 -0.0292
     1 (B2) A              14 (B1) A                  0.0260
     5 (A1) A   1 (B2) B    9 (A1) A    5 (B1) B     -0.0189
     5 (A1) A   1 (B2) A    9 (A1) A    5 (B1) A     -0.0188
     5 (A1) A   1 (B2) B   11 (A1) A    5 (B1) B     -0.0184
     5 (A1) A   1 (B2) B   18 (A1) A    5 (B1) B      0.0183
     5 (A1) A   1 (B2) A   11 (A1) A    5 (B1) A     -0.0177
     5 (A1) A   1 (B2) A   18 (A1) A    5 (B1) A      0.0171
     1 (B2) A   1 (B2) B    5 (B1) A    8 (B2) B     -0.0163
     1 (B2) A   1 (B2) B    5 (B1) A    5 (B2) B     -0.0153
     5 (A1) A   1 (B2) B   19 (A1) A    5 (B1) B      0.0145
     1 (B2) A              11 (B1) A                 -0.0142
     5 (A1) A   1 (B2) A   19 (A1) A    5 (B1) A      0.0129
     5 (A1) A   1 (B2) B   15 (A1) A    5 (B1) B      0.0129
     1 (B2) A              18 (B1) A                  0.0125
     3 (B1) A   1 (B2) B   19 (B1) A    5 (B1) B      0.0119
     5 (A1) A   1 (B2) A   15 (A1) A    5 (B1) A      0.0114
     3 (A1) A   1 (B2) B   21 (A1) A    5 (B1) B      0.0111
     5 (A1) A   1 (B2) B   21 (A1) A    5 (B1) B     -0.0110
     5 (A1) A   1 (B2) B    9 (A1) A    6 (B1) B     -0.0108
     5 (A1) A   1 (B2) A    9 (A1) A    6 (B1) A     -0.0108
     1 (B2) A   1 (B2) B    6 (B1) A    8 (B2) B     -0.0103
     1 (B2) A   1 (B2) B    5 (B1) A    4 (B2) B     -0.0101
     3 (B1) A   1 (B2) A    5 (B1) A   19 (B1) A     -0.0101
     5 (A1) A   1 (B2) A   21 (A1) A    5 (B1) A     -0.0100
     1 (B2) A   1 (B2) B    6 (B1) A    5 (B2) B     -0.0098
     1 (B2) A              15 (B1) A                 -0.0097
     5 (A1) A   1 (B2) B   11 (A1) A    6 (B1) B     -0.0096
     5 (A1) A   1 (B2) B   18 (A1) A    6 (B1) B      0.0095
     5 (A1) A   1 (B2) B    9 (A1) A    4 (B1) B      0.0093
     5 (A1) A   1 (B2) A    9 (A1) A    4 (B1) A      0.0093
     2 (B1) A   1 (B2) B   18 (B1) A    5 (B1) B      0.0093
     5 (A1) A   1 (B2) A   11 (A1) A    6 (B1) A     -0.0092
     1 (B2) A              12 (B1) A                 -0.0091
    ---------------------------------------------------------
  ----------------------------------------------------------------------------


  Excited state 10 (singlet, A2)                                   [converged]
  ----------------------------------------------------------------------------
  Term symbol:  10 (1) A2                                   R^2 =  3.60718e-14

  Total energy:                                            -78.6131840255 a.u.
  Excitation energy:                                               6.074225 eV

  Osc. strength:                                                      0.000000
  Trans. dip. moment [a.u.]:           [   0.000000,   -0.000000,    0.000000]
  <i|r^2|0> [a.u.]:                    [   0.000000,    0.000000,    0.000000]
  Two-photon absorption cross-section (SoS) [a.u.]:                   0.000000
  Two-photon absorption matrix (SoS) [a.u.]:
                                       |    0.000000   -0.000000    0.000000 |
                                       |   -0.000000    0.000000   -0.000000 |
                                       |    0.000000   -0.000000   -0.000000 |

  Dip. moment [a.u.]:                  [   0.000000,   -0.000000,    1.013586]
  Total dipole [Debye]:                                               2.576280
  <r^2> [a.u.]:                        [ 108.179612,  169.171446,  105.965258]
  Total <r^2> [a.u.]:                                               383.316316

  V1^2 = 0.0196, V2^2 = 0.9804

  Important amplitudes:
      occ i      occ j       vir a       vir b          v   
    ---------------------------------------------------------
     5 (A1) A   1 (B2) B    5 (A2) A    3 (B2) B     -0.1783
     5 (A1) A   1 (B2) B    4 (A2) A    3 (B2) B      0.1424
     5 (A1) A               5 (A2) A                 -0.0915
     5 (A1) A   1 (B2) B    3 (B2) A    5 (A2) B     -0.0895
     5 (A1) A   1 (B2) A    5 (A2) A    3 (B2) A     -0.0888
     5 (A1) A   1 (B2) B    7 (A2) A    3 (B2) B     -0.0722
     5 (A1) A   1 (B2) B    3 (B2) A    4 (A2) B      0.0715
     5 (A1) A   1 (B2) A    4 (A2) A    3 (B2) A      0.0709
     5 (A1) A   1 (B2) B    5 (A2) A    2 (B2) B      0.0675
     5 (A1) A   1 (B2) B    5 (A2) A    4 (B2) B     -0.0586
     5 (A1) A   1 (B2) B    4 (A2) A    2 (B2) B     -0.0537
     5 (A1) A   1 (B2) B    8 (A2) A    3 (B2) B      0.0491
     5 (A1) A   1 (B2) B    4 (A2) A    4 (B2) B      0.0473
     5 (A1) A   1 (B2) B    3 (A2) A    3 (B2) B      0.0449
     5 (A1) A   1 (B2) B    6 (A2) A    3 (B2) B      0.0445
     5 (A1) A   1 (B2) B    3 (B2) A    7 (A2) B     -0.0362
     5 (A1) A   1 (B2) A    7 (A2) A    3 (B2) A     -0.0360
     5 (A1) A   1 (B2) B    2 (B2) A    5 (A2) B      0.0338
     5 (A1) A   1 (B2) A    5 (A2) A    2 (B2) A      0.0337
     5 (A1) A   1 (B2) B    4 (B2) A    5 (A2) B     -0.0295
     5 (A1) A   1 (B2) A    5 (A2) A    4 (B2) A     -0.0292
     5 (A1) A   1 (B2) B    7 (A2) A    2 (B2) B      0.0275
     5 (A1) A               4 (A2) A                 -0.0272
     5 (A1) A   1 (B2) B    2 (B2) A    4 (A2) B     -0.0269
     5 (A1) A   1 (B2) A    4 (A2) A    2 (B2) A     -0.0268
     5 (A1) A   1 (B2) B    3 (B2) A    8 (A2) B      0.0246
     5 (A1) A   1 (B2) A    8 (A2) A    3 (B2) A      0.0245
     5 (A1) A   1 (B2) B    4 (B2) A    4 (A2) B      0.0237
     5 (A1) A   1 (B2) A    4 (A2) A    4 (B2) A      0.0236
     5 (A1) A   1 (B2) B    7 (A2) A    4 (B2) B     -0.0232
     5 (A1) A   1 (B2) A    3 (A2) A    3 (B2) A      0.0227
     5 (A1) A   1 (B2) B    3 (B2) A    6 (A2) B      0.0225
     5 (A1) A   1 (B2) B    3 (B2) A    3 (A2) B      0.0222
     5 (A1) A   1 (B2) A    6 (A2) A    3 (B2) A      0.0220
     5 (A1) A   1 (B2) B    8 (A2) A    2 (B2) B     -0.0188
     5 (A1) A   1 (B2) B   11 (A2) A    3 (B2) B      0.0176
     5 (A1) A   1 (B2) B    6 (A2) A    2 (B2) B     -0.0169
     5 (A1) A   1 (B2) B    3 (A2) A    2 (B2) B     -0.0168
     5 (A1) A   1 (B2) B    8 (A2) A    4 (B2) B      0.0154
     5 (A1) A   1 (B2) B    3 (A2) A    4 (B2) B      0.0151
    ---------------------------------------------------------
  ----------------------------------------------------------------------------


  Excited state 11 (singlet, A2)                                   [converged]
  ----------------------------------------------------------------------------
  Term symbol:  11 (1) A2                                   R^2 =  6.09624e-14

  Total energy:                                            -78.5876638547 a.u.
  Excitation energy:                                               6.768664 eV

  Osc. strength:                                                      0.000000
  Trans. dip. moment [a.u.]:           [  -0.000000,   -0.000000,    0.000000]
  <i|r^2|0> [a.u.]:                    [  -0.000000,    0.000000,   -0.000000]
  Two-photon absorption cross-section (SoS) [a.u.]:                   0.000000
  Two-photon absorption matrix (SoS) [a.u.]:
                                       |    0.000000   -0.000000    0.000000 |
                                       |   -0.000000    0.000000    0.000000 |
                                       |    0.000000    0.000000    0.000000 |

  Dip. moment [a.u.]:                  [  -0.000000,    0.000000,   -5.419563]
  Total dipole [Debye]:                                              13.775157
  <r^2> [a.u.]:                        [ 166.093131,   52.327519,  182.970909]
  Total <r^2> [a.u.]:                                               401.391560

  V1^2 = 0.8876, V2^2 = 0.1124

  Important amplitudes:
      occ i      occ j       vir a       vir b          v   
    ---------------------------------------------------------
     1 (B2) A               7 (B1) A                 -0.5329
     1 (B2) A               9 (B1) A                 -0.2509
     1 (B2) A               6 (B1) A                  0.2155
     1 (B2) A               5 (B1) A                 -0.1656
     1 (B2) A              11 (B1) A                 -0.0879
     1 (B2) A               8 (B1) A                 -0.0823
     1 (B2) A              10 (B1) A                 -0.0594
     1 (B2) A               4 (B1) A                 -0.0518
     1 (B2) A              15 (B1) A                 -0.0342
     1 (B2) A              12 (B1) A                  0.0220
     5 (A1) A   1 (B2) B   11 (A1) A    7 (B1) B     -0.0205
     5 (A1) A   1 (B2) B   18 (A1) A    7 (B1) B      0.0200
     5 (A1) A   1 (B2) B    9 (A1) A    7 (B1) B     -0.0197
     5 (A1) A   1 (B2) A   18 (A1) A    7 (B1) A      0.0186
     1 (B2) A   1 (B2) B    7 (B1) A    8 (B2) B     -0.0180
[...]
8.39039021939364527e-02 -8.46569237504351424e-01 -6.36946110922053776e-01 1.40890131856844758e+00 -2.19060783538542037e+00 5.34965482314499052e+00 -5.56572221295204284e-02 2.09736163434326495e-01 -1.11148993927793899e-01 -2.22569836647660964e+01 -1.27604308419531298e-01 2.08612999666879961e-01 -1.13727375789339469e+01 7.40350599500570805e-01 -2.66571347132081971e-01 5.26130676672230402e-02 -1.13443382947247318e-01 6.28752514395900242e-02 1.62435127202589291e-01 -5.88334487947016482e-02 -8.15606866070411440e-01 -4.80629952682446238e-01 1.27200198507698259e-01 -1.48084034305545994e-04 -2.57369082834537910e-02 -7.55634962295313461e-02 -2.48194212852748675e-02 -7.57810377870365981e-02
-6.74597529115792197e-03 3.08423749459662451e-02 1.19956106170433802e-02 -1.97467371369579106e-02 -9.01439517720624001e-02 -6.08513540309772588e-02 8.30210741530790486e+00 9.34603744365963962e+00 6.58360531105000746e+00 -1.27604308419531298e-01 -1.80124486523960172e+01 -1.87328837722506858e+00 -1.18839613820137437e-02 2.65644558868454228e-01 -1.11113181909519856e+01 -4.13351396082932643e-01 -1.39564122774029908e-01 -4.77222501780959346e-02 -4.64067779947216041e-01 2.06619479501982095e+00 -5.22502063443421982e-01 1.98393739409573588e+00 -4.41709708650737387e-02 3.44043057385903239e-01 -1.38145838755071138e-01 4.77655598966028744e-02 5.68004775550354293e-02 -2.54525106486735209e-01
-4.80285036944851605e-03 2.66956265274064033e-02 9.52023708807391705e-03 -8.19277229672848648e-03 -1.87345573341342470e-01 -2.05952650732256271e-01 2.10211138943437561e+01 -1.21799529884527225e+00 -5.60269065478709827e+00 2.08612999666879961e-01 -1.87328837722506858e+00 -2.48854438123264003e+01 -1.02733211539393268e-02 -3.33805808704105700e-01 1.51998015889081683e+00 5.40035451134779493e-02 2.62376621465602519e-02 5.79746072452928390e-02 -1.34364687997333210e+00 8.30102292983189116e+00 -2.16256763198822100e+00 7.29423189896349200e+00 -3.82149895467343348e-01 4.32169542721850597e-01 -1.42010838224399139e-01 -8.79793949280820442e-02 5.85134126472764068e-02 -4.99677768096520203e-01
-3.48685598976111177e-01 1.03053019263677914e+00 6.14853618952877934e-01 -2.47296971741374522e-01 -8.76527885509157301e+00 1.70668580300466637e+01 1.41942209590897206e-01 2.24429754184581540e-02 -3.15841840599278556e-01 -1.13727375789339469e+01 -1.18839613820137437e-02 -1.02733211539393268e-02 -2.95770732637127196e+01 2.05560839085493186e+00 5.56530354059319027e-02 3.78097286368187097e-02 -1.71085648083882935e-01 2.38389549291845332e-01 5.18137074179311874e-01 -5.07011909683341200e-01 -4.61403751330767609e+00 -6.83570566125964341e-01 7.16200153993307387e-01 6.42285271728610940e-01 5.35751137463451266e-01 3.99195979561063952e-01 5.55370376917927566e-01 1.13682137260340821e-01
1.66939335672205459e-02 -4.98772318498000578e-02 -5.24268386680423401e-03 2.72681202052645760e-02 5.35681910693270646e-01 -1.22737904396958308e+00 1.49361761721550412e-01 -3.20554343808498177e-01 -3.46031079255659124e-01 7.40350599500570805e-01 2.65644558868454228e-01 -3.33805808704105700e-01 2.05560839085493186e+00 -6.05286164292364925e-01 4.87140740611611278e-01 -9.85480965466940251e-02 3.06542576488547380e-02 -5.04057059767806862e-02 -5.26011120763546086e-02 1.45360284326250255e-01 3.77783988799229975e-01 1.67438869531781331e-01 -3.60610081376558783e-02 1.23109822443852020e-03 -7.83181966120514994e-02 -2.72239518178735672e-03 -7.74531033945166925e-02 -8.76462780809437320e-03
2.11568352826415652e-02 -5.63128209149211106e-02 -3.12212392274253334e-02 7.40456003554999624e-03 7.40824389135835149e-02 -1.46591592364905452e-03 3.34165584466416865e+00 1.50310244592990951e+01 1.20115076086635781e+01 -2.66571347132081971e-01 -1.11113181909519856e+01 1.51998015889081683e+00 5.56530354059319027e-02 4.87140740611611278e-01 -2.28051134111439922e+01 4.16719175660133612e-01 -5.74137266137075414e-02 -1.20924886144266913e-01 -7.02422177705765982e-02 1.28432862418196425e+00 -3.72544567386594916e-01 1.87584852090334930e+00 4.95318909836102300e-02 4.28928662802476462e-02 2.60860020901678091e-01 8.01122501823226529e-02 3.46956026723511113e-01 2.31396254108007571e-01
-1.78450328513985457e-02 3.61894712979356215e-02 -4.95236370154502389e-03 -1.11561042496751035e-02 9.61817975097333661e-03 -1.22552173129392372e-01 1.10267059385662627e-01 5.42645006362505233e-01 4.31710875929374627e-01 5.26130676672230402e-02 -4.13351396082932643e-01 5.40035451134779493e-02 3.78097286368187097e-02 -9.85480965466940251e-02 4.16719175660133612e-01 -3.54063735173786185e+01 4.91276954460303783e-02 1.43589478972950269e+00 5.78515352082636762e-03 2.85052863583479588e-01 -1.56072961096806739e-01 -3.46959798387180385e-01 2.57285584592018730e-02 -9.10911694656602565e-04 1.28816579625801297e-02 -6.90508547908605941e-02 3.63435409230995266e-01 -4.97026395799695209e-01
-1.16779522151082116e-01 2.46200767516335350e-01 1.57291643539090975e-01 1.05587532421458664e-02 -3.83324268005724833e-01 2.02629252554394124e-01 2.91727726132400174e-02 2.71846871264232681e-01 3.32619673766633039e-01 -1.13443382947247318e-01 -1.39564122774029908e-01 2.62376621465602519e-02 -1.71085648083882935e-01 3.06542576488547380e-02 -5.74137266137075414e-02 4.91276954460303783e-02 -2.87093086279958278e+01 3.05703715832750134e-01 3.27059087878961474e+00 7.82169093828307460e-01 -9.95305282316106821e-01 -4.49490031979880092e-02 -1.72912896558599316e-01 -5.58904321887871802e+00 -4.40223781602508080e+00 7.71340588698853691e-01 -1.85830655079233797e-01 -8.10252700248321744e-01
-8.52356119620384517e-02 1.92164911084387990e-01 1.15883515746848603e-01 3.09366890691588348e-02 -1.37873603614248746e-01 -2.79831719257050304e-01 -4.75223214755277346e-02 8.03968097014368666e-02 1.26339964624885670e-01 6.28752514395900242e-02 -4.77222501780959346e-02 5.79746072452928390e-02 2.38389549291845332e-01 -5.04057059767806862e-02 -1.20924886144266913e-01 1.43589478972950269e+00 3.05703715832750134e-01 -1.64161403877243330e+01 -1.66775902728932862e-01 3.70621440164023763e-01 -7.50143872020920532e-02 -5.35971768409064131e-01 6.98147365414001214e-02 1.10027286161225230e-01 1.01513132118328603e-01 1.23727365946843942e-02 1.09207528252946134e-01 -1.30569178517417644e-01
-1.10938020288771005e-01 2.30497191826596337e-01 1.65416064693428788e-01 5.64656719189013598e-02 -1.21824891259887186e-01 -6.08033335675862707e-01 1.28624957461787504e+00 6.24389219985284960e-01 -9.32785218739198729e-01 1.62435127202589291e-01 -4.64067779947216041e-01 -1.34364687997333210e+00 5.18137074179311874e-01 -5.26011120763546086e-02 -7.02422177705765982e-02 5.78515352082636762e-03 3.27059087878961474e+00 -1.66775902728932862e-01 -2.56821025041457460e+01 -1.44466448255921320e+00 -1.31050454676297101e+00 6.48753254543577462e-01 -1.32301759458753265e+00 -1.81894799966690268e+00 1.11584898027773671e+00 6.03965431032012301e+00 1.41542543937400245e+00 -4.39075327113449487e-01
-1.85433980087491290e-01 3.72861467129518620e-01 2.99858757779566054e-01 7.46726171777276349e-02 -4.98288895247141428e-01 6.46929025621049703e-02 -7.89014491341299973e+00 -3.99784848764587242e+00 6.41470322040993057e+00 -5.88334487947016482e-02 2.06619479501982095e+00 8.30102292983189116e+00 -5.07011909683341200e-01 1.45360284326250255e-01 1.28432862418196425e+00 2.85052863583479588e-01 7.82169093828307460e-01 3.70621440164023763e-01 -1.44466448255921320e+00 -1.23249817779604456e+01 3.02333181604556067e+00 -9.18310068868693641e+00 2.71135680159152959e-01 -1.83231734493937370e-01 1.10896626322208119e-01 8.14882269884648069e-01 2.85991524113738627e-01 -6.18176638537898837e-01
2.46459275418394164e+00 -4.94242946344923162e+00 -3.77110659131642567e+00 -1.28370117347684243e+00 5.04988506713241492e+00 5.79725642759165183e+00 2.25690267022617208e+00 1.09874261202885393e+00 -1.88508920503166166e+00 -8.15606866070411440e-01 -5.22502063443421982e-01 -2.16256763198822100e+00 -4.61403751330767609e+00 3.77783988799229975e-01 -3.72544567386594916e-01 -1.56072961096806739e-01 -9.95305282316106821e-01 -7.50143872020920532e-02 -1.31050454676297101e+00 3.02333181604556067e+00 -1.10054780148306826e+01 -6.91006464797311142e-03 -1.50166631222392066e+00 -7.87446454596215206e-01 -1.13005289135690273e-01 5.91951779759214758e-01 -3.51583579544206160e-01 7.97414444231964392e-01
9.22868970534110766e-01 -1.83826140999628240e+00 -1.43657868337868422e+00 -4.79481098976860032e-01 2.09295262867298471e+00 1.63606251861201946e+00 -7.01183421472625668e+00 -4.39374666370023359e+00 5.79459997714437236e+00 -4.80629952682446238e-01 1.98393739409573588e+00 7.29423189896349200e+00 -6.83570566125964341e-01 1.67438869531781331e-01 1.87584852090334930e+00 -3.46959798387180385e-01 -4.49490031979880092e-02 -5.35971768409064131e-01 6.48753254543577462e-01 -9.18310068868693641e+00 -6.91006464797311142e-03 -1.22729820033167414e+01 -1.00392353059164163e+00 -1.92358508831055486e-01 -1.49148434843717537e-01 4.37272458916687645e-01 -7.68888222905064617e-02 7.16820036212323375e-01
-2.96030359407159827e-01 5.96355903046707603e-01 4.90963714857437394e-01 2.01135420691590128e-01 -5.90927734705686381e-01 -8.79744376603185607e-01 2.59105739539605362e-01 1.21876121931211084e-01 -4.35071937431145472e-01 1.27200198507698259e-01 -4.41709708650737387e-02 -3.82149895467343348e-01 7.16200153993307387e-01 -3.60610081376558783e-02 4.95318909836102300e-02 2.57285584592018730e-02 -1.72912896558599316e-01 6.98147365414001214e-02 -1.32301759458753265e+00 2.71135680159152959e-01 -1.50166631222392066e+00 -1.00392353059164163e+00 -2.79067537810140820e+01 1.80431006248158388e-01 5.31868959176458600e-02 -1.87241620420042065e+00 2.34113603716337026e+00 2.43511395258982244e+00
-1.01173248457003678e-01 1.99274967280289372e-01 1.56913795908608822e-01 6.86119582647592569e-02 -1.30394750897064787e-01 -5.18100890296700256e-01 -3.91859727050627826e-01 -5.57963289659981099e-01 1.27520834025134561e-01 -1.48084034305545994e-04 3.44043057385903239e-01 4.32169542721850597e-01 6.42285271728610940e-01 1.23109822443852020e-03 4.28928662802476462e-02 -9.10911694656602565e-04 -5.58904321887871802e+00 1.10027286161225230e-01 -1.81894799966690268e+00 -1.83231734493937370e-01 -7.87446454596215206e-01 -1.92358508831055486e-01 1.80431006248158388e-01 -2.66776170586777681e+01 3.82773341113427934e+00 -1.42328761522198838e-01 1.72184719822957533e+00 1.59240951393624997e+00
-3.81135444292430778e-02 5.62610044803239506e-02 4.15616709313810090e-02 1.88477709919632613e-02 2.67515032736565309e-02 -3.60707429409159674e-01 1.08365186221084236e-03 9.93151353607389931e-02 -5.88122589019270808e-02 -2.57369082834537910e-02 -1.38145838755071138e-01 -1.42010838224399139e-01 5.35751137463451266e-01 -7.83181966120514994e-02 2.60860020901678091e-01 1.28816579625801297e-02 -4.40223781602508080e+00 1.01513132118328603e-01 1.11584898027773671e+00 1.10896626322208119e-01 -1.13005289135690273e-01 -1.49148434843717537e-01 5.31868959176458600e-02 3.82773341113427934e+00 -3.17745925591027891e+01 3.17062577615676844e+00 2.87254842861851678e+00 7.48479310465857139e-01
7.55221329028025745e-02 -1.47085035957874755e-01 -1.50322514119482303e-01 -6.18414126338197104e-02 2.50718137150631182e-01 -1.45292794320673546e-01 2.60831378403411432e-02 -1.15269618911772925e-01 -1.30674996552692102e-02 -7.55634962295313461e-02 4.77655598966028744e-02 -8.79793949280820442e-02 3.99195979561063952e-01 -2.72239518178735672e-03 8.01122501823226529e-02 -6.90508547908605941e-02 7.71340588698853691e-01 1.23727365946843942e-02 6.03965431032012301e+00 8.14882269884648069e-01 5.91951779759214758e-01 4.37272458916687645e-01 -1.87241620420042065e+00 -1.42328761522198838e-01 3.17062577615676844e+00 -2.40319702708446599e+01 3.55651084461041656e+00 -3.92678082856921129e-01
-9.95357994664805013e-02 1.98467488150036925e-01 2.53015849205264542e-01 1.42559476223195730e-01 -1.94323336257130053e-01 -4.59416517288303849e-01 5.86874580836927034e-02 -3.82527274220866853e-01 -1.91935622804067341e-01 -2.48194212852748675e-02 5.68004775550354293e-02 5.85134126472764068e-02 5.55370376917927566e-01 -7.74531033945166925e-02 3.46956026723511113e-01 3.63435409230995266e-01 -1.85830655079233797e-01 1.09207528252946134e-01 1.41542543937400245e+00 2.85991524113738627e-01 -3.51583579544206160e-01 -7.68888222905064617e-02 2.34113603716337026e+00 1.72184719822957533e+00 2.87254842861851678e+00 3.55651084461041656e+00 -3.13343162379557114e+01 4.47276425774160735e+00
5.93584865525902949e-02 -1.44424488122749883e-01 -2.26545693841089718e-01 -1.24509281983142345e-01 2.08370105653759158e-01 8.32137453267481897e-02 1.19461197302392547e-01 3.89152746781966263e-01 -3.54468914010674929e-01 -7.57810377870365981e-02 -2.54525106486735209e-01 -4.99677768096520203e-01 1.13682137260340821e-01 -8.76462780809437320e-03 2.31396254108007571e-01 -4.97026395799695209e-01 -8.10252700248321744e-01 -1.30569178517417644e-01 -4.39075327113449487e-01 -6.18176638537898837e-01 7.97414444231964392e-01 7.16820036212323375e-01 2.43511395258982244e+00 1.59240951393624997e+00 7.48479310465857139e-01 -3.92678082856921129e-01 4.47276425774160735e+00 -3.36827244306907545e+01

************************************************************
  Printing results (es2es) ...  CPU 0.13 s  wall 0.23 s
  Time of ADC calculation:  CPU 11140.59 s  wall 1764.02 s
--------------------------------------------------------------------------------
================================================================================
 
 --------------------------------------------------------------
             Orbital Energies (a.u.) and Symmetries
 --------------------------------------------------------------
 
 Alpha MOs, Restricted
 -- Occupied --                  
-11.074 -11.072  -0.880  -0.622  -0.497  -0.407  -0.351  -0.217
  1 A1    1 B1    2 A1    2 B1    3 A1    4 A1    3 B1    1 B2                 
 -0.045
  5 A1                                                                         
 -- Virtual --                   
  0.061   0.067   0.068   0.068   0.072   0.083   0.102   0.112
  4 B1    2 B2    6 A1    1 A2    5 B1    7 A1    6 B1    3 B2                 
  0.114   0.115   0.122   0.128   0.159   0.166   0.176   0.176
  2 A2    8 A1    7 B1    9 A1    8 B1   10 A1    4 B2    3 A2                 
  0.186   0.188   0.232   0.247   0.253   0.268   0.276   0.281
 11 A1    9 B1   12 A1   10 B1    4 A2   13 A1    5 B2   11 B1                 
  0.298   0.311   0.326   0.356   0.379   0.380   0.404   0.416
 12 B1   14 A1    5 A2    6 B2   15 A1   13 B1   16 A1    7 B2                 
  0.419   0.430   0.433   0.447   0.468   0.483   0.492   0.521
  6 A2   17 A1   14 B1   15 B1    7 A2   18 A1    8 B2   16 B1                 
  0.557   0.560   0.591   0.631   0.637   0.642   0.693   0.721
 17 B1   19 A1   20 A1   18 B1   21 A1    8 A2   22 A1   19 B1                 
  0.726   0.761   0.797   0.799   0.851   0.868   0.877   0.998
  9 B2   23 A1   24 A1   20 B1   10 B2    9 A2   21 B1   22 B1                 
  1.064   1.071   1.077   1.213   1.242   1.253   1.265   1.284
 23 B1   10 A2   25 A1   11 B2   26 A1   24 B1   27 A1   11 A2                 
  1.352   1.385   1.432   1.669   1.699   1.733   1.803   1.815
 25 B1   28 A1   29 A1   26 B1   27 B1   30 A1   12 B2   13 B2                 
  1.885   1.931   1.952   1.956   1.973   2.057   2.107   2.107
 14 B2   31 A1   28 B1   12 A2   32 A1   13 A2   15 B2   29 B1                 
  2.147   2.148   2.193   2.201   2.415   2.436   2.524   2.637
 33 A1   30 B1   16 B2   34 A1   35 A1   31 B1   14 A2   15 A2                 
  2.730   2.797   2.819   2.885   3.062   3.077   3.620   3.818
 36 A1   32 B1   33 B1   34 B1   37 A1   38 A1   35 B1   36 B1                 
 
 Beta MOs, Restricted
 -- Occupied --                  
-11.074 -11.072  -0.880  -0.622  -0.497  -0.407  -0.351  -0.217
  1 A1    1 B1    2 A1    2 B1    3 A1    4 A1    3 B1    1 B2                 
 -0.045
  5 A1                                                                         
 -- Virtual --                   
  0.061   0.067   0.068   0.068   0.072   0.083   0.102   0.112
  4 B1    2 B2    6 A1    1 A2    5 B1    7 A1    6 B1    3 B2                 
  0.114   0.115   0.122   0.128   0.159   0.166   0.176   0.176
  2 A2    8 A1    7 B1    9 A1    8 B1   10 A1    4 B2    3 A2                 
  0.186   0.188   0.232   0.247   0.253   0.268   0.276   0.281
 11 A1    9 B1   12 A1   10 B1    4 A2   13 A1    5 B2   11 B1                 
  0.298   0.311   0.326   0.356   0.379   0.380   0.404   0.416
 12 B1   14 A1    5 A2    6 B2   15 A1   13 B1   16 A1    7 B2                 
  0.419   0.430   0.433   0.447   0.468   0.483   0.492   0.521
  6 A2   17 A1   14 B1   15 B1    7 A2   18 A1    8 B2   16 B1                 
  0.557   0.560   0.591   0.631   0.637   0.642   0.693   0.721
 17 B1   19 A1   20 A1   18 B1   21 A1    8 A2   22 A1   19 B1                 
  0.726   0.761   0.797   0.799   0.851   0.868   0.877   0.998
  9 B2   23 A1   24 A1   20 B1   10 B2    9 A2   21 B1   22 B1                 
  1.064   1.071   1.077   1.213   1.242   1.253   1.265   1.284
 23 B1   10 A2   25 A1   11 B2   26 A1   24 B1   27 A1   11 A2                 
  1.352   1.385   1.432   1.669   1.699   1.733   1.803   1.815
 25 B1   28 A1   29 A1   26 B1   27 B1   30 A1   12 B2   13 B2                 
  1.885   1.931   1.952   1.956   1.973   2.057   2.107   2.107
 14 B2   31 A1   28 B1   12 A2   32 A1   13 A2   15 B2   29 B1                 
  2.147   2.148   2.193   2.201   2.415   2.436   2.524   2.637
 33 A1   30 B1   16 B2   34 A1   35 A1   31 B1   14 A2   15 A2                 
  2.730   2.797   2.819   2.885   3.062   3.077   3.620   3.818
 36 A1   32 B1   33 B1   34 B1   37 A1   38 A1   35 B1   36 B1                 
 --------------------------------------------------------------
 
          Ground-State Mulliken Net Atomic Charges

     Atom                 Charge (a.u.)
  ----------------------------------------
      1 C                    -0.371400
      2 C                    -0.371400
      3 H                     0.113850
      4 H                     0.113850
      5 H                     0.005039
      6 H                     0.005039
      7 H                    -0.494977
  ----------------------------------------
  Sum of atomic charges =    -1.000000

 -----------------------------------------------------------------
                    Cartesian Multipole Moments
 -----------------------------------------------------------------
    Charge (ESU x 10^10)
                -4.8032
    Dipole Moment (Debye)
         X       0.0000      Y       0.0000      Z     -11.1631
       Tot      11.1631
    Quadrupole Moments (Debye-Ang)
        XX     -26.3980     XY      -0.0000     YY     -26.0078
        XZ      -0.0000     YZ      -0.0000     ZZ     -55.7347
    Octopole Moments (Debye-Ang^2)
       XXX       0.0000    XXY       0.0000    XYY       0.0000
       YYY       0.0000    XXZ      -8.4123    XYZ       0.0000
       YYZ     -17.5939    XZZ       0.0000    YZZ       0.0000
       ZZZ    -132.6054
    Hexadecapole Moments (Debye-Ang^3)
      XXXX    -636.7117   XXXY      -0.0000   XXYY     -94.3529
      XYYY      -0.0000   YYYY    -146.1875   XXXZ      -0.0000
      XXYZ       0.0000   XYYZ      -0.0000   YYYZ      -0.0000
      XXZZ    -146.6370   XYZZ      -0.0000   YYZZ    -101.2592
      XZZZ      -0.0000   YZZZ      -0.0000   ZZZZ    -667.6377
 -----------------------------------------------------------------
 Total job time:  1847.78s(wall), 11191.86s(cpu) 
 Tue Mar 29 21:39:09 2022

        *************************************************************
        *                                                           *
        *  Thank you very much for using Q-Chem.  Have a nice day.  *
        *                                                           *
        *************************************************************


