/src/tsommerfeld/qchem/exe/qcprog.exe .input1.781818.25985.qcin.1 /src/jdavis/qchem.scratch/qchem25985/

                  Welcome to Q-Chem
     A Quantum Leap Into The Future Of Chemistry


 Q-Chem 5.4 (devel), Q-Chem, Inc., Pleasanton, CA (2021)

 E. Epifanovsky,  A. T. B. Gilbert,  Xintian Feng,  Joonho Lee,  Yuezhi Mao,  
 N. Mardirossian,  P. Pokhilko,  A. White,  M. Wormit,  M. P. Coons,  
 A. L. Dempwolff,  Zhengting Gan,  D. Hait,  P. R. Horn,  L. D. Jacobson,  
 I. Kaliman,  J. Kussmann,  A. W. Lange,  Ka Un Lao,  D. S. Levine,  Jie Liu,  
 S. C. McKenzie,  A. F. Morrison,  K. Nanda,  F. Plasser,  D. R. Rehn,  
 M. L. Vidal,  Zhi-Qiang You,  Ying Zhu,  B. Alam,  B. Albrecht,  
 A. Aldossary,  E. Alguire,  J. H. Andersen,  D. Barton,  K. Begam,  A. Behn,  
 Y. A. Bernard,  E. J. Berquist,  H. Burton,  A. Carreras,  K. Carter-Fenk,  
 R. Chakraborty,  A. D. Chien,  K. D. Closser,  V. Cofer-Shabica,  
 S. Dasgupta,  Jia Deng,  M. de Wergifosse,  M. Diedenhofen,  Hainam Do,  
 S. Ehlert,  Po-Tung Fang,  S. Fatehi,  Qingguo Feng,  T. Friedhoff,  
 J. Gayvert,  Qinghui Ge,  G. Gidofalvi,  M. Goldey,  J. Gomes,  
 C. Gonzalez-Espinoza,  S. Gulania,  A. Gunina,  M. W. D. Hanson-Heine,  
 P. H. P. Harbach,  A. W. Hauser,  M. F. Herbst,  M. Hernandez Vera,  
 M. Hodecker,  Z. C. Holden,  S. Houck,  Xunkun Huang,  Kerwin Hui,  
 B. C. Huynh,  M. Ivanov,  Hyunjun Ji,  Hanjie Jiang,  B. Kaduk,  S. Kaehler,  
 K. Khistyaev,  Jaehoon Kim,  P. Klunzinger,  Z. Koczor-Benda,  
 Joong Hoon Koh,  D. Kosenkov,  L. Koulias,  T. Kowalczyk,  C. M. Krauter,  
 K. Kue,  A. Kunitsa,  T. Kus,  A. Landau,  K. V. Lawler,  D. Lefrancois,  
 S. Lehtola,  Rain Li,  Yi-Pei Li,  Jiashu Liang,  M. Liebenthal,  
 Hung-Hsuan Lin,  You-Sheng Lin,  Fenglai Liu,  Kuan-Yu Liu,  
 M. Loipersberger,  A. Luenser,  A. Manjanath,  P. Manohar,  E. Mansoor,  
 S. F. Manzer,  Shan-Ping Mao,  A. V. Marenich,  T. Markovich,  S. Mason,  
 S. A. Maurer,  P. F. McLaughlin,  M. F. S. J. Menger,  J.-M. Mewes,  
 S. A. Mewes,  P. Morgante,  J. W. Mullinax,  K. J. Oosterbaan,  G. Paran,  
 Alexander C. Paul,  Suranjan K. Paul,  F. Pavosevic,  Zheng Pei,  S. Prager,  
 E. I. Proynov,  E. Ramos,  B. Rana,  A. E. Rask,  A. Rettig,  R. M. Richard,  
 F. Rob,  E. Rossomme,  T. Scheele,  M. Scheurer,  M. Schneider,  
 N. Sergueev,  S. M. Sharada,  W. Skomorowski,  D. W. Small,  C. J. Stein,  
 Yu-Chuan Su,  E. J. Sundstrom,  Zhen Tao,  J. Thirman,  T. Tsuchimochi,  
 N. M. Tubman,  S. P. Veccham,  O. Vydrov,  J. Wenzel,  J. Witte,  A. Yamada,  
 Kun Yao,  S. Yeganeh,  S. R. Yost,  A. Zech,  Igor Ying Zhang,  Xing Zhang,  
 Yu Zhang,  D. Zuev,  A. Aspuru-Guzik,  A. T. Bell,  N. A. Besley,  
 K. B. Bravaya,  B. R. Brooks,  D. Casanova,  Jeng-Da Chai,  S. Coriani,  
 C. J. Cramer,  A. E. DePrince, III,  R. A. DiStasio Jr.,  A. Dreuw,  
 B. D. Dunietz,  T. R. Furlani,  W. A. Goddard III,  S. Grimme,  
 S. Hammes-Schiffer,  T. Head-Gordon,  W. J. Hehre,  Chao-Ping Hsu,  
 T.-C. Jagau,  Yousung Jung,  A. Klamt,  Jing Kong,  D. S. Lambrecht,  
 WanZhen Liang,  N. J. Mayhall,  C. W. McCurdy,  J. B. Neaton,  
 C. Ochsenfeld,  J. A. Parkhill,  R. Peverati,  V. A. Rassolov,  Yihan Shao,  
 L. V. Slipchenko,  T. Stauch,  R. P. Steele,  J. E. Subotnik,  
 A. J. W. Thom,  A. Tkatchenko,  D. G. Truhlar,  T. Van Voorhis,  
 T. A. Wesolowski,  K. B. Whaley,  H. L. Woodcock III,  P. M. Zimmerman,  
 S. Faraji,  P. M. W. Gill,  M. Head-Gordon,  J. M. Herbert,  A. I. Krylov

 Additional authors for Version 5.4.1: 
 S. Kotaru,  Shaozhi Li,  Xiangyuan Li,  F. Matz,  A. Molle,  Haisheng Ren,  
 Yingli Su,  Hung-Yi Tsai,  C. Utku,  Fang Wang

 Contributors to earlier versions of Q-Chem not listed above: 
 R. D. Adamson,  B. Austin,  R. Baer,  J. Baker,  G. J. O. Beran,  
 K. Brandhorst,  S. T. Brown,  E. F. C. Byrd,  A. K. Chakraborty,  
 G. K. L. Chan,  Chun-Min Chang,  Yunqing Chen,  C.-L. Cheng,  
 Siu Hung Chien,  D. M. Chipman,  D. L. Crittenden,  H. Dachsel,  
 R. J. Doerksen,  A. D. Dutoi,  R. G. Edgar,  J. Fosso-Tande,  
 L. Fusti-Molnar,  D. Ghosh,  A. Ghysels,  A. Golubeva-Zadorozhnaya,  
 J. Gonthier,  M. S. Gordon,  S. R. Gwaltney,  G. Hawkins,  J. E. Herr,  
 A. Heyden,  S. Hirata,  E. G. Hohenstein,  G. Kedziora,  F. J. Keil,  
 C. Kelley,  Jihan Kim,  R. A. King,  R. Z. Khaliullin,  P. P. Korambath,  
 W. Kurlancheek,  A. Laurent,  A. M. Lee,  M. S. Lee,  S. V. Levchenko,  
 Ching Yeh Lin,  D. Liotard,  E. Livshits,  R. C. Lochan,  I. Lotan,  
 L. A. Martinez-Martinez,  P. E. Maslen,  N. Nair,  D. P. O'Neill,  
 D. Neuhauser,  E. Neuscamman,  C. M. Oana,  R. Olivares-Amaya,  R. Olson,  
 T. M. Perrine,  B. Peters,  P. A. Pieniazek,  A. Prociuk,  Y. M. Rhee,  
 J. Ritchie,  M. A. Rohrdanz,  E. Rosta,  N. J. Russ,  H. F. Schaefer III,  
 M. W. Schmidt,  N. E. Schultz,  S. Sharma,  N. Shenvi,  C. D. Sherrill,  
 A. C. Simmonett,  A. Sodt,  T. Stein,  D. Stuck,  K. S. Thanthiriwatte,  
 V. Vanovschi,  L. Vogt,  Tao Wang,  A. Warshel,  M. A. Watson,  
 C. F. Williams,  Q. Wu,  X. Xu,  Jun Yang,  W. Zhang,  Yan Zhao

 Please cite Q-Chem as follows:
 Y. Shao et al., Mol. Phys. 113, 184-215 (2015)
 DOI: 10.1080/00268976.2014.952696

 Q-Chem 5.4.1 for Intel X86 EM64T Linux

 Parts of Q-Chem use Armadillo 9.900.5 (Nocturnal Misbehaviour).
 http://arma.sourceforge.net/

 Q-Chem begins on Wed Mar  2 17:53:06 2022  

 Host: node01
0

     Scratch files written to /src/jdavis/qchem.scratch/qchem25985//
 Processing $rem in /src/tsommerfeld/qchem/config/preferences:
 Processing $rem in /home/jdavis/.qchemrc:

 Checking the input file for inconsistencies... 	...done.

--------------------------------------------------------------
User input:
--------------------------------------------------------------
$molecule
-1 1
C        -0.6645000000    0.0000000000    1.1619088658
C         0.6645000000    0.0000000000    1.1619088658
H        -1.1590800000    0.0000000000    0.1995598658
H         1.1590800000    0.0000000000    0.1995598658
H        -1.1590800000    0.0000000000    2.1242568658
H         1.1590800000    0.0000000000    2.1242568658
O         0.0000000000    0.0000000000   -1.5841414040
H         0.0000000000    0.0000000000   -2.5471307683
$end
$rem
   METHOD adc(2)
   BASIS gen
   PURECART 11
   EE_STATES [0,0,10,0]
   scf_convergence 8
   ADC_DAVIDSON_MAXITER 120
   ADC_DAVIDSON_MAXSUBSPACE 200
   adc_nguess_singles 100
   THRESH 14
   S2THRESH 14
   adc_davidson_conv 5
   adc_davidson_thresh 14
   THREADS 10
   MEM_TOTAL 95000
   STATE_ANALYSIS TRUE
$end
$basis
C 1
S   9   1.00
      6.665000D+03           6.920000D-04
      1.000000D+03           5.329000D-03
      2.280000D+02           2.707700D-02
      6.471000D+01           1.017180D-01
      2.106000D+01           2.747400D-01
      7.495000D+00           4.485640D-01
      2.797000D+00           2.850740D-01
      5.215000D-01           1.520400D-02
      1.596000D-01          -3.191000D-03
S   9   1.00
      6.665000D+03          -1.460000D-04
      1.000000D+03          -1.154000D-03
      2.280000D+02          -5.725000D-03
      6.471000D+01          -2.331200D-02
      2.106000D+01          -6.395500D-02
      7.495000D+00          -1.499810D-01
      2.797000D+00          -1.272620D-01
      5.215000D-01           5.445290D-01
      1.596000D-01           5.804960D-01
S   1   1.00
      1.596000D-01           1.000000D+00
S   1   1.00
      0.0469000              1.0000000
P   4   1.00
      9.439000D+00           3.810900D-02
      2.002000D+00           2.094800D-01
      5.456000D-01           5.085570D-01
      1.517000D-01           4.688420D-01
P   1   1.00
      1.517000D-01           1.000000D+00
P   1   1.00
      0.0772291      1.0000000
P   1   1.00
      0.0386145      1.0000000
D   1   1.00
      5.500000D-01           1.0000000
****
C 2
S   9   1.00
      6.665000D+03           6.920000D-04
      1.000000D+03           5.329000D-03
      2.280000D+02           2.707700D-02
      6.471000D+01           1.017180D-01
      2.106000D+01           2.747400D-01
      7.495000D+00           4.485640D-01
      2.797000D+00           2.850740D-01
      5.215000D-01           1.520400D-02
      1.596000D-01          -3.191000D-03
S   9   1.00
      6.665000D+03          -1.460000D-04
      1.000000D+03          -1.154000D-03
      2.280000D+02          -5.725000D-03
      6.471000D+01          -2.331200D-02
      2.106000D+01          -6.395500D-02
      7.495000D+00          -1.499810D-01
      2.797000D+00          -1.272620D-01
      5.215000D-01           5.445290D-01
      1.596000D-01           5.804960D-01
S   1   1.00
      1.596000D-01           1.000000D+00
S   1   1.00
      0.0469000              1.0000000
P   4   1.00
      9.439000D+00           3.810900D-02
      2.002000D+00           2.094800D-01
      5.456000D-01           5.085570D-01
      1.517000D-01           4.688420D-01
P   1   1.00
      1.517000D-01           1.000000D+00
P   1   1.00
      0.0772291      1.0000000
P   1   1.00
      0.0386145      1.0000000
D   1   1.00
      5.500000D-01           1.0000000
****
H 3
cc-pVDZ
****
H 4
cc-pVDZ
****
H 5
cc-pVDZ
****
H 6
cc-pVDZ
****
O 7
aug-cc-pVDZ
****
H 8
cc-pVDZ
****
$end
--------------------------------------------------------------
 ----------------------------------------------------------------
             Standard Nuclear Orientation (Angstroms)
    I     Atom           X                Y                Z
 ----------------------------------------------------------------
    1      C      -0.6645000000    -0.0000000000     1.0270977517
    2      C       0.6645000000     0.0000000000     1.0270977517
    3      H      -1.1590800000    -0.0000000000     0.0647487517
    4      H       1.1590800000     0.0000000000     0.0647487517
    5      H      -1.1590800000    -0.0000000000     1.9894457517
    6      H       1.1590800000     0.0000000000     1.9894457517
    7      O       0.0000000000    -0.0000000000    -1.7189525181
    8      H       0.0000000000    -0.0000000000    -2.6819418824
 ----------------------------------------------------------------
 Molecular Point Group                 C2v   NOp =  4
 Largest Abelian Subgroup              C2v   NOp =  4
 Nuclear Repulsion Energy =          64.38561153 hartrees
 There are       13 alpha and       13 beta electrons
 Requested basis set is non-standard
 There are 42 shells and 90 basis functions
 Total memory of 95000 MB is distributed as follows: 
   MEM_STATIC is set to 192 MB
   QALLOC/CCMAN JOB total memory use is  94808 MB
 Warning: actual memory use might exceed 95000 MB

 Total QAlloc Memory Limit  95000 MB
 Mega-Array Size       188 MB
 MEM_STATIC part       192 MB

                       Distance Matrix (Angstroms)
             C (  1)   C (  2)   H (  3)   H (  4)   H (  5)   H (  6)
   C (  2)  1.329000
   H (  3)  1.082000  2.061931
   H (  4)  2.061931  1.082000  2.318160
   H (  5)  1.082000  2.061931  1.924697  3.013026
   H (  6)  2.061931  1.082000  3.013026  1.924697  2.318160
   O (  7)  2.825306  2.825306  2.127218  2.127218  3.885316  3.885316
   H (  8)  3.768094  3.768094  2.981237  2.981237  4.813037  4.813037
             O (  7)
   H (  8)  0.962989
 
 A cutoff of  1.0D-14 yielded    903 shell pairs
 There are      4183 function pairs (      4573 Cartesian)
 Smallest overlap matrix eigenvalue = 2.11E-04

 Scale SEOQF with 1.000000e-01/1.000000e-01/1.000000e-01

 Standard Electronic Orientation quadrupole field applied
 Nucleus-field energy     =    -0.0000000051 hartrees
 ================ Generating on-the-fly SAD Guess ================
Attempting to make child job directory: /src/jdavis/qchem.scratch/qchem25985//Frg1/
Attempting to make child job directory: /src/jdavis/qchem.scratch/qchem25985//Frg2/
Attempting to make child job directory: /src/jdavis/qchem.scratch/qchem25985//Frg3/
Creating input file /src/jdavis/qchem.scratch/qchem25985/Frg1.input
using default PutDataFrgm: nothing
calling putenv with: QCSCRATCH=/src/jdavis/qchem.scratch/qchem25985/ 
Spawning Job For Fragment 0
Done Job For Fragment 0
calling putenv with: QCSCRATCH=/src/jdavis/qchem.scratch 
calling putenv with: QCTHREADS=1 
Creating input file /src/jdavis/qchem.scratch/qchem25985/Frg2.input
using default PutDataFrgm: nothing
calling putenv with: QCSCRATCH=/src/jdavis/qchem.scratch/qchem25985/ 
Spawning Job For Fragment 1
Done Job For Fragment 1
calling putenv with: QCSCRATCH=/src/jdavis/qchem.scratch 
calling putenv with: QCTHREADS=1 
Creating input file /src/jdavis/qchem.scratch/qchem25985/Frg3.input
using default PutDataFrgm: nothing
calling putenv with: QCSCRATCH=/src/jdavis/qchem.scratch/qchem25985/ 
Spawning Job For Fragment 2
Done Job For Fragment 2
calling putenv with: QCSCRATCH=/src/jdavis/qchem.scratch 
calling putenv with: QCTHREADS=1 
 Time for running child jobs:  CPU 1.77 s  wall 80.44 s
 ============= Method Specific SAD Guess Constructed =============
 Guess from on-the-fly superposition of atomic densities
 Warning: Energy on first SCF cycle will be non-variational
 A restricted Hartree-Fock SCF calculation will be
 performed using Pulay DIIS extrapolation
 SCF converges when DIIS error is below 1.0E-08
 using 10 threads for integral computing
 -------------------------------------------------------
 OpenMP Integral computing Module                
 Release: version 1.0, May 2013, Q-Chem Inc. Pittsburgh 
 -------------------------------------------------------
 ---------------------------------------
  Cycle       Energy         DIIS Error
 ---------------------------------------
    1    -153.5748216229      5.98E-02
    2    -153.2898919141      1.22E-02
    3    -153.3565014827      1.02E-02
    4    -153.4403599208      7.53E-04
    5    -153.4412779387      2.11E-04
    6    -153.4413508137      4.61E-05
    7    -153.4413561106      1.20E-05
    8    -153.4413566686      3.63E-06
    9    -153.4413567169      7.48E-07
   10    -153.4413567185      1.28E-07
   11    -153.4413567186      3.51E-08
   12    -153.4413567186      1.03E-08
   13    -153.4413567186      2.17E-09 Convergence criterion met
 ---------------------------------------
 SCF time:  CPU 15.36 s  wall 1.54 s
 SCF   energy in the final basis set = -153.44135672
 Total energy in the final basis set = -153.44135672
================================================================================
|                                                                              |
|                                 A D C  M A N                                 |
|                                                                              |
 ------------------------------------------------------------------------------ 
|                                                                              |
| Components:                                                                  |
|                                                                              |
| - libvmm - 1.3-trunk                                                         |
|   Authors:                                                                   |
|   Evgeny Epifanovsky, Ilya Kaliman                                           |
|                                                                              |
| - libtensor - 2.5-trunk                                                      |
|   Authors:                                                                   |
|   Evgeny Epifanovsky, Michael Wormit, Dmitry Zuev, Sam Manzer,               |
|   Ilya Kaliman                                                               |
|                                                                              |
| - libwfa - 1.1-trunk                                                         |
|   Authors:                                                                   |
|   Felix Plasser, Stefanie Mewes (Baeppler), Benjamin Thomitzni,              |
|   Michael Wormit, Feng Chen, Anna I. Krylov, Pavel Pokhilko                  |
|                                                                              |
| - libadc - 1.1-trunk                                                         |
|   Authors:                                                                   |
|   Michael Wormit, Adrian L. Dempwolff, Philipp H. P. Harbach,                |
|   Caroline Krauter, Dirk Rehn, Matthias Schneider, Jan Wenzel                |
|                                                                              |
| - adcman - 2.6-trunk                                                         |
|   Authors:                                                                   |
|   Michael Wormit, Adrian L. Dempwolff, Philipp H. P. Harbach,                |
|   Caroline Krauter, Daniel Lefrancois, Jan-Michael Mewes, Dirk Rehn,         |
|   Matthias Schneider, Jan Wenzel, Andreas Dreuw                              |
|                                                                              |
| Authors of earlier versions of ADCMAN:                                       |
| Andreas Dreuw, Jan Hendrik Starcke, Dirk Rehn, Michael Wormit                |
|                                                                              |
================================================================================

 
 Alpha MOs, Restricted
 -- Occupied --                  
-20.213 -11.049 -11.047  -0.930  -0.854  -0.598  -0.473  -0.384
  1 A1    2 A1    1 B1    3 A1    4 A1    2 B1    5 A1    6 A1                 
 -0.328  -0.271  -0.194  -0.130  -0.129
  3 B1    7 A1    1 B2    4 B1    2 B2                                         
 -- Virtual --                   
  0.179   0.189   0.216   0.219   0.223   0.239   0.294   0.329
  5 B1    8 A1    3 B2    9 A1    1 A2    6 B1   10 A1   11 A1                 
  0.340   0.350   0.434   0.442   0.455   0.477   0.492   0.506
  2 A2    7 B1   12 A1    4 B2    8 B1   13 A1    9 B1    5 B2                 
  0.510   0.515   0.563   0.577   0.583   0.586   0.701   0.725
 14 A1   10 B1   11 B1   15 A1    3 A2   16 A1   17 A1   12 B1                 
  0.797   0.993   1.034   1.118   1.129   1.143   1.198   1.200
 13 B1   18 A1   19 A1   20 A1   14 B1   21 A1    6 B2   15 B1                 
  1.266   1.275   1.291   1.311   1.317   1.334   1.334   1.336
 22 A1    7 B2    4 A2   16 B1    5 A2   17 B1   23 A1   24 A1                 
  1.370   1.461   1.473   1.483   1.651   1.665   1.720   1.736
  8 B2   18 B1    9 B2    6 A2   19 B1   25 A1   10 B2   20 B1                 
  1.874   1.939   2.033   2.063   2.128   2.131   2.176   2.213
 26 A1   21 B1   27 A1    7 A2   28 A1   11 B2   22 B1   12 B2                 
  2.261   2.335   2.367   2.394   2.438   2.529   2.579   2.604
 29 A1   30 A1    8 A2   13 B2   23 B1   24 B1   31 A1    9 A2                 
  2.768   2.771   2.854   3.037   3.057   3.119   3.456   3.566
 32 A1   25 B1   26 B1   33 A1   34 A1   35 A1   27 B1   28 B1                 
  3.923   3.946   3.972   4.090   4.545
 14 B2   10 A2   36 A1   29 B1   37 A1                                         
 
 Beta MOs, Restricted
 -- Occupied --                  
-20.213 -11.049 -11.047  -0.930  -0.854  -0.598  -0.473  -0.384
  1 A1    2 A1    1 B1    3 A1    4 A1    2 B1    5 A1    6 A1                 
 -0.328  -0.271  -0.194  -0.130  -0.129
  3 B1    7 A1    1 B2    4 B1    2 B2                                         
 -- Virtual --                   
  0.179   0.189   0.216   0.219   0.223   0.239   0.294   0.329
  5 B1    8 A1    3 B2    9 A1    1 A2    6 B1   10 A1   11 A1                 
  0.340   0.350   0.434   0.442   0.455   0.477   0.492   0.506
  2 A2    7 B1   12 A1    4 B2    8 B1   13 A1    9 B1    5 B2                 
  0.510   0.515   0.563   0.577   0.583   0.586   0.701   0.725
 14 A1   10 B1   11 B1   15 A1    3 A2   16 A1   17 A1   12 B1                 
  0.797   0.993   1.034   1.118   1.129   1.143   1.198   1.200
 13 B1   18 A1   19 A1   20 A1   14 B1   21 A1    6 B2   15 B1                 
  1.266   1.275   1.291   1.311   1.317   1.334   1.334   1.336
 22 A1    7 B2    4 A2   16 B1    5 A2   17 B1   23 A1   24 A1                 
  1.370   1.461   1.473   1.483   1.651   1.665   1.720   1.736
  8 B2   18 B1    9 B2    6 A2   19 B1   25 A1   10 B2   20 B1                 
  1.874   1.939   2.033   2.063   2.128   2.131   2.176   2.213
 26 A1   21 B1   27 A1    7 A2   28 A1   11 B2   22 B1   12 B2                 
  2.261   2.335   2.367   2.394   2.438   2.529   2.579   2.604
 29 A1   30 A1    8 A2   13 B2   23 B1   24 B1   31 A1    9 A2                 
  2.768   2.771   2.854   3.037   3.057   3.119   3.456   3.566
 32 A1   25 B1   26 B1   33 A1   34 A1   35 A1   27 B1   28 B1                 
  3.923   3.946   3.972   4.090   4.545
 14 B2   10 A2   36 A1   29 B1   37 A1                                         

--------------------------------------------------------------------------------
                                   HF Summary                                   
--------------------------------------------------------------------------------
  Energy:                                                 -153.4413567186 a.u.
  Dip. moment [a.u.]:                  [  -0.000000,    0.000000,    2.078171]
  Total dipole [Debye]:                                               5.282184
  <r^2> [a.u.]:                        [  55.696747,   19.713558,  208.052011]
  Total <r^2> [a.u.]:                                               283.462316
--------------------------------------------------------------------------------

--------------------------------------------------------------------------------
                                 MP(2) Summary                                  
--------------------------------------------------------------------------------
  MP energy contribution:                                   -0.5293327354 a.u.
  Total energy:                                           -153.9706894540 a.u.
  Dip. moment [a.u.]:                  [   0.000000,    0.000000,    2.145333]
  Total dipole [Debye]:                                               5.452894
  <r^2> [a.u.]:                        [  56.660043,   20.378028,  209.301123]
  Total <r^2> [a.u.]:                                               286.339194

  Density matrix analysis:
  ------------------------
  NOs
    Occupation of frontier NOs:
       0.0447   1.9356
    Number of electrons: 26.000000
    Number of unpaired electrons: n_u =  0.71608, n_u,nl =  0.08551
    NO participation ratio (PR_NO): 23.025330
  
  
  Mulliken Population Analysis
  Atom      Charge (e)              h+              e-           Del q
  --------------------------------------------------------------------
   1 C       -0.230142        0.092838       -0.095001       -0.002163
   2 C       -0.230142        0.092838       -0.095001       -0.002163
   3 H        0.205037        0.017501       -0.013291        0.004209
   4 H        0.205037        0.017501       -0.013291        0.004209
   5 H        0.037757        0.018991       -0.012039        0.006953
   6 H        0.037757        0.018991       -0.012039        0.006953
   7 O       -1.073537        0.276927       -0.278511       -0.001583
   8 H        0.048233        0.015533       -0.031948       -0.016415
  --------------------------------------------------------------------
  Sum:       -1.000000        0.551121       -0.551121        0.000000
  
  Multipole moment analysis of the density matrix
    Molecular charge:                      -1.000000
    Number of electrons:                   26.000000
      Center of electronic charge [Ang]: [ -0.000000,  -0.000000,  -0.043664]
    Total nuclear charge:                  25.000000
      Center of nuclear charge [Ang]:    [  0.000000,   0.000000,  -0.000000]
    Dipole moment [D]:                     5.452893
      Cartesian components [D]:          [  0.000000,   0.000000,   5.452893]
    RMS size of the density [Ang]:         1.755580
      Cartesian components [Ang]:        [  0.781183,   0.468485,   1.500778]
  
  Exciton analysis of the difference density matrix
    <r_h> [Ang]:                  [  0.000000,   0.000000,  -0.471840]
    <r_e> [Ang]:                  [ -0.000000,  -0.000000,  -0.536328]
    |<r_e - r_h>| [Ang]:            0.064488
    Hole size [Ang]:                1.932471
      Cartesian components [Ang]: [  0.855826,   0.722433,   1.574832]
    Electron size [Ang]:            2.265213
      Cartesian components [Ang]: [  1.105394,   0.927109,   1.746357]
--------------------------------------------------------------------------------
  Starting Davidson for singlet states of irrep B1 ... 
--------------------------------------------------------------------------------
   It NVec Conv  Avg. Norm  Max. Norm  Conv. states           Remark
--------------------------------------------------------------------------------
       100    0  1.581e-01  5.375e-01  0.2712 n n n n n n n n Guess.
    1  110    0  1.623e-02  7.558e-02  0.1057 n n n n n n n n 
    2  120    0  1.165e-02  1.089e-01  0.1043 n n n n n n n n 
    3  130    0  8.638e-03  6.372e-02  0.1043 n n n n n n n n 
    4  140    0  6.565e-03  6.152e-02  0.1043 n n n n n n n n 
    5  150    0  1.470e-03  1.373e-02  0.1043 n n n n n n n n 
    6  160    5  3.407e-04  3.218e-03  0.1043 y y y y n y n n 
    7  170    7  7.430e-05  7.019e-04  0.1043 y y y y y y n y 
    8  180    8  1.330e-05  1.237e-04  0.1043 y y y y y y y y 
    9  190    9  2.186e-06  2.071e-05  0.1043 y y y y y y y y 
   10  200   10  3.994e-07  3.727e-06  0.1043 y y y y y y y y Converged.
--------------------------------------------------------------------------------
  Davidson Summary: 
 ------------------------------------------------------------
  State  0: excitation energy =   0.1043 a.u.   (converged)
  State  1: excitation energy =   0.1108 a.u.   (converged)
  State  2: excitation energy =   0.1211 a.u.   (converged)
  State  3: excitation energy =   0.1447 a.u.   (converged)
  State  4: excitation energy =   0.1912 a.u.   (converged)
  State  5: excitation energy =   0.1924 a.u.   (converged)
  State  6: excitation energy =   0.2445 a.u.   (converged)
  State  7: excitation energy =   0.2645 a.u.   (converged)
  State  8: excitation energy =   0.2918 a.u.   (converged)
  State  9: excitation energy =   0.2965 a.u.   (converged)
 ------------------------------------------------------------


--------------------------------------------------------------------------------
                   State-averaged natural transition orbitals
--------------------------------------------------------------------------------
--------------------------------------------------------------------------------

--------------------------------------------------------------------------------
                             Excited State Summary
--------------------------------------------------------------------------------
--------------------------------------------------------------------------------

  Excited state 1 (singlet, B1)                                    [converged]
  ----------------------------------------------------------------------------
  Term symbol:  1 (1) B1                                    R^2 =  1.60625e-09

  Total energy:                                           -153.8664001415 a.u.
  Excitation energy:                                               2.837857 eV

  Osc. strength:                                                      0.006605
  Trans. dip. moment [a.u.]:           [  -0.308230,    0.000000,    0.000000]
  <i|r^2|0> [a.u.]:                    [  -0.000000,    0.000000,    0.000000]

  Dip. moment [a.u.]:                  [   0.000000,   -0.000000,   -5.150949]
  Total dipole [Debye]:                                              13.092410
  <r^2> [a.u.]:                        [  81.941186,   27.142434,  221.774375]
  Total <r^2> [a.u.]:                                               330.857996

  V1^2 = 0.8664, V2^2 = 0.1336

  Important amplitudes:
      occ i      occ j       vir a       vir b          v   
    ---------------------------------------------------------
     4 (B1) A               8 (A1) A                  0.6386
     4 (B1) A               9 (A1) A                 -0.1157
    ---------------------------------------------------------

  Density matrix analysis:
  ------------------------
  NOs
    Occupation of frontier NOs:
       0.9624   0.9952
    Number of electrons: 26.000000
    Number of unpaired electrons: n_u =  2.75249, n_u,nl =  2.11544
    NO participation ratio (PR_NO):  3.889294
  
  
  Mulliken Population Analysis
  Atom      Charge (e)              h+              e-           Del q
  --------------------------------------------------------------------
   1 C       -0.748389        0.044285       -0.562531       -0.518247
   2 C       -0.748389        0.044285       -0.562531       -0.518247
   3 H        0.160890       -0.001724       -0.042423       -0.044147
   4 H        0.160890       -0.001724       -0.042423       -0.044147
   5 H        0.104163        0.053297        0.013109        0.066406
   6 H        0.104163        0.053297        0.013109        0.066406
   7 O       -0.220700        1.390297       -0.537460        0.852837
   8 H        0.187373        0.132299        0.006841        0.139139
  --------------------------------------------------------------------
  Sum:       -1.000000        1.714310       -1.714310        0.000000
  
  Multipole moment analysis of the density matrix
    Molecular charge:                      -1.000000
    Number of electrons:                   26.000000
      Center of electronic charge [Ang]: [ -0.000000,   0.000000,   0.104837]
    Total nuclear charge:                  25.000000
      Center of nuclear charge [Ang]:    [  0.000000,   0.000000,  -0.000000]
    Dipole moment [D]:                     13.092406
      Cartesian components [D]:          [  0.000000,  -0.000000, -13.092406]
    RMS size of the density [Ang]:         1.884797
      Cartesian components [Ang]:        [  0.939432,   0.540678,   1.541944]
  
  Exciton analysis of the difference density matrix
    <r_h> [Ang]:                  [ -0.000000,   0.000000,  -1.385934]
    <r_e> [Ang]:                  [ -0.000000,   0.000000,   0.866300]
    |<r_e - r_h>| [Ang]:            2.252234
    Hole size [Ang]:                1.819746
      Cartesian components [Ang]: [  0.929736,   0.759331,   1.367657]
    Electron size [Ang]:            3.428390
      Cartesian components [Ang]: [  2.234731,   1.296740,   2.253508]

  Transition density matrix analysis:
  -----------------------------------
  
  CT numbers (Mulliken)
    omega =     0.8504
    <Phe> =    -0.0002
  
  Exciton analysis of the transition density matrix
    Trans. dipole moment [D]:             0.391721
      Cartesian components [D]:         [ -0.391721,   0.000000,   0.000000]
    <r_h> [Ang]:                        [ -0.000000,   0.000000,  -1.711527]
    <r_e> [Ang]:                        [ -0.000000,   0.000000,   2.298483]
    |<r_e - r_h>| [Ang]:                  4.010009
    Hole size [Ang]:                      1.152546
      Cartesian components [Ang]:       [  0.821748,   0.467170,   0.659427]
    Electron size [Ang]:                  3.627547
      Cartesian components [Ang]:       [  2.843417,   1.578107,   1.607374]
    RMS electron-hole separation [Ang]:   5.525634
      Cartesian components [Ang]:       [  2.955370,   1.645641,   4.369243]
    Covariance(r_h, r_e) [Ang^2]:         0.017500
    Correlation coefficient:              0.004186
    Center-of-mass size [Ang]:            1.905417
      Cartesian components [Ang]:       [  1.482090,   0.822984,   0.869897]

  Decomposition into state-averaged NTOs
    H- 0 -> L+ 2:  0.5669 ( 64.3%)
    H- 0 -> L+ 5: -0.2840 ( 16.1%)
    H- 0 -> L+ 1: -0.1366 (  3.7%)
                   omega =  85.0%
  ----------------------------------------------------------------------------


  Excited state 2 (singlet, B1)                                    [converged]
  ----------------------------------------------------------------------------
  Term symbol:  2 (1) B1                                    R^2 =  1.51864e-09

  Total energy:                                           -153.8599102437 a.u.
  Excitation energy:                                               3.014456 eV

  Osc. strength:                                                      0.047617
  Trans. dip. moment [a.u.]:           [  -0.802971,   -0.000000,   -0.000000]
  <i|r^2|0> [a.u.]:                    [   0.000000,    0.000000,   -0.000000]

  Dip. moment [a.u.]:                  [  -0.000000,   -0.000000,   -0.227810]
  Total dipole [Debye]:                                               0.579035
  <r^2> [a.u.]:                        [  69.244633,   27.348934,  222.941877]
  Total <r^2> [a.u.]:                                               319.535443

  V1^2 = 0.8828, V2^2 = 0.1172

  Important amplitudes:
      occ i      occ j       vir a       vir b          v   
    ---------------------------------------------------------
     4 (B1) A               9 (A1) A                 -0.5292
     4 (B1) A              10 (A1) A                  0.3302
    ---------------------------------------------------------

  Density matrix analysis:
  ------------------------
  NOs
    Occupation of frontier NOs:
       0.9679   0.9909
    Number of electrons: 26.000000
    Number of unpaired electrons: n_u =  2.74195, n_u,nl =  2.11150
    NO participation ratio (PR_NO):  3.858074
  
  
  Mulliken Population Analysis
  Atom      Charge (e)              h+              e-           Del q
  --------------------------------------------------------------------
   1 C       -0.712618        0.021366       -0.503842       -0.482476
   2 C       -0.712618        0.021366       -0.503842       -0.482476
   3 H        0.143462        0.002357       -0.063932       -0.061575
   4 H        0.143462        0.002357       -0.063932       -0.061575
   5 H        0.071374        0.029007        0.004610        0.033617
   6 H        0.071374        0.029007        0.004610        0.033617
   7 O       -0.409252        1.343367       -0.679083        0.664284
   8 H        0.404817        0.151266        0.205317        0.356584
  --------------------------------------------------------------------
  Sum:       -1.000000        1.600094       -1.600094        0.000000
  
  Multipole moment analysis of the density matrix
    Molecular charge:                      -1.000000
    Number of electrons:                   26.000000
      Center of electronic charge [Ang]: [  0.000000,   0.000000,   0.004637]
    Total nuclear charge:                  25.000000
      Center of nuclear charge [Ang]:    [  0.000000,   0.000000,  -0.000000]
    Dipole moment [D]:                     0.579035
      Cartesian components [D]:          [ -0.000000,  -0.000000,  -0.579035]
    RMS size of the density [Ang]:         1.855123
      Cartesian components [Ang]:        [  0.863590,   0.542731,   1.549560]
  
  Exciton analysis of the difference density matrix
    <r_h> [Ang]:                  [ -0.000000,   0.000000,  -1.520771]
    <r_e> [Ang]:                  [  0.000000,   0.000000,  -0.735934]
    |<r_e - r_h>| [Ang]:            0.784837
    Hole size [Ang]:                1.714342
      Cartesian components [Ang]: [  0.923548,   0.758476,   1.229123]
    Electron size [Ang]:            3.243410
      Cartesian components [Ang]: [  1.747953,   1.339868,   2.380992]

  Transition density matrix analysis:
  -----------------------------------
  
  CT numbers (Mulliken)
    omega =     0.8661
    <Phe> =    -0.0058
  
  Exciton analysis of the transition density matrix
    Trans. dipole moment [D]:             1.020474
      Cartesian components [D]:         [ -1.020474,  -0.000000,  -0.000000]
    <r_h> [Ang]:                        [ -0.000000,   0.000000,  -1.724199]
    <r_e> [Ang]:                        [  0.000000,   0.000000,  -0.450200]
    |<r_e - r_h>| [Ang]:                  1.273998
    Hole size [Ang]:                      1.130462
      Cartesian components [Ang]:       [  0.817240,   0.468543,   0.624923]
    Electron size [Ang]:                  3.855159
      Cartesian components [Ang]:       [  2.111315,   1.588652,   2.807274]
    RMS electron-hole separation [Ang]:   4.203516
      Cartesian components [Ang]:       [  2.256311,   1.655830,   3.136373]
    Covariance(r_h, r_e) [Ang^2]:         0.046860
    Correlation coefficient:              0.010752
    Center-of-mass size [Ang]:            2.014567
      Cartesian components [Ang]:       [  1.135796,   0.828390,   1.442989]

  Decomposition into state-averaged NTOs
    H- 0 -> L+ 1: -0.3558 ( 25.3%)
    H- 0 -> L+ 3: -0.3464 ( 24.0%)
    H- 0 -> L+ 5: -0.3394 ( 23.0%)
    H- 0 -> L+ 2: -0.2616 ( 13.7%)
                   omega =  86.6%
  ----------------------------------------------------------------------------


  Excited state 3 (singlet, B1)                                    [converged]
  ----------------------------------------------------------------------------
  Term symbol:  3 (1) B1                                    R^2 =  1.08812e-09

  Total energy:                                           -153.8495532379 a.u.
  Excitation energy:                                               3.296284 eV

  Osc. strength:                                                      0.000387
  Trans. dip. moment [a.u.]:           [  -0.069241,    0.000000,   -0.000000]
  <i|r^2|0> [a.u.]:                    [  -0.000000,   -0.000000,    0.000000]

  Dip. moment [a.u.]:                  [   0.000000,   -0.000000,   -2.881512]
  Total dipole [Debye]:                                               7.324075
  <r^2> [a.u.]:                        [  73.566030,   35.223441,  204.552748]
  Total <r^2> [a.u.]:                                               313.342220

  V1^2 = 0.8715, V2^2 = 0.1285

  Important amplitudes:
      occ i      occ j       vir a       vir b          v   
    ---------------------------------------------------------
     2 (B2) A               1 (A2) A                 -0.6228
     2 (B2) A               2 (A2) A                  0.2037
    ---------------------------------------------------------

  Density matrix analysis:
  ------------------------
  NOs
    Occupation of frontier NOs:
       0.9670   0.9917
    Number of electrons: 26.000000
    Number of unpaired electrons: n_u =  2.74351, n_u,nl =  2.11095
    NO participation ratio (PR_NO):  3.862907
  
  
  Mulliken Population Analysis
  Atom      Charge (e)              h+              e-           Del q
  --------------------------------------------------------------------
   1 C       -0.701111        0.042581       -0.513549       -0.470968
   2 C       -0.701111        0.042581       -0.513549       -0.470968
   3 H        0.158238        0.006680       -0.053479       -0.046799
   4 H        0.158238        0.006680       -0.053479       -0.046799
   5 H        0.052183        0.014380        0.000046        0.014426
   6 H        0.052183        0.014380        0.000046        0.014426
   7 O       -0.172479        1.383907       -0.482849        0.901057
   8 H        0.153858        0.127687       -0.022063        0.105625
  --------------------------------------------------------------------
  Sum:       -1.000000        1.638876       -1.638876       -0.000000
  
  Multipole moment analysis of the density matrix
    Molecular charge:                      -1.000000
    Number of electrons:                   26.000000
      Center of electronic charge [Ang]: [ -0.000000,   0.000000,   0.058647]
    Total nuclear charge:                  25.000000
      Center of nuclear charge [Ang]:    [  0.000000,   0.000000,  -0.000000]
    Dipole moment [D]:                     7.324072
      Cartesian components [D]:          [  0.000000,  -0.000000,  -7.324072]
    RMS size of the density [Ang]:         1.836126
      Cartesian components [Ang]:        [  0.890129,   0.615929,   1.483125]
  
  Exciton analysis of the difference density matrix
    <r_h> [Ang]:                  [ -0.000000,   0.000000,  -1.528903]
    <r_e> [Ang]:                  [ -0.000000,   0.000000,   0.094217]
    |<r_e - r_h>| [Ang]:            1.623120
    Hole size [Ang]:                1.647599
      Cartesian components [Ang]: [  0.802079,   0.849851,   1.161466]
    Electron size [Ang]:            3.107596
      Cartesian components [Ang]: [  1.879360,   1.805222,   1.693025]

  Transition density matrix analysis:
  -----------------------------------
  
  CT numbers (Mulliken)
    omega =     0.8515
    <Phe> =    -0.0003
  
  Exciton analysis of the transition density matrix
    Trans. dipole moment [D]:             0.087996
      Cartesian components [D]:         [ -0.087996,   0.000000,  -0.000000]
    <r_h> [Ang]:                        [ -0.000000,  -0.000000,  -1.739225]
    <r_e> [Ang]:                        [ -0.000000,   0.000000,   1.016607]
    |<r_e - r_h>| [Ang]:                  2.755832
    Hole size [Ang]:                      1.096283
      Cartesian components [Ang]:       [  0.477783,   0.818694,   0.550726]
    Electron size [Ang]:                  3.480114
      Cartesian components [Ang]:       [  2.307075,   2.247412,   1.318233]
    RMS electron-hole separation [Ang]:   4.570696
      Cartesian components [Ang]:       [  2.355754,   2.388739,   3.104128]
    Covariance(r_h, r_e) [Ang^2]:         0.008190
    Correlation coefficient:              0.002147
    Center-of-mass size [Ang]:            1.825473
      Cartesian components [Ang]:       [  1.178152,   1.197515,   0.714331]

  Decomposition into state-averaged NTOs
    H- 2 -> L+ 0: -0.6506 ( 84.6%)
                   omega =  85.2%
  ----------------------------------------------------------------------------


  Excited state 4 (singlet, B1)                                    [converged]
  ----------------------------------------------------------------------------
  Term symbol:  4 (1) B1                                    R^2 =  2.38242e-09

  Total energy:                                           -153.8259473484 a.u.
  Excitation energy:                                               3.938633 eV

  Osc. strength:                                                      0.009373
  Trans. dip. moment [a.u.]:           [   0.311666,    0.000000,    0.000000]
  <i|r^2|0> [a.u.]:                    [  -0.000000,   -0.000000,    0.000000]

  Dip. moment [a.u.]:                  [  -0.000000,    0.000000,    0.579883]
  Total dipole [Debye]:                                               1.473917
  <r^2> [a.u.]:                        [  71.387535,   26.408432,  225.992690]
  Total <r^2> [a.u.]:                                               323.788658

  V1^2 = 0.8866, V2^2 = 0.1134

  Important amplitudes:
      occ i      occ j       vir a       vir b          v   
    ---------------------------------------------------------
     4 (B1) A              10 (A1) A                 -0.4541
     4 (B1) A               9 (A1) A                 -0.3658
    ---------------------------------------------------------

  Density matrix analysis:
  ------------------------
  NOs
    Occupation of frontier NOs:
       0.9650   0.9960
    Number of electrons: 26.000000
    Number of unpaired electrons: n_u =  2.72955, n_u,nl =  2.10631
    NO participation ratio (PR_NO):  3.816957
  
  
  Mulliken Population Analysis
  Atom      Charge (e)              h+              e-           Del q
  --------------------------------------------------------------------
   1 C       -0.473676        0.032546       -0.276079       -0.243534
   2 C       -0.473676        0.032546       -0.276079       -0.243534
   3 H        0.164215        0.000512       -0.041334       -0.040822
   4 H        0.164215        0.000512       -0.041334       -0.040822
   5 H        0.030534        0.029952       -0.037175       -0.007223
   6 H        0.030534        0.029952       -0.037175       -0.007223
   7 O       -1.133071        1.292599       -1.352133       -0.059534
   8 H        0.690924        0.179285        0.463405        0.642690
  --------------------------------------------------------------------
  Sum:       -1.000000        1.597904       -1.597904        0.000000
  
  Multipole moment analysis of the density matrix
    Molecular charge:                      -1.000000
    Number of electrons:                   26.000000
      Center of electronic charge [Ang]: [  0.000000,  -0.000000,  -0.011802]
    Total nuclear charge:                  25.000000
      Center of nuclear charge [Ang]:    [  0.000000,   0.000000,  -0.000000]
    Dipole moment [D]:                     1.473917
      Cartesian components [D]:          [ -0.000000,   0.000000,   1.473917]
    RMS size of the density [Ang]:         1.867397
      Cartesian components [Ang]:        [  0.876851,   0.533317,   1.560088]
  
  Exciton analysis of the difference density matrix
    <r_h> [Ang]:                  [ -0.000000,  -0.000000,  -1.499820]
    <r_e> [Ang]:                  [  0.000000,  -0.000000,  -0.981391]
    |<r_e - r_h>| [Ang]:            0.518429
    Hole size [Ang]:                1.732170
      Cartesian components [Ang]: [  0.928902,   0.755952,   1.251435]
    Electron size [Ang]:            3.293883
      Cartesian components [Ang]: [  1.855751,   1.276039,   2.403659]

  Transition density matrix analysis:
  -----------------------------------
  
  CT numbers (Mulliken)
    omega =     0.8693
    <Phe> =    -0.0061
  
  Exciton analysis of the transition density matrix
    Trans. dipole moment [D]:             0.396087
      Cartesian components [D]:         [  0.396087,   0.000000,   0.000000]
    <r_h> [Ang]:                        [ -0.000000,   0.000000,  -1.728104]
    <r_e> [Ang]:                        [  0.000000,  -0.000000,  -0.893344]
    |<r_e - r_h>| [Ang]:                  0.834760
    Hole size [Ang]:                      1.124405
      Cartesian components [Ang]:       [  0.817285,   0.465866,   0.615875]
    Electron size [Ang]:                  3.935363
      Cartesian components [Ang]:       [  2.239341,   1.499235,   2.867879]
    RMS electron-hole separation [Ang]:   4.165759
      Cartesian components [Ang]:       [  2.378888,   1.569753,   3.038143]
    Covariance(r_h, r_e) [Ang^2]:         0.047325
    Correlation coefficient:              0.010695
    Center-of-mass size [Ang]:            2.052195
      Cartesian components [Ang]:       [  1.194371,   0.785071,   1.472632]

  Decomposition into state-averaged NTOs
    H- 0 -> L+ 1:  0.5007 ( 50.1%)
    H- 0 -> L+ 5: -0.4159 ( 34.6%)
    H- 0 -> L+ 2: -0.0922 (  1.7%)
                   omega =  86.9%
  ----------------------------------------------------------------------------


  Excited state 5 (singlet, B1)                                    [converged]
  ----------------------------------------------------------------------------
  Term symbol:  5 (1) B1                                    R^2 =  5.66857e-09

  Total energy:                                           -153.7794641778 a.u.
  Excitation energy:                                               5.203504 eV

  Osc. strength:                                                      0.001343
  Trans. dip. moment [a.u.]:           [   0.102632,    0.000000,    0.000000]
  <i|r^2|0> [a.u.]:                    [  -0.000000,   -0.000000,    0.000000]

  Dip. moment [a.u.]:                  [   0.000000,    0.000000,   -1.383068]
  Total dipole [Debye]:                                               3.515408
  <r^2> [a.u.]:                        [  63.487546,   33.626998,  209.534852]
  Total <r^2> [a.u.]:                                               306.649396

  V1^2 = 0.8825, V2^2 = 0.1175

  Important amplitudes:
      occ i      occ j       vir a       vir b          v   
    ---------------------------------------------------------
     4 (B1) A              11 (A1) A                  0.5606
     4 (B1) A              10 (A1) A                  0.3330
    ---------------------------------------------------------

  Density matrix analysis:
  ------------------------
  NOs
    Occupation of frontier NOs:
       0.9700   0.9901
    Number of electrons: 26.000000
    Number of unpaired electrons: n_u =  2.74619, n_u,nl =  2.11239
    NO participation ratio (PR_NO):  3.864905
  
  
  Mulliken Population Analysis
  Atom      Charge (e)              h+              e-           Del q
  --------------------------------------------------------------------
   1 C       -0.698168        0.051989       -0.520015       -0.468025
   2 C       -0.698168        0.051989       -0.520015       -0.468025
   3 H        0.247230        0.000196        0.041997        0.042193
   4 H        0.247230        0.000196        0.041997        0.042193
   5 H        0.153526        0.013149        0.102620        0.115769
   6 H        0.153526        0.013149        0.102620        0.115769
   7 O       -0.663060        1.331182       -0.920705        0.410477
   8 H        0.257884        0.138848        0.070803        0.209651
  --------------------------------------------------------------------
  Sum:       -1.000000        1.600698       -1.600698        0.000000
  
  Multipole moment analysis of the density matrix
    Molecular charge:                      -1.000000
    Number of electrons:                   26.000000
      Center of electronic charge [Ang]: [ -0.000000,  -0.000000,   0.028150]
    Total nuclear charge:                  25.000000
      Center of nuclear charge [Ang]:    [  0.000000,   0.000000,  -0.000000]
    Dipole moment [D]:                     3.515407
      Cartesian components [D]:          [  0.000000,   0.000000,  -3.515407]
    RMS size of the density [Ang]:         1.817119
      Cartesian components [Ang]:        [  0.826911,   0.601809,   1.501988]
  
  Exciton analysis of the difference density matrix
    <r_h> [Ang]:                  [ -0.000000,   0.000000,  -1.508358]
    <r_e> [Ang]:                  [ -0.000000,   0.000000,  -0.341898]
    |<r_e - r_h>| [Ang]:            1.166460
    Hole size [Ang]:                1.678234
      Cartesian components [Ang]: [  0.900172,   0.752749,   1.199804]
    Electron size [Ang]:            2.920242
      Cartesian components [Ang]: [  1.415882,   1.698360,   1.907529]

  Transition density matrix analysis:
  -----------------------------------
  
  CT numbers (Mulliken)
    omega =     0.8653
    <Phe> =    -0.0011
  
  Exciton analysis of the transition density matrix
    Trans. dipole moment [D]:             0.130432
      Cartesian components [D]:         [  0.130432,   0.000000,   0.000000]
    <r_h> [Ang]:                        [ -0.000000,   0.000000,  -1.719662]
    <r_e> [Ang]:                        [ -0.000000,  -0.000000,   0.200865]
    |<r_e - r_h>| [Ang]:                  1.920527
    Hole size [Ang]:                      1.135467
      Cartesian components [Ang]:       [  0.816720,   0.467989,   0.635013]
    Electron size [Ang]:                  3.351817
      Cartesian components [Ang]:       [  1.667997,   2.065354,   2.046162]
    RMS electron-hole separation [Ang]:   4.019572
      Cartesian components [Ang]:       [  1.853228,   2.116998,   2.870683]
    Covariance(r_h, r_e) [Ang^2]:         0.027715
    Correlation coefficient:              0.007282
    Center-of-mass size [Ang]:            1.773372
      Cartesian components [Ang]:       [  0.930596,   1.059211,   1.075598]

  Decomposition into state-averaged NTOs
    H- 0 -> L+ 3: -0.5559 ( 61.8%)
    H- 0 -> L+ 5:  0.2358 ( 11.1%)
    H- 0 -> L+ 1:  0.2056 (  8.5%)
    H- 0 -> L+ 2:  0.1522 (  4.6%)
                   omega =  86.5%
  ----------------------------------------------------------------------------


  Excited state 6 (singlet, B1)                                    [converged]
  ----------------------------------------------------------------------------
  Term symbol:  6 (1) B1                                    R^2 =  2.76829e-09

  Total energy:                                           -153.7783221227 a.u.
  Excitation energy:                                               5.234581 eV

  Osc. strength:                                                      0.002821
  Trans. dip. moment [a.u.]:           [  -0.148307,   -0.000000,    0.000000]
  <i|r^2|0> [a.u.]:                    [  -0.000000,   -0.000000,    0.000000]

  Dip. moment [a.u.]:                  [   0.000000,    0.000000,   -2.893843]
  Total dipole [Debye]:                                               7.355416
  <r^2> [a.u.]:                        [  69.664768,   31.086490,  203.857348]
  Total <r^2> [a.u.]:                                               304.608606

  V1^2 = 0.8651, V2^2 = 0.1349

  Important amplitudes:
      occ i      occ j       vir a       vir b          v   
    ---------------------------------------------------------
     2 (B2) A               2 (A2) A                 -0.6119
     2 (B2) A               1 (A2) A                 -0.2050
    ---------------------------------------------------------

  Density matrix analysis:
  ------------------------
  NOs
    Occupation of frontier NOs:
       0.9681   0.9890
    Number of electrons: 26.000000
    Number of unpaired electrons: n_u =  2.73826, n_u,nl =  2.10700
    NO participation ratio (PR_NO):  3.856864
  
  
  Mulliken Population Analysis
  Atom      Charge (e)              h+              e-           Del q
  --------------------------------------------------------------------
   1 C       -0.649132        0.095664       -0.514654       -0.418990
   2 C       -0.649132        0.095664       -0.514654       -0.418990
   3 H        0.136086        0.006944       -0.075895       -0.068951
   4 H        0.136086        0.006944       -0.075895       -0.068951
   5 H        0.022129        0.006739       -0.022367       -0.015628
   6 H        0.022129        0.006739       -0.022367       -0.015628
   7 O       -0.165866        1.363692       -0.456021        0.907671
   8 H        0.147700        0.120500       -0.021034        0.099466
  --------------------------------------------------------------------
  Sum:       -1.000000        1.702886       -1.702886       -0.000000
  
  Multipole moment analysis of the density matrix
    Molecular charge:                      -1.000000
    Number of electrons:                   26.000000
      Center of electronic charge [Ang]: [ -0.000000,  -0.000000,   0.058898]
    Total nuclear charge:                  25.000000
      Center of nuclear charge [Ang]:    [  0.000000,   0.000000,  -0.000000]
    Dipole moment [D]:                     7.355414
      Cartesian components [D]:          [  0.000000,   0.000000,  -7.355414]
    RMS size of the density [Ang]:         1.810322
      Cartesian components [Ang]:        [  0.866206,   0.578629,   1.480588]
  
  Exciton analysis of the difference density matrix
    <r_h> [Ang]:                  [ -0.000000,   0.000000,  -1.394207]
    <r_e> [Ang]:                  [ -0.000000,  -0.000000,   0.171733]
    |<r_e - r_h>| [Ang]:            1.565940
    Hole size [Ang]:                1.692311
      Cartesian components [Ang]: [  0.791794,   0.829055,   1.244848]
    Electron size [Ang]:            2.789718
      Cartesian components [Ang]: [  1.662974,   1.564695,   1.602740]

  Transition density matrix analysis:
  -----------------------------------
  
  CT numbers (Mulliken)
    omega =     0.8398
    <Phe> =    -0.0007
  
  Exciton analysis of the transition density matrix
    Trans. dipole moment [D]:             0.188479
      Cartesian components [D]:         [ -0.188479,  -0.000000,   0.000000]
    <r_h> [Ang]:                        [ -0.000000,  -0.000000,  -1.740718]
    <r_e> [Ang]:                        [ -0.000000,  -0.000000,   1.022416]
    |<r_e - r_h>| [Ang]:                  2.763134
    Hole size [Ang]:                      1.091936
      Cartesian components [Ang]:       [  0.477317,   0.817664,   0.543985]
    Electron size [Ang]:                  3.040698
      Cartesian components [Ang]:       [  2.022094,   1.960085,   1.146754]
    RMS electron-hole separation [Ang]:   4.249720
      Cartesian components [Ang]:       [  2.077230,   2.121315,   3.040602]
    Covariance(r_h, r_e) [Ang^2]:         0.006477
    Correlation coefficient:              0.001951
    Center-of-mass size [Ang]:            1.616410
      Cartesian components [Ang]:       [  1.039051,   1.063136,   0.634740]

  Decomposition into state-averaged NTOs
    H- 2 -> L+ 7:  0.6462 ( 83.5%)
                   omega =  84.0%
  ----------------------------------------------------------------------------


  Excited state 7 (singlet, B1)                                    [converged]
  ----------------------------------------------------------------------------
  Term symbol:  7 (1) B1                                    R^2 =  9.94041e-08

  Total energy:                                           -153.7262161331 a.u.
  Excitation energy:                                               6.652457 eV

  Osc. strength:                                                      0.001104
  Trans. dip. moment [a.u.]:           [  -0.082306,   -0.000000,   -0.000000]
  <i|r^2|0> [a.u.]:                    [  -0.000000,    0.000000,   -0.000000]

  Dip. moment [a.u.]:                  [  -0.000000,   -0.000000,   -3.449150]
  Total dipole [Debye]:                                               8.766867
  <r^2> [a.u.]:                        [  97.632620,   27.867138,  210.151159]
  Total <r^2> [a.u.]:                                               335.650917

  V1^2 = 0.8734, V2^2 = 0.1266

  Important amplitudes:
      occ i      occ j       vir a       vir b          v   
    ---------------------------------------------------------
     7 (A1) A               5 (B1) A                 -0.6378
     7 (A1) A               6 (B1) A                 -0.1472
    ---------------------------------------------------------

  Density matrix analysis:
  ------------------------
  NOs
    Occupation of frontier NOs:
       0.9816   0.9967
    Number of electrons: 26.000000
    Number of unpaired electrons: n_u =  2.80029, n_u,nl =  2.12876
    NO participation ratio (PR_NO):  3.938054
  
  
  Mulliken Population Analysis
  Atom      Charge (e)              h+              e-           Del q
  --------------------------------------------------------------------
   1 C       -0.686824        0.055290       -0.511971       -0.456681
   2 C       -0.686824        0.055290       -0.511971       -0.456681
   3 H        0.165280        0.007909       -0.047666       -0.039757
   4 H        0.165280        0.007909       -0.047666       -0.039757
   5 H        0.053997        0.047752       -0.031512        0.016240
   6 H        0.053997        0.047752       -0.031512        0.016240
   7 O       -0.387749        1.183414       -0.497627        0.685787
   8 H        0.322843        0.290784       -0.016174        0.274609
  --------------------------------------------------------------------
  Sum:       -1.000000        1.696100       -1.696100        0.000000
  
  Multipole moment analysis of the density matrix
    Molecular charge:                      -1.000000
    Number of electrons:                   26.000000
      Center of electronic charge [Ang]: [  0.000000,   0.000000,   0.070200]
    Total nuclear charge:                  25.000000
      Center of nuclear charge [Ang]:    [  0.000000,   0.000000,  -0.000000]
    Dipole moment [D]:                     8.766865
      Cartesian components [D]:          [ -0.000000,  -0.000000,  -8.766865]
    RMS size of the density [Ang]:         1.900037
      Cartesian components [Ang]:        [  1.025444,   0.547849,   1.502820]
  
  Exciton analysis of the difference density matrix
    <r_h> [Ang]:                  [  0.000000,   0.000000,  -1.348722]
    <r_e> [Ang]:                  [  0.000000,   0.000000,   0.396737]
    |<r_e - r_h>| [Ang]:            1.745459
    Hole size [Ang]:                1.840656
      Cartesian components [Ang]: [  0.851253,   0.754633,   1.447035]
    Electron size [Ang]:            3.631955
      Cartesian components [Ang]: [  2.736652,   1.343850,   1.973804]

  Transition density matrix analysis:
  -----------------------------------
  
  CT numbers (Mulliken)
    omega =     0.8560
    <Phe> =    -0.0000
  
  Exciton analysis of the transition density matrix
    Trans. dipole moment [D]:             0.104601
      Cartesian components [D]:         [ -0.104601,  -0.000000,  -0.000000]
    <r_h> [Ang]:                        [ -0.000000,   0.000000,  -1.679667]
    <r_e> [Ang]:                        [  0.000000,   0.000000,   1.423708]
    |<r_e - r_h>| [Ang]:                  3.103375
    Hole size [Ang]:                      1.181551
      Cartesian components [Ang]:       [  0.466585,   0.405578,   1.006911]
    Electron size [Ang]:                  4.199205
      Cartesian components [Ang]:       [  3.489696,   1.632934,   1.669992]
    RMS electron-hole separation [Ang]:   5.346477
      Cartesian components [Ang]:       [  3.516049,   1.683200,   3.659106]
    Covariance(r_h, r_e) [Ang^2]:         0.037753
    Correlation coefficient:              0.007609
    Center-of-mass size [Ang]:            2.185457
      Cartesian components [Ang]:       [  1.762723,   0.840947,   0.980735]

  Decomposition into state-averaged NTOs
    H- 1 -> L+ 6:  0.4960 ( 49.2%)
    H- 1 -> L+ 4:  0.4260 ( 36.3%)
                   omega =  85.6%
  ----------------------------------------------------------------------------


  Excited state 8 (singlet, B1)                                    [converged]
  ----------------------------------------------------------------------------
  Term symbol:  8 (1) B1                                    R^2 =  3.44746e-08

  Total energy:                                           -153.7061993429 a.u.
  Excitation energy:                                               7.197142 eV

  Osc. strength:                                                      0.230985
  Trans. dip. moment [a.u.]:           [   1.144544,   -0.000000,    0.000000]
  <i|r^2|0> [a.u.]:                    [   0.000000,    0.000000,    0.000000]

  Dip. moment [a.u.]:                  [   0.000000,   -0.000000,    2.023042]
  Total dipole [Debye]:                                               5.142061
  <r^2> [a.u.]:                        [  70.249213,   33.505971,  211.738853]
  Total <r^2> [a.u.]:                                               315.494037

  V1^2 = 0.9513, V2^2 = 0.0487

  Important amplitudes:
      occ i      occ j       vir a       vir b          v   
    ---------------------------------------------------------
     1 (B2) A               1 (A2) A                  0.6340
     1 (B2) A               2 (A2) A                 -0.2387
    ---------------------------------------------------------

  Density matrix analysis:
  ------------------------
  NOs
    Occupation of frontier NOs:
       0.9657   1.0071
    Number of electrons: 26.000000
    Number of unpaired electrons: n_u =  2.64440, n_u,nl =  2.07505
    NO participation ratio (PR_NO):  3.607429
  
  
  Mulliken Population Analysis
  Atom      Charge (e)              h+              e-           Del q
  --------------------------------------------------------------------
   1 C       -0.369755        0.513834       -0.653446       -0.139613
   2 C       -0.369755        0.513834       -0.653446       -0.139613
   3 H        0.260200        0.061943       -0.006780        0.055163
   4 H        0.260200        0.061943       -0.006780        0.055163
   5 H        0.117694        0.085505       -0.005568        0.079937
   6 H        0.117694        0.085505       -0.005568        0.079937
   7 O       -1.077950        0.045856       -0.050270       -0.004414
   8 H        0.061673        0.016614       -0.003174        0.013440
  --------------------------------------------------------------------
  Sum:       -1.000000        1.385032       -1.385032        0.000000
  
  Multipole moment analysis of the density matrix
    Molecular charge:                      -1.000000
    Number of electrons:                   26.000000
      Center of electronic charge [Ang]: [ -0.000000,   0.000000,  -0.041175]
    Total nuclear charge:                  25.000000
      Center of nuclear charge [Ang]:    [  0.000000,   0.000000,  -0.000000]
    Dipole moment [D]:                     5.142059
      Cartesian components [D]:          [  0.000000,  -0.000000,   5.142059]
    RMS size of the density [Ang]:         1.842900
      Cartesian components [Ang]:        [  0.869832,   0.600725,   1.509570]
  
  Exciton analysis of the difference density matrix
    <r_h> [Ang]:                  [ -0.000000,  -0.000000,   0.884075]
    <r_e> [Ang]:                  [ -0.000000,   0.000000,   0.930799]
    |<r_e - r_h>| [Ang]:            0.046724
    Hole size [Ang]:                1.756381
      Cartesian components [Ang]: [  1.038625,   0.907519,   1.087448]
    Electron size [Ang]:            2.982392
      Cartesian components [Ang]: [  1.956074,   1.864892,   1.261194]

  Transition density matrix analysis:
  -----------------------------------
  
  CT numbers (Mulliken)
    omega =     0.9248
    <Phe> =    -0.0551
  
  Exciton analysis of the transition density matrix
    Trans. dipole moment [D]:             1.454571
      Cartesian components [D]:         [  1.454571,  -0.000000,   0.000000]
    <r_h> [Ang]:                        [  0.000000,   0.000000,   0.994347]
    <r_e> [Ang]:                        [ -0.000000,   0.000000,   1.025750]
    |<r_e - r_h>| [Ang]:                  0.031402
    Hole size [Ang]:                      1.333579
      Cartesian components [Ang]:       [  0.773054,   0.882515,   0.634025]
    Electron size [Ang]:                  3.334368
      Cartesian components [Ang]:       [  2.210216,   2.147621,   1.273058]
    RMS electron-hole separation [Ang]:   3.579953
      Cartesian components [Ang]:       [  2.354628,   2.308015,   1.394582]
    Covariance(r_h, r_e) [Ang^2]:         0.040680
    Correlation coefficient:              0.009148
    Center-of-mass size [Ang]:            1.801236
      Cartesian components [Ang]:       [  1.164158,   1.167828,   0.724820]

  Decomposition into state-averaged NTOs
    H- 3 -> L+ 0:  0.6693 ( 89.6%)
                   omega =  92.5%
  ----------------------------------------------------------------------------


  Excited state 9 (singlet, B1)                                    [converged]
  ----------------------------------------------------------------------------
  Term symbol:  9 (1) B1                                    R^2 =  3.72665e-06

  Total energy:                                           -153.6788554440 a.u.
  Excitation energy:                                               7.941207 eV

  Osc. strength:                                                      0.001615
  Trans. dip. moment [a.u.]:           [   0.091119,    0.000000,    0.000000]
  <i|r^2|0> [a.u.]:                    [  -0.000000,    0.000000,    0.000000]

  Dip. moment [a.u.]:                  [   0.000000,    0.000000,   -2.748103]
  Total dipole [Debye]:                                               6.984982
  <r^2> [a.u.]:                        [  84.899963,   27.587779,  221.955156]
  Total <r^2> [a.u.]:                                               334.442899

  V1^2 = 0.8786, V2^2 = 0.1214

  Important amplitudes:
      occ i      occ j       vir a       vir b          v   
    ---------------------------------------------------------
     7 (A1) A               6 (B1) A                  0.6380
     7 (A1) A               5 (B1) A                 -0.1459
    ---------------------------------------------------------

  Density matrix analysis:
  ------------------------
  NOs
    Occupation of frontier NOs:
       0.9841   0.9971
    Number of electrons: 26.000000
    Number of unpaired electrons: n_u =  2.79448, n_u,nl =  2.12559
    NO participation ratio (PR_NO):  3.912415
  
  
  Mulliken Population Analysis
  Atom      Charge (e)              h+              e-           Del q
  --------------------------------------------------------------------
   1 C       -0.660471        0.045442       -0.475770       -0.430329
   2 C       -0.660471        0.045442       -0.475770       -0.430329
   3 H        0.116499        0.001882       -0.090421       -0.088538
   4 H        0.116499        0.001882       -0.090421       -0.088538
   5 H        0.024972        0.047335       -0.060119       -0.012785
   6 H        0.024972        0.047335       -0.060119       -0.012785
   7 O       -0.285704        1.192102       -0.404269        0.787833
   8 H        0.323703        0.291704       -0.016234        0.275470
  --------------------------------------------------------------------
  Sum:       -1.000000        1.673124       -1.673124       -0.000000
  
  Multipole moment analysis of the density matrix
    Molecular charge:                      -1.000000
    Number of electrons:                   26.000000
      Center of electronic charge [Ang]: [ -0.000000,  -0.000000,   0.055932]
    Total nuclear charge:                  25.000000
      Center of nuclear charge [Ang]:    [  0.000000,   0.000000,  -0.000000]
    Dipole moment [D]:                     6.984980
      Cartesian components [D]:          [  0.000000,   0.000000,  -6.984980]
    RMS size of the density [Ang]:         1.897085
      Cartesian components [Ang]:        [  0.956243,   0.545096,   1.545122]
  
  Exciton analysis of the difference density matrix
    <r_h> [Ang]:                  [  0.000000,   0.000000,  -1.350878]
    <r_e> [Ang]:                  [ -0.000000,  -0.000000,   0.196823]
    |<r_e - r_h>| [Ang]:            1.547701
    Hole size [Ang]:                1.853007
      Cartesian components [Ang]: [  0.833871,   0.754280,   1.472873]
    Electron size [Ang]:            3.642914
      Cartesian components [Ang]: [  2.328480,   1.332526,   2.464422]

  Transition density matrix analysis:
  -----------------------------------
  
  CT numbers (Mulliken)
    omega =     0.8605
    <Phe> =     0.0000
  
  Exciton analysis of the transition density matrix
    Trans. dipole moment [D]:             0.115800
      Cartesian components [D]:         [  0.115800,   0.000000,   0.000000]
    <r_h> [Ang]:                        [ -0.000000,   0.000000,  -1.690986]
    <r_e> [Ang]:                        [ -0.000000,  -0.000000,   1.017575]
    |<r_e - r_h>| [Ang]:                  2.708561
    Hole size [Ang]:                      1.169908
      Cartesian components [Ang]:       [  0.460987,   0.406597,   0.995417]
    Electron size [Ang]:                  4.272107
      Cartesian components [Ang]:       [  2.929661,   1.607744,   2.661418]
    RMS electron-hole separation [Ang]:   5.176619
      Cartesian components [Ang]:       [  2.961178,   1.658392,   3.908778]
    Covariance(r_h, r_e) [Ang^2]:         0.079248
    Correlation coefficient:              0.015856
    Center-of-mass size [Ang]:            2.223628
      Cartesian components [Ang]:       [  1.485115,   0.829165,   1.432284]

  Decomposition into state-averaged NTOs
    H- 1 -> L+ 4: -0.4999 ( 50.0%)
    H- 1 -> L+ 6:  0.4226 ( 35.7%)
                   omega =  86.1%
  ----------------------------------------------------------------------------


  Excited state 10 (singlet, B1)                                    [converged]
  ----------------------------------------------------------------------------
  Term symbol:  10 (1) B1                                   R^2 =  1.43146e-06

  Total energy:                                           -153.6742224945 a.u.
  Excitation energy:                                               8.067276 eV

  Osc. strength:                                                      0.054533
  Trans. dip. moment [a.u.]:           [   0.525277,    0.000000,   -0.000000]
  <i|r^2|0> [a.u.]:                    [  -0.000000,    0.000000,   -0.000000]

  Dip. moment [a.u.]:                  [  -0.000000,    0.000000,   -3.203447]
  Total dipole [Debye]:                                               8.142353
  <r^2> [a.u.]:                        [  60.347058,   24.218652,  215.787108]
  Total <r^2> [a.u.]:                                               300.352817

  V1^2 = 0.8798, V2^2 = 0.1202

  Important amplitudes:
      occ i      occ j       vir a       vir b          v   
    ---------------------------------------------------------
     4 (B1) A              12 (A1) A                 -0.6014
     4 (B1) A              14 (A1) A                 -0.1957
    ---------------------------------------------------------

  Density matrix analysis:
  ------------------------
  NOs
    Occupation of frontier NOs:
       0.9506   1.0040
    Number of electrons: 26.000000
    Number of unpaired electrons: n_u =  2.81187, n_u,nl =  2.12856
    NO participation ratio (PR_NO):  4.094921
  
  
  Mulliken Population Analysis
  Atom      Charge (e)              h+              e-           Del q
  --------------------------------------------------------------------
   1 C       -0.323544        0.080412       -0.173814       -0.093402
   2 C       -0.323544        0.080412       -0.173814       -0.093402
   3 H        0.031324       -0.003159       -0.170553       -0.173713
   4 H        0.031324       -0.003159       -0.170553       -0.173713
   5 H       -0.061969        0.032825       -0.132551       -0.099725
   6 H       -0.061969        0.032825       -0.132551       -0.099725
   7 O       -0.432676        1.258462       -0.617601        0.640861
   8 H        0.141052        0.114732       -0.021913        0.092819
  --------------------------------------------------------------------
  Sum:       -1.000000        1.593350       -1.593350       -0.000000
  
  Multipole moment analysis of the density matrix
    Molecular charge:                      -1.000000
    Number of electrons:                   26.000000
      Center of electronic charge [Ang]: [  0.000000,  -0.000000,   0.065200]
    Total nuclear charge:                  25.000000
      Center of nuclear charge [Ang]:    [  0.000000,   0.000000,  -0.000000]
    Dipole moment [D]:                     8.142350
      Cartesian components [D]:          [ -0.000000,   0.000000,  -8.142350]
    RMS size of the density [Ang]:         1.797400
      Cartesian components [Ang]:        [  0.806199,   0.510728,   1.523104]
  
  Exciton analysis of the difference density matrix
    <r_h> [Ang]:                  [ -0.000000,   0.000000,  -1.332507]
    <r_e> [Ang]:                  [  0.000000,  -0.000000,   0.443909]
    |<r_e - r_h>| [Ang]:            1.776416
    Hole size [Ang]:                1.780398
      Cartesian components [Ang]: [  0.893086,   0.720626,   1.361217]
    Electron size [Ang]:            2.685369
      Cartesian components [Ang]: [  1.202327,   1.092833,   2.138067]

  Transition density matrix analysis:
  -----------------------------------
  
  CT numbers (Mulliken)
    omega =     0.8600
    <Phe> =    -0.0043
  
  Exciton analysis of the transition density matrix
    Trans. dipole moment [D]:             0.667560
      Cartesian components [D]:         [  0.667560,   0.000000,  -0.000000]
    <r_h> [Ang]:                        [ -0.000000,   0.000000,  -1.568278]
    <r_e> [Ang]:                        [  0.000000,  -0.000000,   1.365952]
    |<r_e - r_h>| [Ang]:                  2.934230
    Hole size [Ang]:                      1.315306
      Cartesian components [Ang]:       [  0.828155,   0.470782,   0.906947]
    Electron size [Ang]:                  2.719067
      Cartesian components [Ang]:       [  1.363991,   1.251067,   1.991905]
    RMS electron-hole separation [Ang]:   4.181370
      Cartesian components [Ang]:       [  1.584788,   1.336270,   3.631348]
    Covariance(r_h, r_e) [Ang^2]:         0.124602
    Correlation coefficient:              0.034840
    Center-of-mass size [Ang]:            1.530732
      Cartesian components [Ang]:       [  0.803286,   0.668579,   1.118425]

  Decomposition into state-averaged NTOs
    H- 0 -> L+ 8:  0.6368 ( 81.1%)
    H- 4 -> L+ 2: -0.1061 (  2.3%)
                   omega =  86.0%
  ----------------------------------------------------------------------------


--------------------------------------------------------------------------------
  Time of ADC calculation:  CPU 264.28 s  wall 71.53 s
================================================================================
 
 --------------------------------------------------------------
             Orbital Energies (a.u.) and Symmetries
 --------------------------------------------------------------
 
 Alpha MOs, Restricted
 -- Occupied --                  
-20.213 -11.049 -11.047  -0.930  -0.854  -0.598  -0.473  -0.384
  1 A1    2 A1    1 B1    3 A1    4 A1    2 B1    5 A1    6 A1                 
 -0.328  -0.271  -0.194  -0.130  -0.129
  3 B1    7 A1    1 B2    4 B1    2 B2                                         
 -- Virtual --                   
  0.179   0.189   0.216   0.219   0.223   0.239   0.294   0.329
  5 B1    8 A1    3 B2    9 A1    1 A2    6 B1   10 A1   11 A1                 
  0.340   0.350   0.434   0.442   0.455   0.477   0.492   0.506
  2 A2    7 B1   12 A1    4 B2    8 B1   13 A1    9 B1    5 B2                 
  0.510   0.515   0.563   0.577   0.583   0.586   0.701   0.725
 14 A1   10 B1   11 B1   15 A1    3 A2   16 A1   17 A1   12 B1                 
  0.797   0.993   1.034   1.118   1.129   1.143   1.198   1.200
 13 B1   18 A1   19 A1   20 A1   14 B1   21 A1    6 B2   15 B1                 
  1.266   1.275   1.291   1.311   1.317   1.334   1.334   1.336
 22 A1    7 B2    4 A2   16 B1    5 A2   17 B1   23 A1   24 A1                 
  1.370   1.461   1.473   1.483   1.651   1.665   1.720   1.736
  8 B2   18 B1    9 B2    6 A2   19 B1   25 A1   10 B2   20 B1                 
  1.874   1.939   2.033   2.063   2.128   2.131   2.176   2.213
 26 A1   21 B1   27 A1    7 A2   28 A1   11 B2   22 B1   12 B2                 
  2.261   2.335   2.367   2.394   2.438   2.529   2.579   2.604
 29 A1   30 A1    8 A2   13 B2   23 B1   24 B1   31 A1    9 A2                 
  2.768   2.771   2.854   3.037   3.057   3.119   3.456   3.566
 32 A1   25 B1   26 B1   33 A1   34 A1   35 A1   27 B1   28 B1                 
  3.923   3.946   3.972   4.090   4.545
 14 B2   10 A2   36 A1   29 B1   37 A1                                         
 
 Beta MOs, Restricted
 -- Occupied --                  
-20.213 -11.049 -11.047  -0.930  -0.854  -0.598  -0.473  -0.384
  1 A1    2 A1    1 B1    3 A1    4 A1    2 B1    5 A1    6 A1                 
 -0.328  -0.271  -0.194  -0.130  -0.129
  3 B1    7 A1    1 B2    4 B1    2 B2                                         
 -- Virtual --                   
  0.179   0.189   0.216   0.219   0.223   0.239   0.294   0.329
  5 B1    8 A1    3 B2    9 A1    1 A2    6 B1   10 A1   11 A1                 
  0.340   0.350   0.434   0.442   0.455   0.477   0.492   0.506
  2 A2    7 B1   12 A1    4 B2    8 B1   13 A1    9 B1    5 B2                 
  0.510   0.515   0.563   0.577   0.583   0.586   0.701   0.725
 14 A1   10 B1   11 B1   15 A1    3 A2   16 A1   17 A1   12 B1                 
  0.797   0.993   1.034   1.118   1.129   1.143   1.198   1.200
 13 B1   18 A1   19 A1   20 A1   14 B1   21 A1    6 B2   15 B1                 
  1.266   1.275   1.291   1.311   1.317   1.334   1.334   1.336
 22 A1    7 B2    4 A2   16 B1    5 A2   17 B1   23 A1   24 A1                 
  1.370   1.461   1.473   1.483   1.651   1.665   1.720   1.736
  8 B2   18 B1    9 B2    6 A2   19 B1   25 A1   10 B2   20 B1                 
  1.874   1.939   2.033   2.063   2.128   2.131   2.176   2.213
 26 A1   21 B1   27 A1    7 A2   28 A1   11 B2   22 B1   12 B2                 
  2.261   2.335   2.367   2.394   2.438   2.529   2.579   2.604
 29 A1   30 A1    8 A2   13 B2   23 B1   24 B1   31 A1    9 A2                 
  2.768   2.771   2.854   3.037   3.057   3.119   3.456   3.566
 32 A1   25 B1   26 B1   33 A1   34 A1   35 A1   27 B1   28 B1                 
  3.923   3.946   3.972   4.090   4.545
 14 B2   10 A2   36 A1   29 B1   37 A1                                         
 --------------------------------------------------------------
 
          Ground-State Mulliken Net Atomic Charges

     Atom                 Charge (a.u.)
  ----------------------------------------
      1 C                    -0.227979
      2 C                    -0.227979
      3 H                     0.200828
      4 H                     0.200828
      5 H                     0.030804
      6 H                     0.030804
      7 O                    -1.071953
      8 H                     0.064648
  ----------------------------------------
  Sum of atomic charges =    -1.000000

 -----------------------------------------------------------------
                    Cartesian Multipole Moments
 -----------------------------------------------------------------
    Charge (ESU x 10^10)
                -4.8032
    Dipole Moment (Debye)
         X      -0.0000      Y       0.0000      Z       5.2822
       Tot       5.2822
    Quadrupole Moments (Debye-Ang)
        XX     -23.6514     XY       0.0000     YY     -26.5154
        XZ      -0.0000     YZ      -0.0000     ZZ     -32.8826
    Octopole Moments (Debye-Ang^2)
       XXX      -0.0000    XXY       0.0000    XYY       0.0000
       YYY       0.0000    XXZ       1.0303    XYZ       0.0000
       YYZ      -0.1601    XZZ      -0.0000    YZZ       0.0000
       ZZZ       6.3364
    Hexadecapole Moments (Debye-Ang^3)
      XXXX     -87.6981   XXXY      -0.0000   XXYY     -21.8016
      XYYY       0.0000   YYYY     -40.1397   XXXZ      -0.0000
      XXYZ      -0.0000   XYYZ       0.0000   YYYZ      -0.0000
      XXZZ     -70.4004   XYZZ       0.0000   YYZZ     -65.4055
      XZZZ       0.0000   YZZZ      -0.0000   ZZZZ    -292.5481
 -----------------------------------------------------------------
 Total job time:  180.04s(wall), 313.17s(cpu) 
 Wed Mar  2 17:56:06 2022

        *************************************************************
        *                                                           *
        *  Thank you very much for using Q-Chem.  Have a nice day.  *
        *                                                           *
        *************************************************************


