/src/tsommerfeld/qchem/exe/qcprog.exe .input1.4.25285.qcin.1 /src/jdavis/qchem.scratch/qchem25285/

                  Welcome to Q-Chem
     A Quantum Leap Into The Future Of Chemistry


 Q-Chem 5.4 (devel), Q-Chem, Inc., Pleasanton, CA (2021)

 E. Epifanovsky,  A. T. B. Gilbert,  Xintian Feng,  Joonho Lee,  Yuezhi Mao,  
 N. Mardirossian,  P. Pokhilko,  A. White,  M. Wormit,  M. P. Coons,  
 A. L. Dempwolff,  Zhengting Gan,  D. Hait,  P. R. Horn,  L. D. Jacobson,  
 I. Kaliman,  J. Kussmann,  A. W. Lange,  Ka Un Lao,  D. S. Levine,  Jie Liu,  
 S. C. McKenzie,  A. F. Morrison,  K. Nanda,  F. Plasser,  D. R. Rehn,  
 M. L. Vidal,  Zhi-Qiang You,  Ying Zhu,  B. Alam,  B. Albrecht,  
 A. Aldossary,  E. Alguire,  J. H. Andersen,  D. Barton,  K. Begam,  A. Behn,  
 Y. A. Bernard,  E. J. Berquist,  H. Burton,  A. Carreras,  K. Carter-Fenk,  
 R. Chakraborty,  A. D. Chien,  K. D. Closser,  V. Cofer-Shabica,  
 S. Dasgupta,  Jia Deng,  M. de Wergifosse,  M. Diedenhofen,  Hainam Do,  
 S. Ehlert,  Po-Tung Fang,  S. Fatehi,  Qingguo Feng,  T. Friedhoff,  
 J. Gayvert,  Qinghui Ge,  G. Gidofalvi,  M. Goldey,  J. Gomes,  
 C. Gonzalez-Espinoza,  S. Gulania,  A. Gunina,  M. W. D. Hanson-Heine,  
 P. H. P. Harbach,  A. W. Hauser,  M. F. Herbst,  M. Hernandez Vera,  
 M. Hodecker,  Z. C. Holden,  S. Houck,  Xunkun Huang,  Kerwin Hui,  
 B. C. Huynh,  M. Ivanov,  Hyunjun Ji,  Hanjie Jiang,  B. Kaduk,  S. Kaehler,  
 K. Khistyaev,  Jaehoon Kim,  P. Klunzinger,  Z. Koczor-Benda,  
 Joong Hoon Koh,  D. Kosenkov,  L. Koulias,  T. Kowalczyk,  C. M. Krauter,  
 K. Kue,  A. Kunitsa,  T. Kus,  A. Landau,  K. V. Lawler,  D. Lefrancois,  
 S. Lehtola,  Rain Li,  Yi-Pei Li,  Jiashu Liang,  M. Liebenthal,  
 Hung-Hsuan Lin,  You-Sheng Lin,  Fenglai Liu,  Kuan-Yu Liu,  
 M. Loipersberger,  A. Luenser,  A. Manjanath,  P. Manohar,  E. Mansoor,  
 S. F. Manzer,  Shan-Ping Mao,  A. V. Marenich,  T. Markovich,  S. Mason,  
 S. A. Maurer,  P. F. McLaughlin,  M. F. S. J. Menger,  J.-M. Mewes,  
 S. A. Mewes,  P. Morgante,  J. W. Mullinax,  K. J. Oosterbaan,  G. Paran,  
 Alexander C. Paul,  Suranjan K. Paul,  F. Pavosevic,  Zheng Pei,  S. Prager,  
 E. I. Proynov,  E. Ramos,  B. Rana,  A. E. Rask,  A. Rettig,  R. M. Richard,  
 F. Rob,  E. Rossomme,  T. Scheele,  M. Scheurer,  M. Schneider,  
 N. Sergueev,  S. M. Sharada,  W. Skomorowski,  D. W. Small,  C. J. Stein,  
 Yu-Chuan Su,  E. J. Sundstrom,  Zhen Tao,  J. Thirman,  T. Tsuchimochi,  
 N. M. Tubman,  S. P. Veccham,  O. Vydrov,  J. Wenzel,  J. Witte,  A. Yamada,  
 Kun Yao,  S. Yeganeh,  S. R. Yost,  A. Zech,  Igor Ying Zhang,  Xing Zhang,  
 Yu Zhang,  D. Zuev,  A. Aspuru-Guzik,  A. T. Bell,  N. A. Besley,  
 K. B. Bravaya,  B. R. Brooks,  D. Casanova,  Jeng-Da Chai,  S. Coriani,  
 C. J. Cramer,  A. E. DePrince, III,  R. A. DiStasio Jr.,  A. Dreuw,  
 B. D. Dunietz,  T. R. Furlani,  W. A. Goddard III,  S. Grimme,  
 S. Hammes-Schiffer,  T. Head-Gordon,  W. J. Hehre,  Chao-Ping Hsu,  
 T.-C. Jagau,  Yousung Jung,  A. Klamt,  Jing Kong,  D. S. Lambrecht,  
 WanZhen Liang,  N. J. Mayhall,  C. W. McCurdy,  J. B. Neaton,  
 C. Ochsenfeld,  J. A. Parkhill,  R. Peverati,  V. A. Rassolov,  Yihan Shao,  
 L. V. Slipchenko,  T. Stauch,  R. P. Steele,  J. E. Subotnik,  
 A. J. W. Thom,  A. Tkatchenko,  D. G. Truhlar,  T. Van Voorhis,  
 T. A. Wesolowski,  K. B. Whaley,  H. L. Woodcock III,  P. M. Zimmerman,  
 S. Faraji,  P. M. W. Gill,  M. Head-Gordon,  J. M. Herbert,  A. I. Krylov

 Additional authors for Version 5.4.1: 
 S. Kotaru,  Shaozhi Li,  Xiangyuan Li,  F. Matz,  A. Molle,  Haisheng Ren,  
 Yingli Su,  Hung-Yi Tsai,  C. Utku,  Fang Wang

 Contributors to earlier versions of Q-Chem not listed above: 
 R. D. Adamson,  B. Austin,  R. Baer,  J. Baker,  G. J. O. Beran,  
 K. Brandhorst,  S. T. Brown,  E. F. C. Byrd,  A. K. Chakraborty,  
 G. K. L. Chan,  Chun-Min Chang,  Yunqing Chen,  C.-L. Cheng,  
 Siu Hung Chien,  D. M. Chipman,  D. L. Crittenden,  H. Dachsel,  
 R. J. Doerksen,  A. D. Dutoi,  R. G. Edgar,  J. Fosso-Tande,  
 L. Fusti-Molnar,  D. Ghosh,  A. Ghysels,  A. Golubeva-Zadorozhnaya,  
 J. Gonthier,  M. S. Gordon,  S. R. Gwaltney,  G. Hawkins,  J. E. Herr,  
 A. Heyden,  S. Hirata,  E. G. Hohenstein,  G. Kedziora,  F. J. Keil,  
 C. Kelley,  Jihan Kim,  R. A. King,  R. Z. Khaliullin,  P. P. Korambath,  
 W. Kurlancheek,  A. Laurent,  A. M. Lee,  M. S. Lee,  S. V. Levchenko,  
 Ching Yeh Lin,  D. Liotard,  E. Livshits,  R. C. Lochan,  I. Lotan,  
 L. A. Martinez-Martinez,  P. E. Maslen,  N. Nair,  D. P. O'Neill,  
 D. Neuhauser,  E. Neuscamman,  C. M. Oana,  R. Olivares-Amaya,  R. Olson,  
 T. M. Perrine,  B. Peters,  P. A. Pieniazek,  A. Prociuk,  Y. M. Rhee,  
 J. Ritchie,  M. A. Rohrdanz,  E. Rosta,  N. J. Russ,  H. F. Schaefer III,  
 M. W. Schmidt,  N. E. Schultz,  S. Sharma,  N. Shenvi,  C. D. Sherrill,  
 A. C. Simmonett,  A. Sodt,  T. Stein,  D. Stuck,  K. S. Thanthiriwatte,  
 V. Vanovschi,  L. Vogt,  Tao Wang,  A. Warshel,  M. A. Watson,  
 C. F. Williams,  Q. Wu,  X. Xu,  Jun Yang,  W. Zhang,  Yan Zhao

 Please cite Q-Chem as follows:
 Y. Shao et al., Mol. Phys. 113, 184-215 (2015)
 DOI: 10.1080/00268976.2014.952696

 Q-Chem 5.4.1 for Intel X86 EM64T Linux

 Parts of Q-Chem use Armadillo 9.900.5 (Nocturnal Misbehaviour).
 http://arma.sourceforge.net/

 Q-Chem begins on Wed Mar  2 17:25:58 2022  

 Host: node01
0

     Scratch files written to /src/jdavis/qchem.scratch/qchem25285//
 Processing $rem in /src/tsommerfeld/qchem/config/preferences:
 Processing $rem in /home/jdavis/.qchemrc:

 Checking the input file for inconsistencies... 	...done.

--------------------------------------------------------------
User input:
--------------------------------------------------------------
$molecule
-1 1
C        -0.6645000000    0.0000000000    1.1619088658
C         0.6645000000    0.0000000000    1.1619088658
H        -1.1590800000    0.0000000000    0.1995598658
H         1.1590800000    0.0000000000    0.1995598658
H        -1.1590800000    0.0000000000    2.1242568658
H         1.1590800000    0.0000000000    2.1242568658
O         0.0000000000    0.0000000000   -1.5841414040
H         0.0000000000    0.0000000000   -2.5471307683
$end
$rem
   METHOD adc(2)
   BASIS gen
   PURECART 11
   EE_STATES [0,0,10,0]
   scf_convergence 8
   ADC_DAVIDSON_MAXITER 120
   ADC_DAVIDSON_MAXSUBSPACE 200
   adc_nguess_singles 100
   THRESH 14
   S2THRESH 14
   adc_davidson_conv 5
   adc_davidson_thresh 14
   THREADS 10
   MEM_TOTAL 95000
   STATE_ANALYSIS TRUE
$end
$basis
C 1
S   9   1.00
      6.665000D+03           6.920000D-04
      1.000000D+03           5.329000D-03
      2.280000D+02           2.707700D-02
      6.471000D+01           1.017180D-01
      2.106000D+01           2.747400D-01
      7.495000D+00           4.485640D-01
      2.797000D+00           2.850740D-01
      5.215000D-01           1.520400D-02
      1.596000D-01          -3.191000D-03
S   9   1.00
      6.665000D+03          -1.460000D-04
      1.000000D+03          -1.154000D-03
      2.280000D+02          -5.725000D-03
      6.471000D+01          -2.331200D-02
      2.106000D+01          -6.395500D-02
      7.495000D+00          -1.499810D-01
      2.797000D+00          -1.272620D-01
      5.215000D-01           5.445290D-01
      1.596000D-01           5.804960D-01
S   1   1.00
      1.596000D-01           1.000000D+00
S   1   1.00
      0.0469000              1.0000000
P   4   1.00
      9.439000D+00           3.810900D-02
      2.002000D+00           2.094800D-01
      5.456000D-01           5.085570D-01
      1.517000D-01           4.688420D-01
P   1   1.00
      1.517000D-01           1.000000D+00
P   1   1.00
      0.06068      1.0000000
P   1   1.00
      0.03034      1.0000000
D   1   1.00
      5.500000D-01           1.0000000
****
C 2
S   9   1.00
      6.665000D+03           6.920000D-04
      1.000000D+03           5.329000D-03
      2.280000D+02           2.707700D-02
      6.471000D+01           1.017180D-01
      2.106000D+01           2.747400D-01
      7.495000D+00           4.485640D-01
      2.797000D+00           2.850740D-01
      5.215000D-01           1.520400D-02
      1.596000D-01          -3.191000D-03
S   9   1.00
      6.665000D+03          -1.460000D-04
      1.000000D+03          -1.154000D-03
      2.280000D+02          -5.725000D-03
      6.471000D+01          -2.331200D-02
      2.106000D+01          -6.395500D-02
      7.495000D+00          -1.499810D-01
      2.797000D+00          -1.272620D-01
      5.215000D-01           5.445290D-01
      1.596000D-01           5.804960D-01
S   1   1.00
      1.596000D-01           1.000000D+00
S   1   1.00
      0.0469000              1.0000000
P   4   1.00
      9.439000D+00           3.810900D-02
      2.002000D+00           2.094800D-01
      5.456000D-01           5.085570D-01
      1.517000D-01           4.688420D-01
P   1   1.00
      1.517000D-01           1.000000D+00
P   1   1.00
      0.06068      1.0000000
P   1   1.00
      0.03034      1.0000000
D   1   1.00
      5.500000D-01           1.0000000
****
H 3
cc-pVDZ
****
H 4
cc-pVDZ
****
H 5
cc-pVDZ
****
H 6
cc-pVDZ
****
O 7
aug-cc-pVDZ
****
H 8
cc-pVDZ
****
$end
--------------------------------------------------------------
 ----------------------------------------------------------------
             Standard Nuclear Orientation (Angstroms)
    I     Atom           X                Y                Z
 ----------------------------------------------------------------
    1      C      -0.6645000000    -0.0000000000     1.0270977517
    2      C       0.6645000000     0.0000000000     1.0270977517
    3      H      -1.1590800000    -0.0000000000     0.0647487517
    4      H       1.1590800000     0.0000000000     0.0647487517
    5      H      -1.1590800000    -0.0000000000     1.9894457517
    6      H       1.1590800000     0.0000000000     1.9894457517
    7      O       0.0000000000    -0.0000000000    -1.7189525181
    8      H       0.0000000000    -0.0000000000    -2.6819418824
 ----------------------------------------------------------------
 Molecular Point Group                 C2v   NOp =  4
 Largest Abelian Subgroup              C2v   NOp =  4
 Nuclear Repulsion Energy =          64.38561153 hartrees
 There are       13 alpha and       13 beta electrons
 Requested basis set is non-standard
 There are 42 shells and 90 basis functions
 Total memory of 95000 MB is distributed as follows: 
   MEM_STATIC is set to 192 MB
   QALLOC/CCMAN JOB total memory use is  94808 MB
 Warning: actual memory use might exceed 95000 MB

 Total QAlloc Memory Limit  95000 MB
 Mega-Array Size       188 MB
 MEM_STATIC part       192 MB

                       Distance Matrix (Angstroms)
             C (  1)   C (  2)   H (  3)   H (  4)   H (  5)   H (  6)
   C (  2)  1.329000
   H (  3)  1.082000  2.061931
   H (  4)  2.061931  1.082000  2.318160
   H (  5)  1.082000  2.061931  1.924697  3.013026
   H (  6)  2.061931  1.082000  3.013026  1.924697  2.318160
   O (  7)  2.825306  2.825306  2.127218  2.127218  3.885316  3.885316
   H (  8)  3.768094  3.768094  2.981237  2.981237  4.813037  4.813037
             O (  7)
   H (  8)  0.962989
 
 A cutoff of  1.0D-14 yielded    903 shell pairs
 There are      4183 function pairs (      4573 Cartesian)
 Smallest overlap matrix eigenvalue = 1.86E-04

 Scale SEOQF with 1.000000e-01/1.000000e-01/1.000000e-01

 Standard Electronic Orientation quadrupole field applied
 Nucleus-field energy     =    -0.0000000051 hartrees
 ================ Generating on-the-fly SAD Guess ================
Attempting to make child job directory: /src/jdavis/qchem.scratch/qchem25285//Frg1/
Attempting to make child job directory: /src/jdavis/qchem.scratch/qchem25285//Frg2/
Attempting to make child job directory: /src/jdavis/qchem.scratch/qchem25285//Frg3/
Creating input file /src/jdavis/qchem.scratch/qchem25285/Frg1.input
using default PutDataFrgm: nothing
calling putenv with: QCSCRATCH=/src/jdavis/qchem.scratch/qchem25285/ 
Spawning Job For Fragment 0
Done Job For Fragment 0
calling putenv with: QCSCRATCH=/src/jdavis/qchem.scratch 
calling putenv with: QCTHREADS=1 
Creating input file /src/jdavis/qchem.scratch/qchem25285/Frg2.input
using default PutDataFrgm: nothing
calling putenv with: QCSCRATCH=/src/jdavis/qchem.scratch/qchem25285/ 
Spawning Job For Fragment 1
Done Job For Fragment 1
calling putenv with: QCSCRATCH=/src/jdavis/qchem.scratch 
calling putenv with: QCTHREADS=1 
Creating input file /src/jdavis/qchem.scratch/qchem25285/Frg3.input
using default PutDataFrgm: nothing
calling putenv with: QCSCRATCH=/src/jdavis/qchem.scratch/qchem25285/ 
Spawning Job For Fragment 2
Done Job For Fragment 2
calling putenv with: QCSCRATCH=/src/jdavis/qchem.scratch 
calling putenv with: QCTHREADS=1 
 Time for running child jobs:  CPU 1.77 s  wall 80.45 s
 ============= Method Specific SAD Guess Constructed =============
 Guess from on-the-fly superposition of atomic densities
 Warning: Energy on first SCF cycle will be non-variational
 A restricted Hartree-Fock SCF calculation will be
 performed using Pulay DIIS extrapolation
 SCF converges when DIIS error is below 1.0E-08
 using 10 threads for integral computing
 -------------------------------------------------------
 OpenMP Integral computing Module                
 Release: version 1.0, May 2013, Q-Chem Inc. Pittsburgh 
 -------------------------------------------------------
 ---------------------------------------
  Cycle       Energy         DIIS Error
 ---------------------------------------
    1    -153.5739951639      5.98E-02
    2    -153.2897440086      1.22E-02
    3    -153.3556218942      1.03E-02
    4    -153.4401952299      7.59E-04
    5    -153.4411228097      2.12E-04
    6    -153.4411962290      4.62E-05
    7    -153.4412015741      1.21E-05
    8    -153.4412021402      3.65E-06
    9    -153.4412021889      7.42E-07
   10    -153.4412021905      1.29E-07
   11    -153.4412021906      3.77E-08
   12    -153.4412021906      1.17E-08
   13    -153.4412021906      2.56E-09 Convergence criterion met
 ---------------------------------------
 SCF time:  CPU 15.17 s  wall 1.52 s
 SCF   energy in the final basis set = -153.44120219
 Total energy in the final basis set = -153.44120219
================================================================================
|                                                                              |
|                                 A D C  M A N                                 |
|                                                                              |
 ------------------------------------------------------------------------------ 
|                                                                              |
| Components:                                                                  |
|                                                                              |
| - libvmm - 1.3-trunk                                                         |
|   Authors:                                                                   |
|   Evgeny Epifanovsky, Ilya Kaliman                                           |
|                                                                              |
| - libtensor - 2.5-trunk                                                      |
|   Authors:                                                                   |
|   Evgeny Epifanovsky, Michael Wormit, Dmitry Zuev, Sam Manzer,               |
|   Ilya Kaliman                                                               |
|                                                                              |
| - libwfa - 1.1-trunk                                                         |
|   Authors:                                                                   |
|   Felix Plasser, Stefanie Mewes (Baeppler), Benjamin Thomitzni,              |
|   Michael Wormit, Feng Chen, Anna I. Krylov, Pavel Pokhilko                  |
|                                                                              |
| - libadc - 1.1-trunk                                                         |
|   Authors:                                                                   |
|   Michael Wormit, Adrian L. Dempwolff, Philipp H. P. Harbach,                |
|   Caroline Krauter, Dirk Rehn, Matthias Schneider, Jan Wenzel                |
|                                                                              |
| - adcman - 2.6-trunk                                                         |
|   Authors:                                                                   |
|   Michael Wormit, Adrian L. Dempwolff, Philipp H. P. Harbach,                |
|   Caroline Krauter, Daniel Lefrancois, Jan-Michael Mewes, Dirk Rehn,         |
|   Matthias Schneider, Jan Wenzel, Andreas Dreuw                              |
|                                                                              |
| Authors of earlier versions of ADCMAN:                                       |
| Andreas Dreuw, Jan Hendrik Starcke, Dirk Rehn, Michael Wormit                |
|                                                                              |
================================================================================

 
 Alpha MOs, Restricted
 -- Occupied --                  
-20.213 -11.049 -11.047  -0.930  -0.854  -0.598  -0.473  -0.384
  1 A1    2 A1    1 B1    3 A1    4 A1    2 B1    5 A1    6 A1                 
 -0.328  -0.271  -0.194  -0.130  -0.129
  3 B1    7 A1    1 B2    4 B1    2 B2                                         
 -- Virtual --                   
  0.160   0.170   0.188   0.191   0.196   0.206   0.279   0.318
  5 B1    8 A1    3 B2    9 A1    1 A2    6 B1   10 A1    2 A2                 
  0.325   0.325   0.387   0.410   0.419   0.423   0.429   0.458
 11 A1    7 B1   12 A1    8 B1    4 B2   13 A1    9 B1    5 B2                 
  0.486   0.512   0.514   0.547   0.554   0.577   0.690   0.716
 10 B1    3 A2   14 A1   15 A1   11 B1   16 A1   17 A1   12 B1                 
  0.771   0.951   1.038   1.061   1.091   1.125   1.163   1.209
 13 B1   18 A1   19 A1   20 A1   21 A1   14 B1    6 B2    7 B2                 
  1.217   1.230   1.231   1.245   1.291   1.329   1.332   1.339
  4 A2   22 A1   15 B1   16 B1    5 A2   23 A1   17 B1   24 A1                 
  1.370   1.461   1.470   1.483   1.587   1.652   1.706   1.719
  8 B2   18 B1    9 B2    6 A2   19 B1   25 A1   20 B1   10 B2                 
  1.866   1.928   2.013   2.053   2.125   2.129   2.154   2.212
 26 A1   21 B1   27 A1    7 A2   28 A1   11 B2   22 B1   12 B2                 
  2.232   2.318   2.363   2.394   2.436   2.522   2.569   2.604
 29 A1   30 A1    8 A2   13 B2   23 B1   24 B1   31 A1    9 A2                 
  2.764   2.778   2.851   3.021   3.037   3.105   3.441   3.562
 32 A1   25 B1   26 B1   33 A1   34 A1   35 A1   27 B1   28 B1                 
  3.922   3.946   3.971   4.090   4.543
 14 B2   10 A2   36 A1   29 B1   37 A1                                         
 
 Beta MOs, Restricted
 -- Occupied --                  
-20.213 -11.049 -11.047  -0.930  -0.854  -0.598  -0.473  -0.384
  1 A1    2 A1    1 B1    3 A1    4 A1    2 B1    5 A1    6 A1                 
 -0.328  -0.271  -0.194  -0.130  -0.129
  3 B1    7 A1    1 B2    4 B1    2 B2                                         
 -- Virtual --                   
  0.160   0.170   0.188   0.191   0.196   0.206   0.279   0.318
  5 B1    8 A1    3 B2    9 A1    1 A2    6 B1   10 A1    2 A2                 
  0.325   0.325   0.387   0.410   0.419   0.423   0.429   0.458
 11 A1    7 B1   12 A1    8 B1    4 B2   13 A1    9 B1    5 B2                 
  0.486   0.512   0.514   0.547   0.554   0.577   0.690   0.716
 10 B1    3 A2   14 A1   15 A1   11 B1   16 A1   17 A1   12 B1                 
  0.771   0.951   1.038   1.061   1.091   1.125   1.163   1.209
 13 B1   18 A1   19 A1   20 A1   21 A1   14 B1    6 B2    7 B2                 
  1.217   1.230   1.231   1.245   1.291   1.329   1.332   1.339
  4 A2   22 A1   15 B1   16 B1    5 A2   23 A1   17 B1   24 A1                 
  1.370   1.461   1.470   1.483   1.587   1.652   1.706   1.719
  8 B2   18 B1    9 B2    6 A2   19 B1   25 A1   20 B1   10 B2                 
  1.866   1.928   2.013   2.053   2.125   2.129   2.154   2.212
 26 A1   21 B1   27 A1    7 A2   28 A1   11 B2   22 B1   12 B2                 
  2.232   2.318   2.363   2.394   2.436   2.522   2.569   2.604
 29 A1   30 A1    8 A2   13 B2   23 B1   24 B1   31 A1    9 A2                 
  2.764   2.778   2.851   3.021   3.037   3.105   3.441   3.562
 32 A1   25 B1   26 B1   33 A1   34 A1   35 A1   27 B1   28 B1                 
  3.922   3.946   3.971   4.090   4.543
 14 B2   10 A2   36 A1   29 B1   37 A1                                         

--------------------------------------------------------------------------------
                                   HF Summary                                   
--------------------------------------------------------------------------------
  Energy:                                                 -153.4412021906 a.u.
  Dip. moment [a.u.]:                  [  -0.000000,    0.000000,    2.080600]
  Total dipole [Debye]:                                               5.288358
  <r^2> [a.u.]:                        [  55.708862,   19.700336,  208.061724]
  Total <r^2> [a.u.]:                                               283.470923
--------------------------------------------------------------------------------

--------------------------------------------------------------------------------
                                 MP(2) Summary                                  
--------------------------------------------------------------------------------
  MP energy contribution:                                   -0.5286292499 a.u.
  Total energy:                                           -153.9698314405 a.u.
  Dip. moment [a.u.]:                  [  -0.000000,   -0.000000,    2.149673]
  Total dipole [Debye]:                                               5.463925
  <r^2> [a.u.]:                        [  56.689342,   20.377805,  209.328228]
  Total <r^2> [a.u.]:                                               286.395375

  Density matrix analysis:
  ------------------------
  NOs
    Occupation of frontier NOs:
       0.0447   1.9356
    Number of electrons: 26.000000
    Number of unpaired electrons: n_u =  0.71552, n_u,nl =  0.08543
    NO participation ratio (PR_NO): 23.011251
  
  
  Mulliken Population Analysis
  Atom      Charge (e)              h+              e-           Del q
  --------------------------------------------------------------------
   1 C       -0.198625        0.093836       -0.095813       -0.001977
   2 C       -0.198625        0.093836       -0.095813       -0.001977
   3 H        0.186951        0.017462       -0.013557        0.003905
   4 H        0.186951        0.017462       -0.013557        0.003905
   5 H        0.022483        0.018524       -0.011905        0.006619
   6 H        0.022483        0.018524       -0.011905        0.006619
   7 O       -1.073429        0.277964       -0.278422       -0.000458
   8 H        0.051812        0.015394       -0.032031       -0.016637
  --------------------------------------------------------------------
  Sum:       -1.000000        0.553003       -0.553003       -0.000000
  
  Multipole moment analysis of the density matrix
    Molecular charge:                      -1.000000
    Number of electrons:                   26.000000
      Center of electronic charge [Ang]: [  0.000000,   0.000000,  -0.043752]
    Total nuclear charge:                  25.000000
      Center of nuclear charge [Ang]:    [  0.000000,   0.000000,  -0.000000]
    Dipole moment [D]:                     5.463923
      Cartesian components [D]:          [ -0.000000,  -0.000000,   5.463923]
    RMS size of the density [Ang]:         1.755750
      Cartesian components [Ang]:        [  0.781385,   0.468482,   1.500873]
  
  Exciton analysis of the difference density matrix
    <r_h> [Ang]:                  [  0.000000,   0.000000,  -0.478560]
    <r_e> [Ang]:                  [  0.000000,   0.000000,  -0.544657]
    |<r_e - r_h>| [Ang]:            0.066097
    Hole size [Ang]:                1.945689
      Cartesian components [Ang]: [  0.870883,   0.733798,   1.577597]
    Electron size [Ang]:            2.280122
      Cartesian components [Ang]: [  1.120237,   0.938890,   1.750003]
--------------------------------------------------------------------------------
  Starting Davidson for singlet states of irrep B1 ... 
--------------------------------------------------------------------------------
   It NVec Conv  Avg. Norm  Max. Norm  Conv. states           Remark
--------------------------------------------------------------------------------
       100    0  1.566e-01  5.403e-01  0.2640 n n n n n n n n Guess.
    1  110    0  1.608e-02  7.947e-02  0.0923 n n n n n n n n 
    2  120    0  1.310e-02  1.001e-01  0.0909 n n n n n n n n 
    3  130    0  1.612e-02  1.386e-01  0.0909 n n n n n n n n 
    4  140    0  6.036e-03  5.423e-02  0.0909 n n n n n n n n 
    5  150    1  1.370e-03  1.020e-02  0.0909 n n y n n n n n 
    6  160    5  3.844e-04  2.792e-03  0.0909 y y y y y n n n 
    7  170    6  7.191e-05  5.387e-04  0.0909 y y y y y y n n 
    8  180    8  1.514e-05  1.098e-04  0.0909 y y y y y y y y 
    9  190    8  2.543e-06  1.869e-05  0.0909 y y y y y y y y 
   10  200   10  4.447e-07  3.160e-06  0.0909 y y y y y y y y Converged.
--------------------------------------------------------------------------------
  Davidson Summary: 
 ------------------------------------------------------------
  State  0: excitation energy =   0.0909 a.u.   (converged)
  State  1: excitation energy =   0.0994 a.u.   (converged)
  State  2: excitation energy =   0.1082 a.u.   (converged)
  State  3: excitation energy =   0.1371 a.u.   (converged)
  State  4: excitation energy =   0.1720 a.u.   (converged)
  State  5: excitation energy =   0.1791 a.u.   (converged)
  State  6: excitation energy =   0.2326 a.u.   (converged)
  State  7: excitation energy =   0.2557 a.u.   (converged)
  State  8: excitation energy =   0.2647 a.u.   (converged)
  State  9: excitation energy =   0.2660 a.u.   (converged)
 ------------------------------------------------------------


--------------------------------------------------------------------------------
                   State-averaged natural transition orbitals
--------------------------------------------------------------------------------
--------------------------------------------------------------------------------

--------------------------------------------------------------------------------
                             Excited State Summary
--------------------------------------------------------------------------------
--------------------------------------------------------------------------------

  Excited state 1 (singlet, B1)                                    [converged]
  ----------------------------------------------------------------------------
  Term symbol:  1 (1) B1                                    R^2 =  1.67685e-09

  Total energy:                                           -153.8789342857 a.u.
  Excitation energy:                                               2.473437 eV

  Osc. strength:                                                      0.002857
  Trans. dip. moment [a.u.]:           [   0.217117,    0.000000,   -0.000000]
  <i|r^2|0> [a.u.]:                    [   0.000000,    0.000000,    0.000000]

  Dip. moment [a.u.]:                  [   0.000000,    0.000000,   -5.772199]
  Total dipole [Debye]:                                              14.671468
  <r^2> [a.u.]:                        [  73.011468,   31.186308,  239.093326]
  Total <r^2> [a.u.]:                                               343.291103

  V1^2 = 0.8671, V2^2 = 0.1329

  Important amplitudes:
      occ i      occ j       vir a       vir b          v   
    ---------------------------------------------------------
     4 (B1) A               8 (A1) A                  0.6298
     4 (B1) A               9 (A1) A                 -0.1476
    ---------------------------------------------------------

  Density matrix analysis:
  ------------------------
  NOs
    Occupation of frontier NOs:
       0.9619   0.9970
    Number of electrons: 26.000000
    Number of unpaired electrons: n_u =  2.74984, n_u,nl =  2.11476
    NO participation ratio (PR_NO):  3.876928
  
  
  Mulliken Population Analysis
  Atom      Charge (e)              h+              e-           Del q
  --------------------------------------------------------------------
   1 C       -0.715721        0.040548       -0.557643       -0.517096
   2 C       -0.715721        0.040548       -0.557643       -0.517096
   3 H        0.126453       -0.001121       -0.059376       -0.060498
   4 H        0.126453       -0.001121       -0.059376       -0.060498
   5 H        0.058997        0.054263       -0.017749        0.036514
   6 H        0.058997        0.054263       -0.017749        0.036514
   7 O       -0.059610        1.402428       -0.388609        1.013819
   8 H        0.120152        0.128697       -0.060357        0.068340
  --------------------------------------------------------------------
  Sum:       -1.000000        1.718504       -1.718504        0.000000
  
  Multipole moment analysis of the density matrix
    Molecular charge:                      -1.000000
    Number of electrons:                   26.000000
      Center of electronic charge [Ang]: [ -0.000000,  -0.000000,   0.117481]
    Total nuclear charge:                  25.000000
      Center of nuclear charge [Ang]:    [  0.000000,   0.000000,  -0.000000]
    Dipole moment [D]:                     14.671464
      Cartesian components [D]:          [  0.000000,   0.000000, -14.671464]
    RMS size of the density [Ang]:         1.919259
      Cartesian components [Ang]:        [  0.886768,   0.579557,   1.600410]
  
  Exciton analysis of the difference density matrix
    <r_h> [Ang]:                  [  0.000000,  -0.000000,  -1.381103]
    <r_e> [Ang]:                  [ -0.000000,  -0.000000,   1.058271]
    |<r_e - r_h>| [Ang]:            2.439374
    Hole size [Ang]:                1.841658
      Cartesian components [Ang]: [  0.931376,   0.771758,   1.388753]
    Electron size [Ang]:            3.667467
      Cartesian components [Ang]: [  1.878067,   1.535202,   2.750697]

  Transition density matrix analysis:
  -----------------------------------
  
  CT numbers (Mulliken)
    omega =     0.8515
    <Phe> =    -0.0007
  
  Exciton analysis of the transition density matrix
    Trans. dipole moment [D]:             0.275928
      Cartesian components [D]:         [  0.275928,   0.000000,  -0.000000]
    <r_h> [Ang]:                        [  0.000000,   0.000000,  -1.716034]
    <r_e> [Ang]:                        [ -0.000000,  -0.000000,   2.612791]
    |<r_e - r_h>| [Ang]:                  4.328825
    Hole size [Ang]:                      1.150830
      Cartesian components [Ang]:       [  0.824223,   0.469015,   0.651990]
    Electron size [Ang]:                  3.888420
      Cartesian components [Ang]:       [  2.355705,   1.907229,   2.435763]
    RMS electron-hole separation [Ang]:   5.928844
      Cartesian components [Ang]:       [  2.492754,   1.963944,   5.008022]
    Covariance(r_h, r_e) [Ang^2]:         0.015877
    Correlation coefficient:              0.003548
    Center-of-mass size [Ang]:            2.029530
      Cartesian components [Ang]:       [  1.249356,   0.982079,   1.262388]

  Decomposition into state-averaged NTOs
    H- 0 -> L+ 5:  0.4501 ( 40.5%)
    H- 0 -> L+ 4:  0.4342 ( 37.7%)
    H- 0 -> L+ 1: -0.1498 (  4.5%)
    H- 0 -> L+ 2:  0.1059 (  2.2%)
                   omega =  85.2%
  ----------------------------------------------------------------------------


  Excited state 2 (singlet, B1)                                    [converged]
  ----------------------------------------------------------------------------
  Term symbol:  2 (1) B1                                    R^2 =  1.08320e-09

  Total energy:                                           -153.8704320971 a.u.
  Excitation energy:                                               2.704794 eV

  Osc. strength:                                                      0.034198
  Trans. dip. moment [a.u.]:           [  -0.718375,   -0.000000,    0.000000]
  <i|r^2|0> [a.u.]:                    [  -0.000000,   -0.000000,    0.000000]

  Dip. moment [a.u.]:                  [  -0.000000,   -0.000000,   -1.417938]
  Total dipole [Debye]:                                               3.604039
  <r^2> [a.u.]:                        [  97.156768,   27.366767,  209.936256]
  Total <r^2> [a.u.]:                                               334.459791

  V1^2 = 0.8741, V2^2 = 0.1259

  Important amplitudes:
      occ i      occ j       vir a       vir b          v   
    ---------------------------------------------------------
     4 (B1) A               9 (A1) A                  0.5875
     4 (B1) A              10 (A1) A                  0.2103
    ---------------------------------------------------------

  Density matrix analysis:
  ------------------------
  NOs
    Occupation of frontier NOs:
       0.9657   0.9921
    Number of electrons: 26.000000
    Number of unpaired electrons: n_u =  2.75078, n_u,nl =  2.11525
    NO participation ratio (PR_NO):  3.884389
  
  
  Mulliken Population Analysis
  Atom      Charge (e)              h+              e-           Del q
  --------------------------------------------------------------------
   1 C       -0.685202        0.029972       -0.516549       -0.486577
   2 C       -0.685202        0.029972       -0.516549       -0.486577
   3 H        0.153566        0.004204       -0.037589       -0.033385
   4 H        0.153566        0.004204       -0.037589       -0.033385
   5 H        0.059348        0.030890        0.005974        0.036865
   6 H        0.059348        0.030890        0.005974        0.036865
   7 O       -0.328753        1.377295       -0.632619        0.744676
   8 H        0.273329        0.141093        0.080424        0.221517
  --------------------------------------------------------------------
  Sum:       -1.000000        1.648522       -1.648522        0.000000
  
  Multipole moment analysis of the density matrix
    Molecular charge:                      -1.000000
    Number of electrons:                   26.000000
      Center of electronic charge [Ang]: [  0.000000,   0.000000,   0.028859]
    Total nuclear charge:                  25.000000
      Center of nuclear charge [Ang]:    [  0.000000,   0.000000,  -0.000000]
    Dipole moment [D]:                     3.604038
      Cartesian components [D]:          [ -0.000000,  -0.000000,  -3.604038]
    RMS size of the density [Ang]:         1.897738
      Cartesian components [Ang]:        [  1.022942,   0.542908,   1.503413]
  
  Exciton analysis of the difference density matrix
    <r_h> [Ang]:                  [  0.000000,  -0.000000,  -1.497536]
    <r_e> [Ang]:                  [  0.000000,   0.000000,  -0.352329]
    |<r_e - r_h>| [Ang]:            1.145206
    Hole size [Ang]:                1.755109
      Cartesian components [Ang]: [  0.945711,   0.775166,   1.259030]
    Electron size [Ang]:            3.655600
      Cartesian components [Ang]: [  2.787189,   1.337188,   1.951132]

  Transition density matrix analysis:
  -----------------------------------
  
  CT numbers (Mulliken)
    omega =     0.8585
    <Phe> =    -0.0021
  
  Exciton analysis of the transition density matrix
    Trans. dipole moment [D]:             0.912964
      Cartesian components [D]:         [ -0.912964,  -0.000000,   0.000000]
    <r_h> [Ang]:                        [  0.000000,   0.000000,  -1.723775]
    <r_e> [Ang]:                        [  0.000000,   0.000000,   0.219211]
    |<r_e - r_h>| [Ang]:                  1.942986
    Hole size [Ang]:                      1.137630
      Cartesian components [Ang]:       [  0.821809,   0.470827,   0.630201]
    Electron size [Ang]:                  4.388671
      Cartesian components [Ang]:       [  3.506043,   1.599124,   2.100214]
    RMS electron-hole separation [Ang]:   4.925772
      Cartesian components [Ang]:       [  3.594321,   1.666613,   2.926856]
    Covariance(r_h, r_e) [Ang^2]:         0.033303
    Correlation coefficient:              0.006670
    Center-of-mass size [Ang]:            2.270531
      Cartesian components [Ang]:       [  1.803904,   0.833690,   1.098273]

  Decomposition into state-averaged NTOs
    H- 0 -> L+ 5:  0.4537 ( 41.2%)
    H- 0 -> L+ 4: -0.3370 ( 22.7%)
    H- 0 -> L+ 2: -0.2451 ( 12.0%)
    H- 0 -> L+ 1:  0.2169 (  9.4%)
                   omega =  85.8%
  ----------------------------------------------------------------------------


  Excited state 3 (singlet, B1)                                    [converged]
  ----------------------------------------------------------------------------
  Term symbol:  3 (1) B1                                    R^2 =  4.96141e-10

  Total energy:                                           -153.8616787064 a.u.
  Excitation energy:                                               2.942986 eV

  Osc. strength:                                                      0.000996
  Trans. dip. moment [a.u.]:           [   0.117525,   -0.000000,    0.000000]
  <i|r^2|0> [a.u.]:                    [  -0.000000,   -0.000000,    0.000000]

  Dip. moment [a.u.]:                  [  -0.000000,   -0.000000,   -2.901430]
  Total dipole [Debye]:                                               7.374701
  <r^2> [a.u.]:                        [  81.879576,   43.592064,  206.975138]
  Total <r^2> [a.u.]:                                               332.446779

  V1^2 = 0.8704, V2^2 = 0.1296

  Important amplitudes:
      occ i      occ j       vir a       vir b          v   
    ---------------------------------------------------------
     2 (B2) A               1 (A2) A                 -0.6336
     2 (B2) A               2 (A2) A                 -0.1661
    ---------------------------------------------------------

  Density matrix analysis:
  ------------------------
  NOs
    Occupation of frontier NOs:
       0.9658   0.9931
    Number of electrons: 26.000000
    Number of unpaired electrons: n_u =  2.74992, n_u,nl =  2.11454
    NO participation ratio (PR_NO):  3.878189
  
  
  Mulliken Population Analysis
  Atom      Charge (e)              h+              e-           Del q
  --------------------------------------------------------------------
   1 C       -0.684509        0.033754       -0.519637       -0.485884
   2 C       -0.684509        0.033754       -0.519637       -0.485884
   3 H        0.146767        0.005816       -0.046000       -0.040184
   4 H        0.146767        0.005816       -0.046000       -0.040184
   5 H        0.044831        0.023159       -0.000811        0.022348
   6 H        0.044831        0.023159       -0.000811        0.022348
   7 O       -0.174176        1.397173       -0.497920        0.899253
   8 H        0.159997        0.131274       -0.023088        0.108186
  --------------------------------------------------------------------
  Sum:       -1.000000        1.653905       -1.653905        0.000000
  
  Multipole moment analysis of the density matrix
    Molecular charge:                      -1.000000
    Number of electrons:                   26.000000
      Center of electronic charge [Ang]: [  0.000000,   0.000000,   0.059053]
    Total nuclear charge:                  25.000000
      Center of nuclear charge [Ang]:    [  0.000000,   0.000000,  -0.000000]
    Dipole moment [D]:                     7.374699
      Cartesian components [D]:          [ -0.000000,  -0.000000,  -7.374699]
    RMS size of the density [Ang]:         1.891315
      Cartesian components [Ang]:        [  0.939079,   0.685201,   1.491879]
  
  Exciton analysis of the difference density matrix
    <r_h> [Ang]:                  [  0.000000,   0.000000,  -1.525756]
    <r_e> [Ang]:                  [  0.000000,   0.000000,   0.090377]
    |<r_e - r_h>| [Ang]:            1.616132
    Hole size [Ang]:                1.694640
      Cartesian components [Ang]: [  0.823112,   0.861158,   1.205279]
    Electron size [Ang]:            3.603983
      Cartesian components [Ang]: [  2.223187,   2.161500,   1.836859]

  Transition density matrix analysis:
  -----------------------------------
  
  CT numbers (Mulliken)
    omega =     0.8530
    <Phe> =    -0.0001
  
  Exciton analysis of the transition density matrix
    Trans. dipole moment [D]:             0.149359
      Cartesian components [D]:         [  0.149359,  -0.000000,   0.000000]
    <r_h> [Ang]:                        [  0.000000,  -0.000000,  -1.741178]
    <r_e> [Ang]:                        [  0.000000,   0.000000,   1.023719]
    |<r_e - r_h>| [Ang]:                  2.764896
    Hole size [Ang]:                      1.096793
      Cartesian components [Ang]:       [  0.478677,   0.821085,   0.547398]
    Electron size [Ang]:                  4.198655
      Cartesian components [Ang]:       [  2.774229,   2.725667,   1.582118]
    RMS electron-hole separation [Ang]:   5.143934
      Cartesian components [Ang]:       [  2.815068,   2.843945,   3.232248]
    Covariance(r_h, r_e) [Ang^2]:         0.008125
    Correlation coefficient:              0.001764
    Center-of-mass size [Ang]:            2.170709
      Cartesian components [Ang]:       [  1.407688,   1.424681,   0.837065]

  Decomposition into state-averaged NTOs
    H- 2 -> L+ 0: -0.6494 ( 84.3%)
                   omega =  85.3%
  ----------------------------------------------------------------------------


  Excited state 4 (singlet, B1)                                    [converged]
  ----------------------------------------------------------------------------
  Term symbol:  4 (1) B1                                    R^2 =  4.82451e-09

  Total energy:                                           -153.8327248482 a.u.
  Excitation energy:                                               3.730860 eV

  Osc. strength:                                                      0.026032
  Trans. dip. moment [a.u.]:           [   0.533665,    0.000000,   -0.000000]
  <i|r^2|0> [a.u.]:                    [   0.000000,    0.000000,   -0.000000]

  Dip. moment [a.u.]:                  [   0.000000,    0.000000,    0.974851]
  Total dipole [Debye]:                                               2.477823
  <r^2> [a.u.]:                        [  67.004938,   28.357844,  225.665860]
  Total <r^2> [a.u.]:                                               321.028642

  V1^2 = 0.8888, V2^2 = 0.1112

  Important amplitudes:
      occ i      occ j       vir a       vir b          v   
    ---------------------------------------------------------
     4 (B1) A              10 (A1) A                 -0.4814
     4 (B1) A              11 (A1) A                  0.3746
    ---------------------------------------------------------

  Density matrix analysis:
  ------------------------
  NOs
    Occupation of frontier NOs:
       0.9656   0.9947
    Number of electrons: 26.000000
    Number of unpaired electrons: n_u =  2.72775, n_u,nl =  2.10600
    NO participation ratio (PR_NO):  3.815141
  
  
  Mulliken Population Analysis
  Atom      Charge (e)              h+              e-           Del q
  --------------------------------------------------------------------
   1 C       -0.510515        0.029225       -0.341115       -0.311890
   2 C       -0.510515        0.029225       -0.341115       -0.311890
   3 H        0.131998        0.000257       -0.055209       -0.054953
   4 H        0.131998        0.000257       -0.055209       -0.054953
   5 H        0.020441        0.023922       -0.025963       -0.002041
   6 H        0.020441        0.023922       -0.025963       -0.002041
   7 O       -1.025304        1.290865       -1.242739        0.048125
   8 H        0.741457        0.177776        0.511868        0.689645
  --------------------------------------------------------------------
  Sum:       -1.000000        1.575447       -1.575447        0.000000
  
  Multipole moment analysis of the density matrix
    Molecular charge:                      -1.000000
    Number of electrons:                   26.000000
      Center of electronic charge [Ang]: [ -0.000000,  -0.000000,  -0.019841]
    Total nuclear charge:                  25.000000
      Center of nuclear charge [Ang]:    [  0.000000,   0.000000,  -0.000000]
    Dipole moment [D]:                     2.477823
      Cartesian components [D]:          [  0.000000,   0.000000,   2.477823]
    RMS size of the density [Ang]:         1.859352
      Cartesian components [Ang]:        [  0.849509,   0.552651,   1.558878]
  
  Exciton analysis of the difference density matrix
    <r_h> [Ang]:                  [  0.000000,  -0.000000,  -1.529976]
    <r_e> [Ang]:                  [ -0.000000,  -0.000000,  -1.135365]
    |<r_e - r_h>| [Ang]:            0.394611
    Hole size [Ang]:                1.701465
      Cartesian components [Ang]: [  0.919504,   0.752630,   1.217802]
    Electron size [Ang]:            3.178468
      Cartesian components [Ang]: [  1.636777,   1.408853,   2.332114]

  Transition density matrix analysis:
  -----------------------------------
  
  CT numbers (Mulliken)
    omega =     0.8713
    <Phe> =    -0.0084
  
  Exciton analysis of the transition density matrix
    Trans. dipole moment [D]:             0.678221
      Cartesian components [D]:         [  0.678221,   0.000000,  -0.000000]
    <r_h> [Ang]:                        [  0.000000,   0.000000,  -1.728148]
    <r_e> [Ang]:                        [ -0.000000,  -0.000000,  -1.112019]
    |<r_e - r_h>| [Ang]:                  0.616130
    Hole size [Ang]:                      1.127353
      Cartesian components [Ang]:       [  0.819232,   0.467410,   0.617505]
    Electron size [Ang]:                  3.767203
      Cartesian components [Ang]:       [  1.941643,   1.666329,   2.764994]
    RMS electron-hole separation [Ang]:   3.968151
      Cartesian components [Ang]:       [  2.103434,   1.730235,   2.885841]
    Covariance(r_h, r_e) [Ang^2]:         0.048069
    Correlation coefficient:              0.011318
    Center-of-mass size [Ang]:            1.972238
      Cartesian components [Ang]:       [  1.055676,   0.865525,   1.423424]

  Decomposition into state-averaged NTOs
    H- 0 -> L+ 1: -0.5099 ( 52.0%)
    H- 0 -> L+ 4: -0.3340 ( 22.3%)
    H- 0 -> L+ 2:  0.2092 (  8.8%)
    H- 0 -> L+ 5:  0.1052 (  2.2%)
    H- 0 -> L+ 7: -0.0912 (  1.7%)
                   omega =  87.1%
  ----------------------------------------------------------------------------


  Excited state 5 (singlet, B1)                                    [converged]
  ----------------------------------------------------------------------------
  Term symbol:  5 (1) B1                                    R^2 =  2.59293e-09

  Total energy:                                           -153.7977842673 a.u.
  Excitation energy:                                               4.681642 eV

  Osc. strength:                                                      0.001693
  Trans. dip. moment [a.u.]:           [  -0.121481,   -0.000000,    0.000000]
  <i|r^2|0> [a.u.]:                    [  -0.000000,   -0.000000,    0.000000]

  Dip. moment [a.u.]:                  [  -0.000000,   -0.000000,   -2.889215]
  Total dipole [Debye]:                                               7.343654
  <r^2> [a.u.]:                        [  68.725589,   29.976855,  203.634827]
  Total <r^2> [a.u.]:                                               302.337271

  V1^2 = 0.8656, V2^2 = 0.1344

  Important amplitudes:
      occ i      occ j       vir a       vir b          v   
    ---------------------------------------------------------
     2 (B2) A               2 (A2) A                 -0.6208
     2 (B2) A               1 (A2) A                  0.1655
    ---------------------------------------------------------

  Density matrix analysis:
  ------------------------
  NOs
    Occupation of frontier NOs:
       0.9645   0.9946
    Number of electrons: 26.000000
    Number of unpaired electrons: n_u =  2.72321, n_u,nl =  2.10204
    NO participation ratio (PR_NO):  3.809166
  
  
  Mulliken Population Analysis
  Atom      Charge (e)              h+              e-           Del q
  --------------------------------------------------------------------
   1 C       -0.613608        0.103690       -0.518673       -0.414983
   2 C       -0.613608        0.103690       -0.518673       -0.414983
   3 H        0.117419        0.008369       -0.077900       -0.069532
   4 H        0.117419        0.008369       -0.077900       -0.069532
   5 H        0.002963        0.007288       -0.026809       -0.019520
   6 H        0.002963        0.007288       -0.026809       -0.019520
   7 O       -0.163060        1.362625       -0.452256        0.910369
   8 H        0.149513        0.118670       -0.020968        0.097701
  --------------------------------------------------------------------
  Sum:       -1.000000        1.719989       -1.719989        0.000000
  
  Multipole moment analysis of the density matrix
    Molecular charge:                      -1.000000
    Number of electrons:                   26.000000
      Center of electronic charge [Ang]: [  0.000000,   0.000000,   0.058804]
    Total nuclear charge:                  25.000000
      Center of nuclear charge [Ang]:    [  0.000000,   0.000000,  -0.000000]
    Dipole moment [D]:                     7.343652
      Cartesian components [D]:          [ -0.000000,  -0.000000,  -7.343652]
    RMS size of the density [Ang]:         1.803556
      Cartesian components [Ang]:        [  0.860347,   0.568208,   1.479782]
  
  Exciton analysis of the difference density matrix
    <r_h> [Ang]:                  [  0.000000,  -0.000000,  -1.364557]
    <r_e> [Ang]:                  [  0.000000,   0.000000,   0.185723]
    |<r_e - r_h>| [Ang]:            1.550281
    Hole size [Ang]:                1.712348
      Cartesian components [Ang]: [  0.796907,   0.830821,   1.267600]
    Electron size [Ang]:            2.712035
      Cartesian components [Ang]: [  1.610795,   1.501023,   1.583477]

  Transition density matrix analysis:
  -----------------------------------
  
  CT numbers (Mulliken)
    omega =     0.8389
    <Phe> =    -0.0010
  
  Exciton analysis of the transition density matrix
    Trans. dipole moment [D]:             0.154386
      Cartesian components [D]:         [ -0.154386,  -0.000000,   0.000000]
    <r_h> [Ang]:                        [  0.000000,  -0.000000,  -1.739811]
    <r_e> [Ang]:                        [  0.000000,   0.000000,   1.023979]
    |<r_e - r_h>| [Ang]:                  2.763789
    Hole size [Ang]:                      1.094314
      Cartesian components [Ang]:       [  0.476006,   0.819709,   0.546827]
    Electron size [Ang]:                  2.913084
      Cartesian components [Ang]:       [  1.945236,   1.871865,   1.094640]
    RMS electron-hole separation [Ang]:   4.160543
      Cartesian components [Ang]:       [  2.002028,   2.041179,   3.022513]
    Covariance(r_h, r_e) [Ang^2]:         0.005998
    Correlation coefficient:              0.001882
    Center-of-mass size [Ang]:            1.556886
      Cartesian components [Ang]:       [  1.001615,   1.022887,   0.611853]

  Decomposition into state-averaged NTOs
    H- 2 -> L+ 8:  0.6455 ( 83.3%)
                   omega =  83.9%
  ----------------------------------------------------------------------------


  Excited state 6 (singlet, B1)                                    [converged]
  ----------------------------------------------------------------------------
  Term symbol:  6 (1) B1                                    R^2 =  1.02694e-08

  Total energy:                                           -153.7907110532 a.u.
  Excitation energy:                                               4.874114 eV

  Osc. strength:                                                      0.002105
  Trans. dip. moment [a.u.]:           [  -0.132780,   -0.000000,    0.000000]
  <i|r^2|0> [a.u.]:                    [  -0.000000,   -0.000000,    0.000000]

  Dip. moment [a.u.]:                  [  -0.000000,    0.000000,   -0.654760]
  Total dipole [Debye]:                                               1.664234
  <r^2> [a.u.]:                        [  65.540515,   32.225367,  216.871661]
  Total <r^2> [a.u.]:                                               314.637543

  V1^2 = 0.8839, V2^2 = 0.1161

  Important amplitudes:
      occ i      occ j       vir a       vir b          v   
    ---------------------------------------------------------
     4 (B1) A              11 (A1) A                 -0.5150
     4 (B1) A              10 (A1) A                 -0.3924
    ---------------------------------------------------------

  Density matrix analysis:
  ------------------------
  NOs
    Occupation of frontier NOs:
       0.9660   0.9942
    Number of electrons: 26.000000
    Number of unpaired electrons: n_u =  2.73527, n_u,nl =  2.10809
    NO participation ratio (PR_NO):  3.835525
  
  
  Mulliken Population Analysis
  Atom      Charge (e)              h+              e-           Del q
  --------------------------------------------------------------------
   1 C       -0.562549        0.046569       -0.410494       -0.363924
   2 C       -0.562549        0.046569       -0.410494       -0.363924
   3 H        0.232790        0.003547        0.042292        0.045839
   4 H        0.232790        0.003547        0.042292        0.045839
   5 H        0.173054        0.018397        0.132174        0.150571
   6 H        0.173054        0.018397        0.132174        0.150571
   7 O       -1.116220        1.299525       -1.342316       -0.042791
   8 H        0.429632        0.157508        0.220312        0.377820
  --------------------------------------------------------------------
  Sum:       -1.000000        1.594058       -1.594058        0.000000
  
  Multipole moment analysis of the density matrix
    Molecular charge:                      -1.000000
    Number of electrons:                   26.000000
      Center of electronic charge [Ang]: [  0.000000,  -0.000000,   0.013326]
    Total nuclear charge:                  25.000000
      Center of nuclear charge [Ang]:    [  0.000000,   0.000000,  -0.000000]
    Dipole moment [D]:                     1.664234
      Cartesian components [D]:          [ -0.000000,   0.000000,  -1.664234]
    RMS size of the density [Ang]:         1.840807
      Cartesian components [Ang]:        [  0.840174,   0.589133,   1.528267]
  
  Exciton analysis of the difference density matrix
    <r_h> [Ang]:                  [  0.000000,  -0.000000,  -1.508326]
    <r_e> [Ang]:                  [  0.000000,  -0.000000,  -0.577343]
    |<r_e - r_h>| [Ang]:            0.930984
    Hole size [Ang]:                1.695708
      Cartesian components [Ang]: [  0.914651,   0.757260,   1.210536]
    Electron size [Ang]:            3.127052
      Cartesian components [Ang]: [  1.546439,   1.629327,   2.175380]

  Transition density matrix analysis:
  -----------------------------------
  
  CT numbers (Mulliken)
    omega =     0.8664
    <Phe> =    -0.0025
  
  Exciton analysis of the transition density matrix
    Trans. dipole moment [D]:             0.168746
      Cartesian components [D]:         [ -0.168746,  -0.000000,   0.000000]
    <r_h> [Ang]:                        [  0.000000,   0.000000,  -1.723480]
    <r_e> [Ang]:                        [  0.000000,  -0.000000,  -0.211837]
    |<r_e - r_h>| [Ang]:                  1.511643
    Hole size [Ang]:                      1.134218
      Cartesian components [Ang]:       [  0.819827,   0.467578,   0.629051]
    Electron size [Ang]:                  3.678409
      Cartesian components [Ang]:       [  1.835442,   1.965370,   2.509814]
    RMS electron-hole separation [Ang]:   4.126553
      Cartesian components [Ang]:       [  2.005866,   2.019712,   2.987592]
    Covariance(r_h, r_e) [Ang^2]:         0.036881
    Correlation coefficient:              0.008840
    Center-of-mass size [Ang]:            1.929437
      Cartesian components [Ang]:       [  1.007277,   1.010369,   1.298951]

  Decomposition into state-averaged NTOs
    H- 0 -> L+ 2:  0.5284 ( 55.9%)
    H- 0 -> L+ 1:  0.3323 ( 22.1%)
    H- 0 -> L+ 7: -0.1705 (  5.8%)
    H- 0 -> L+ 4: -0.0954 (  1.8%)
                   omega =  86.6%
  ----------------------------------------------------------------------------


  Excited state 7 (singlet, B1)                                    [converged]
  ----------------------------------------------------------------------------
  Term symbol:  7 (1) B1                                    R^2 =  1.74786e-07

  Total energy:                                           -153.7372391249 a.u.
  Excitation energy:                                               6.329159 eV

  Osc. strength:                                                      0.000790
  Trans. dip. moment [a.u.]:           [  -0.071395,    0.000000,    0.000000]
  <i|r^2|0> [a.u.]:                    [   0.000000,    0.000000,    0.000000]

  Dip. moment [a.u.]:                  [   0.000000,   -0.000000,   -3.646566]
  Total dipole [Debye]:                                               9.268649
  <r^2> [a.u.]:                        [ 102.213767,   30.500504,  213.293852]
  Total <r^2> [a.u.]:                                               346.008123

  V1^2 = 0.8722, V2^2 = 0.1278

  Important amplitudes:
      occ i      occ j       vir a       vir b          v   
    ---------------------------------------------------------
     7 (A1) A               5 (B1) A                 -0.6232
     7 (A1) A               6 (B1) A                  0.1993
    ---------------------------------------------------------

  Density matrix analysis:
  ------------------------
  NOs
    Occupation of frontier NOs:
       0.9810   0.9977
    Number of electrons: 26.000000
    Number of unpaired electrons: n_u =  2.80088, n_u,nl =  2.12957
    NO participation ratio (PR_NO):  3.937674
  
  
  Mulliken Population Analysis
  Atom      Charge (e)              h+              e-           Del q
  --------------------------------------------------------------------
   1 C       -0.663238        0.055365       -0.519977       -0.464613
   2 C       -0.663238        0.055365       -0.519977       -0.464613
   3 H        0.146729        0.008070       -0.048292       -0.040222
   4 H        0.146729        0.008070       -0.048292       -0.040222
   5 H        0.041768        0.046207       -0.026921        0.019285
   6 H        0.041768        0.046207       -0.026921        0.019285
   7 O       -0.377830        1.192556       -0.496957        0.695599
   8 H        0.327311        0.291801       -0.016302        0.275499
  --------------------------------------------------------------------
  Sum:       -1.000000        1.703639       -1.703639       -0.000000
  
  Multipole moment analysis of the density matrix
    Molecular charge:                      -1.000000
    Number of electrons:                   26.000000
      Center of electronic charge [Ang]: [ -0.000000,   0.000000,   0.074218]
    Total nuclear charge:                  25.000000
      Center of nuclear charge [Ang]:    [  0.000000,   0.000000,  -0.000000]
    Dipole moment [D]:                     9.268646
      Cartesian components [D]:          [  0.000000,  -0.000000,  -9.268646]
    RMS size of the density [Ang]:         1.929019
      Cartesian components [Ang]:        [  1.049226,   0.573150,   1.513848]
  
  Exciton analysis of the difference density matrix
    <r_h> [Ang]:                  [  0.000000,  -0.000000,  -1.352039]
    <r_e> [Ang]:                  [  0.000000,   0.000000,   0.448365]
    |<r_e - r_h>| [Ang]:            1.800403
    Hole size [Ang]:                1.850239
      Cartesian components [Ang]: [  0.855931,   0.762835,   1.452188]
    Electron size [Ang]:            3.853434
      Cartesian components [Ang]: [  2.866270,   1.498597,   2.094674]

  Transition density matrix analysis:
  -----------------------------------
  
  CT numbers (Mulliken)
    omega =     0.8549
    <Phe> =    -0.0000
  
  Exciton analysis of the transition density matrix
    Trans. dipole moment [D]:             0.090734
      Cartesian components [D]:         [ -0.090734,   0.000000,   0.000000]
    <r_h> [Ang]:                        [  0.000000,  -0.000000,  -1.686178]
    <r_e> [Ang]:                        [ -0.000000,   0.000000,   1.522645]
    |<r_e - r_h>| [Ang]:                  3.208824
    Hole size [Ang]:                      1.174963
      Cartesian components [Ang]:       [  0.463971,   0.405677,   1.000347]
    Electron size [Ang]:                  4.499732
      Cartesian components [Ang]:       [  3.667174,   1.846714,   1.840942]
    RMS electron-hole separation [Ang]:   5.643796
      Cartesian components [Ang]:       [  3.692678,   1.891189,   3.826221]
    Covariance(r_h, r_e) [Ang^2]:         0.036117
    Correlation coefficient:              0.006831
    Center-of-mass size [Ang]:            2.329182
      Cartesian components [Ang]:       [  1.850068,   0.945153,   1.053103]

  Decomposition into state-averaged NTOs
    H- 1 -> L+ 6: -0.5236 ( 54.8%)
    H- 1 -> L+ 3: -0.3910 ( 30.6%)
                   omega =  85.5%
  ----------------------------------------------------------------------------


  Excited state 8 (singlet, B1)                                    [converged]
  ----------------------------------------------------------------------------
  Term symbol:  8 (1) B1                                    R^2 =  8.69251e-08

  Total energy:                                           -153.7141615066 a.u.
  Excitation energy:                                               6.957133 eV

  Osc. strength:                                                      0.162610
  Trans. dip. moment [a.u.]:           [   0.976741,   -0.000000,   -0.000000]
  <i|r^2|0> [a.u.]:                    [   0.000000,    0.000000,   -0.000000]

  Dip. moment [a.u.]:                  [  -0.000000,   -0.000000,    2.036846]
  Total dipole [Debye]:                                               5.177147
  <r^2> [a.u.]:                        [  77.049053,   40.438165,  213.634780]
  Total <r^2> [a.u.]:                                               331.121999

  V1^2 = 0.9477, V2^2 = 0.0523

  Important amplitudes:
      occ i      occ j       vir a       vir b          v   
    ---------------------------------------------------------
     1 (B2) A               1 (A2) A                 -0.6392
     1 (B2) A               2 (A2) A                 -0.2316
    ---------------------------------------------------------

  Density matrix analysis:
  ------------------------
  NOs
    Occupation of frontier NOs:
       0.9797   0.9970
    Number of electrons: 26.000000
    Number of unpaired electrons: n_u =  2.63669, n_u,nl =  2.07110
    NO participation ratio (PR_NO):  3.524726
  
  
  Mulliken Population Analysis
  Atom      Charge (e)              h+              e-           Del q
  --------------------------------------------------------------------
   1 C       -0.355267        0.528809       -0.685452       -0.156642
   2 C       -0.355267        0.528809       -0.685452       -0.156642
   3 H        0.251251        0.071579       -0.007279        0.064300
   4 H        0.251251        0.071579       -0.007279        0.064300
   5 H        0.111970        0.095876       -0.006389        0.089487
   6 H        0.111970        0.095876       -0.006389        0.089487
   7 O       -1.084258        0.048716       -0.059544       -0.010828
   8 H        0.068349        0.020634       -0.004097        0.016537
  --------------------------------------------------------------------
  Sum:       -1.000000        1.461881       -1.461881       -0.000000
  
  Multipole moment analysis of the density matrix
    Molecular charge:                      -1.000000
    Number of electrons:                   26.000000
      Center of electronic charge [Ang]: [  0.000000,   0.000000,  -0.041456]
    Total nuclear charge:                  25.000000
      Center of nuclear charge [Ang]:    [  0.000000,   0.000000,  -0.000000]
    Dipole moment [D]:                     5.177145
      Cartesian components [D]:          [ -0.000000,  -0.000000,   5.177145]
    RMS size of the density [Ang]:         1.888008
      Cartesian components [Ang]:        [  0.910957,   0.659949,   1.516311]
  
  Exciton analysis of the difference density matrix
    <r_h> [Ang]:                  [  0.000000,  -0.000000,   0.874795]
    <r_e> [Ang]:                  [  0.000000,   0.000000,   0.915636]
    |<r_e - r_h>| [Ang]:            0.040842
    Hole size [Ang]:                1.796620
      Cartesian components [Ang]: [  1.060613,   0.912177,   1.127331]
    Electron size [Ang]:            3.423779
      Cartesian components [Ang]: [  2.241624,   2.162106,   1.422212]

  Transition density matrix analysis:
  -----------------------------------
  
  CT numbers (Mulliken)
    omega =     0.9199
    <Phe> =    -0.0345
  
  Exciton analysis of the transition density matrix
    Trans. dipole moment [D]:             1.241314
      Cartesian components [D]:         [  1.241314,  -0.000000,  -0.000000]
    <r_h> [Ang]:                        [  0.000000,   0.000000,   1.010127]
    <r_e> [Ang]:                        [  0.000000,   0.000000,   1.027672]
    |<r_e - r_h>| [Ang]:                  0.017545
    Hole size [Ang]:                      1.317913
      Cartesian components [Ang]:       [  0.770742,   0.887317,   0.596255]
    Electron size [Ang]:                  3.959213
      Cartesian components [Ang]:       [  2.615737,   2.567406,   1.497236]
    RMS electron-hole separation [Ang]:   4.166389
      Cartesian components [Ang]:       [  2.733870,   2.706081,   1.600587]
    Covariance(r_h, r_e) [Ang^2]:         0.026888
    Correlation coefficient:              0.005153
    Center-of-mass size [Ang]:            2.089620
      Cartesian components [Ang]:       [  1.359982,   1.363354,   0.811311]

  Decomposition into state-averaged NTOs
    H- 3 -> L+ 0: -0.6721 ( 90.3%)
                   omega =  92.0%
  ----------------------------------------------------------------------------


  Excited state 9 (singlet, B1)                                    [converged]
  ----------------------------------------------------------------------------
  Term symbol:  9 (1) B1                                    R^2 =  3.12240e-06

  Total energy:                                           -153.7051539645 a.u.
  Excitation energy:                                               7.202240 eV

  Osc. strength:                                                      0.002621
  Trans. dip. moment [a.u.]:           [   0.121873,    0.000000,   -0.000000]
  <i|r^2|0> [a.u.]:                    [   0.000000,    0.000000,    0.000000]

  Dip. moment [a.u.]:                  [  -0.000000,   -0.000000,   -2.271941]
  Total dipole [Debye]:                                               5.774700
  <r^2> [a.u.]:                        [  91.974971,   30.138793,  227.676203]
  Total <r^2> [a.u.]:                                               349.789967

  V1^2 = 0.8769, V2^2 = 0.1231

  Important amplitudes:
      occ i      occ j       vir a       vir b          v   
    ---------------------------------------------------------
     7 (A1) A               6 (B1) A                 -0.6249
     7 (A1) A               5 (B1) A                 -0.1968
    ---------------------------------------------------------

  Density matrix analysis:
  ------------------------
  NOs
    Occupation of frontier NOs:
       0.9836   0.9980
    Number of electrons: 26.000000
    Number of unpaired electrons: n_u =  2.79592, n_u,nl =  2.12690
    NO participation ratio (PR_NO):  3.913828
  
  
  Mulliken Population Analysis
  Atom      Charge (e)              h+              e-           Del q
  --------------------------------------------------------------------
   1 C       -0.652715        0.046711       -0.500801       -0.454090
   2 C       -0.652715        0.046711       -0.500801       -0.454090
   3 H        0.116283        0.001466       -0.072134       -0.070667
   4 H        0.116283        0.001466       -0.072134       -0.070667
   5 H        0.026615        0.042910       -0.038778        0.004132
   6 H        0.026615        0.042910       -0.038778        0.004132
   7 O       -0.310357        1.203145       -0.440073        0.763072
   8 H        0.329990        0.294630       -0.016452        0.278178
  --------------------------------------------------------------------
  Sum:       -1.000000        1.679950       -1.679950        0.000000
  
  Multipole moment analysis of the density matrix
    Molecular charge:                      -1.000000
    Number of electrons:                   26.000000
      Center of electronic charge [Ang]: [  0.000000,   0.000000,   0.046241]
    Total nuclear charge:                  25.000000
      Center of nuclear charge [Ang]:    [  0.000000,   0.000000,  -0.000000]
    Dipole moment [D]:                     5.774698
      Cartesian components [D]:          [ -0.000000,  -0.000000,  -5.774698]
    RMS size of the density [Ang]:         1.940416
      Cartesian components [Ang]:        [  0.995289,   0.569741,   1.565250]
  
  Exciton analysis of the difference density matrix
    <r_h> [Ang]:                  [  0.000000,  -0.000000,  -1.369669]
    <r_e> [Ang]:                  [  0.000000,   0.000000,   0.023121]
    |<r_e - r_h>| [Ang]:            1.392790
    Hole size [Ang]:                1.851489
      Cartesian components [Ang]: [  0.841541,   0.765212,   1.460914]
    Electron size [Ang]:            3.983796
      Cartesian components [Ang]: [  2.567081,   1.487479,   2.658595]

  Transition density matrix analysis:
  -----------------------------------
  
  CT numbers (Mulliken)
    omega =     0.8593
    <Phe> =    -0.0002
  
  Exciton analysis of the transition density matrix
    Trans. dipole moment [D]:             0.154885
      Cartesian components [D]:         [  0.154885,   0.000000,  -0.000000]
    <r_h> [Ang]:                        [  0.000000,  -0.000000,  -1.705749]
    <r_e> [Ang]:                        [  0.000000,   0.000000,   0.746605]
    |<r_e - r_h>| [Ang]:                  2.452354
    Hole size [Ang]:                      1.154630
      Cartesian components [Ang]:       [  0.456902,   0.406350,   0.979434]
    Electron size [Ang]:                  4.798743
      Cartesian components [Ang]:       [  3.247476,   1.817964,   3.029330]
    RMS electron-hole separation [Ang]:   5.501503
      Cartesian components [Ang]:       [  3.279558,   1.862875,   4.005088]
    Covariance(r_h, r_e) [Ang^2]:         0.054307
    Correlation coefficient:              0.009801
    Center-of-mass size [Ang]:            2.473344
      Cartesian components [Ang]:       [  1.639682,   0.931387,   1.600435]

  Decomposition into state-averaged NTOs
    H- 1 -> L+ 3:  0.5269 ( 55.5%)
    H- 1 -> L+ 6: -0.3876 ( 30.0%)
                   omega =  85.9%
  ----------------------------------------------------------------------------


  Excited state 10 (singlet, B1)                                    [converged]
  ----------------------------------------------------------------------------
  Term symbol:  10 (1) B1                                   R^2 =  3.15985e-06

  Total energy:                                           -153.7037907923 a.u.
  Excitation energy:                                               7.239334 eV

  Osc. strength:                                                      0.011514
  Trans. dip. moment [a.u.]:           [  -0.254787,   -0.000000,   -0.000000]
  <i|r^2|0> [a.u.]:                    [   0.000000,    0.000000,   -0.000000]

  Dip. moment [a.u.]:                  [  -0.000000,   -0.000000,   -4.739208]
  Total dipole [Debye]:                                              12.045868
  <r^2> [a.u.]:                        [  61.222581,   26.439542,  223.285376]
  Total <r^2> [a.u.]:                                               310.947499

  V1^2 = 0.8684, V2^2 = 0.1316

  Important amplitudes:
      occ i      occ j       vir a       vir b          v   
    ---------------------------------------------------------
     4 (B1) A              12 (A1) A                  0.6344
     4 (B1) A              13 (A1) A                 -0.1169
    ---------------------------------------------------------

  Density matrix analysis:
  ------------------------
  NOs
    Occupation of frontier NOs:
       0.9729   0.9828
    Number of electrons: 26.000000
    Number of unpaired electrons: n_u =  2.76860, n_u,nl =  2.11880
    NO participation ratio (PR_NO):  3.942450
  
  
  Mulliken Population Analysis
  Atom      Charge (e)              h+              e-           Del q
  --------------------------------------------------------------------
   1 C       -0.637586        0.077325       -0.516286       -0.438961
   2 C       -0.637586        0.077325       -0.516286       -0.438961
   3 H        0.147443       -0.000325       -0.039182       -0.039507
   4 H        0.147443       -0.000325       -0.039182       -0.039507
   5 H       -0.023267        0.038946       -0.084696       -0.045750
   6 H       -0.023267        0.038946       -0.084696       -0.045750
   7 O       -0.125242        1.346567       -0.398380        0.948187
   8 H        0.152063        0.122498       -0.022247        0.100251
  --------------------------------------------------------------------
  Sum:       -1.000000        1.700955       -1.700955        0.000000
  
  Multipole moment analysis of the density matrix
    Molecular charge:                      -1.000000
    Number of electrons:                   26.000000
      Center of electronic charge [Ang]: [  0.000000,   0.000000,   0.096457]
    Total nuclear charge:                  25.000000
      Center of nuclear charge [Ang]:    [  0.000000,   0.000000,  -0.000000]
    Dipole moment [D]:                     12.045865
      Cartesian components [D]:          [ -0.000000,  -0.000000, -12.045865]
    RMS size of the density [Ang]:         1.827485
      Cartesian components [Ang]:        [  0.812027,   0.533631,   1.547757]
  
  Exciton analysis of the difference density matrix
    <r_h> [Ang]:                  [  0.000000,   0.000000,  -1.330976]
    <r_e> [Ang]:                  [  0.000000,   0.000000,   0.812197]
    |<r_e - r_h>| [Ang]:            2.143172
    Hole size [Ang]:                1.803260
      Cartesian components [Ang]: [  0.900766,   0.733639,   1.379182]
    Electron size [Ang]:            2.899242
      Cartesian components [Ang]: [  1.248074,   1.239424,   2.304722]

  Transition density matrix analysis:
  -----------------------------------
  
  CT numbers (Mulliken)
    omega =     0.8504
    <Phe> =    -0.0007
  
  Exciton analysis of the transition density matrix
    Trans. dipole moment [D]:             0.323802
      Cartesian components [D]:         [ -0.323802,  -0.000000,  -0.000000]
    <r_h> [Ang]:                        [  0.000000,   0.000000,  -1.672875]
    <r_e> [Ang]:                        [  0.000000,   0.000000,   2.152084]
    |<r_e - r_h>| [Ang]:                  3.824959
    Hole size [Ang]:                      1.204207
      Cartesian components [Ang]:       [  0.824566,   0.467774,   0.742558]
    Electron size [Ang]:                  2.805666
      Cartesian components [Ang]:       [  1.447650,   1.493021,   1.883337]
    RMS electron-hole separation [Ang]:   4.890619
      Cartesian components [Ang]:       [  1.658515,   1.564404,   4.326676]
    Covariance(r_h, r_e) [Ang^2]:         0.017017
    Correlation coefficient:              0.005037
    Center-of-mass size [Ang]:            1.529372
      Cartesian components [Ang]:       [  0.836739,   0.782383,   1.013273]

  Decomposition into state-averaged NTOs
    H- 0 -> L+ 7:  0.6171 ( 76.2%)
    H- 0 -> L+ 2:  0.1910 (  7.3%)
                   omega =  85.0%
  ----------------------------------------------------------------------------


--------------------------------------------------------------------------------
  Time of ADC calculation:  CPU 261.41 s  wall 71.10 s
================================================================================
 
 --------------------------------------------------------------
             Orbital Energies (a.u.) and Symmetries
 --------------------------------------------------------------
 
 Alpha MOs, Restricted
 -- Occupied --                  
-20.213 -11.049 -11.047  -0.930  -0.854  -0.598  -0.473  -0.384
  1 A1    2 A1    1 B1    3 A1    4 A1    2 B1    5 A1    6 A1                 
 -0.328  -0.271  -0.194  -0.130  -0.129
  3 B1    7 A1    1 B2    4 B1    2 B2                                         
 -- Virtual --                   
  0.160   0.170   0.188   0.191   0.196   0.206   0.279   0.318
  5 B1    8 A1    3 B2    9 A1    1 A2    6 B1   10 A1    2 A2                 
  0.325   0.325   0.387   0.410   0.419   0.423   0.429   0.458
 11 A1    7 B1   12 A1    8 B1    4 B2   13 A1    9 B1    5 B2                 
  0.486   0.512   0.514   0.547   0.554   0.577   0.690   0.716
 10 B1    3 A2   14 A1   15 A1   11 B1   16 A1   17 A1   12 B1                 
  0.771   0.951   1.038   1.061   1.091   1.125   1.163   1.209
 13 B1   18 A1   19 A1   20 A1   21 A1   14 B1    6 B2    7 B2                 
  1.217   1.230   1.231   1.245   1.291   1.329   1.332   1.339
  4 A2   22 A1   15 B1   16 B1    5 A2   23 A1   17 B1   24 A1                 
  1.370   1.461   1.470   1.483   1.587   1.652   1.706   1.719
  8 B2   18 B1    9 B2    6 A2   19 B1   25 A1   20 B1   10 B2                 
  1.866   1.928   2.013   2.053   2.125   2.129   2.154   2.212
 26 A1   21 B1   27 A1    7 A2   28 A1   11 B2   22 B1   12 B2                 
  2.232   2.318   2.363   2.394   2.436   2.522   2.569   2.604
 29 A1   30 A1    8 A2   13 B2   23 B1   24 B1   31 A1    9 A2                 
  2.764   2.778   2.851   3.021   3.037   3.105   3.441   3.562
 32 A1   25 B1   26 B1   33 A1   34 A1   35 A1   27 B1   28 B1                 
  3.922   3.946   3.971   4.090   4.543
 14 B2   10 A2   36 A1   29 B1   37 A1                                         
 
 Beta MOs, Restricted
 -- Occupied --                  
-20.213 -11.049 -11.047  -0.930  -0.854  -0.598  -0.473  -0.384
  1 A1    2 A1    1 B1    3 A1    4 A1    2 B1    5 A1    6 A1                 
 -0.328  -0.271  -0.194  -0.130  -0.129
  3 B1    7 A1    1 B2    4 B1    2 B2                                         
 -- Virtual --                   
  0.160   0.170   0.188   0.191   0.196   0.206   0.279   0.318
  5 B1    8 A1    3 B2    9 A1    1 A2    6 B1   10 A1    2 A2                 
  0.325   0.325   0.387   0.410   0.419   0.423   0.429   0.458
 11 A1    7 B1   12 A1    8 B1    4 B2   13 A1    9 B1    5 B2                 
  0.486   0.512   0.514   0.547   0.554   0.577   0.690   0.716
 10 B1    3 A2   14 A1   15 A1   11 B1   16 A1   17 A1   12 B1                 
  0.771   0.951   1.038   1.061   1.091   1.125   1.163   1.209
 13 B1   18 A1   19 A1   20 A1   21 A1   14 B1    6 B2    7 B2                 
  1.217   1.230   1.231   1.245   1.291   1.329   1.332   1.339
  4 A2   22 A1   15 B1   16 B1    5 A2   23 A1   17 B1   24 A1                 
  1.370   1.461   1.470   1.483   1.587   1.652   1.706   1.719
  8 B2   18 B1    9 B2    6 A2   19 B1   25 A1   20 B1   10 B2                 
  1.866   1.928   2.013   2.053   2.125   2.129   2.154   2.212
 26 A1   21 B1   27 A1    7 A2   28 A1   11 B2   22 B1   12 B2                 
  2.232   2.318   2.363   2.394   2.436   2.522   2.569   2.604
 29 A1   30 A1    8 A2   13 B2   23 B1   24 B1   31 A1    9 A2                 
  2.764   2.778   2.851   3.021   3.037   3.105   3.441   3.562
 32 A1   25 B1   26 B1   33 A1   34 A1   35 A1   27 B1   28 B1                 
  3.922   3.946   3.971   4.090   4.543
 14 B2   10 A2   36 A1   29 B1   37 A1                                         
 --------------------------------------------------------------
 
          Ground-State Mulliken Net Atomic Charges

     Atom                 Charge (a.u.)
  ----------------------------------------
      1 C                    -0.196648
      2 C                    -0.196648
      3 H                     0.183046
      4 H                     0.183046
      5 H                     0.015864
      6 H                     0.015864
      7 O                    -1.072971
      8 H                     0.068449
  ----------------------------------------
  Sum of atomic charges =    -1.000000

 -----------------------------------------------------------------
                    Cartesian Multipole Moments
 -----------------------------------------------------------------
    Charge (ESU x 10^10)
                -4.8032
    Dipole Moment (Debye)
         X      -0.0000      Y       0.0000      Z       5.2884
       Tot       5.2884
    Quadrupole Moments (Debye-Ang)
        XX     -23.6677     XY       0.0000     YY     -26.4976
        XZ      -0.0000     YZ      -0.0000     ZZ     -32.8957
    Octopole Moments (Debye-Ang^2)
       XXX      -0.0000    XXY      -0.0000    XYY       0.0000
       YYY       0.0000    XXZ       1.0596    XYZ       0.0000
       YYZ      -0.0972    XZZ      -0.0000    YZZ      -0.0000
       ZZZ       6.4105
    Hexadecapole Moments (Debye-Ang^3)
      XXXX     -87.9381   XXXY      -0.0000   XXYY     -21.7781
      XYYY       0.0000   YYYY     -39.9867   XXXZ       0.0000
      XXYZ      -0.0000   XYYZ       0.0000   YYYZ      -0.0000
      XXZZ     -70.5498   XYZZ       0.0000   YYZZ     -65.3579
      XZZZ       0.0000   YZZZ      -0.0000   ZZZZ    -292.8244
 -----------------------------------------------------------------
 Total job time:  179.88s(wall), 310.34s(cpu) 
 Wed Mar  2 17:28:58 2022

        *************************************************************
        *                                                           *
        *  Thank you very much for using Q-Chem.  Have a nice day.  *
        *                                                           *
        *************************************************************


