/src/tsommerfeld/qchem/exe/qcprog.exe .input1.739394.25905.qcin.1 /src/jdavis/qchem.scratch/qchem25905/

                  Welcome to Q-Chem
     A Quantum Leap Into The Future Of Chemistry


 Q-Chem 5.4 (devel), Q-Chem, Inc., Pleasanton, CA (2021)

 E. Epifanovsky,  A. T. B. Gilbert,  Xintian Feng,  Joonho Lee,  Yuezhi Mao,  
 N. Mardirossian,  P. Pokhilko,  A. White,  M. Wormit,  M. P. Coons,  
 A. L. Dempwolff,  Zhengting Gan,  D. Hait,  P. R. Horn,  L. D. Jacobson,  
 I. Kaliman,  J. Kussmann,  A. W. Lange,  Ka Un Lao,  D. S. Levine,  Jie Liu,  
 S. C. McKenzie,  A. F. Morrison,  K. Nanda,  F. Plasser,  D. R. Rehn,  
 M. L. Vidal,  Zhi-Qiang You,  Ying Zhu,  B. Alam,  B. Albrecht,  
 A. Aldossary,  E. Alguire,  J. H. Andersen,  D. Barton,  K. Begam,  A. Behn,  
 Y. A. Bernard,  E. J. Berquist,  H. Burton,  A. Carreras,  K. Carter-Fenk,  
 R. Chakraborty,  A. D. Chien,  K. D. Closser,  V. Cofer-Shabica,  
 S. Dasgupta,  Jia Deng,  M. de Wergifosse,  M. Diedenhofen,  Hainam Do,  
 S. Ehlert,  Po-Tung Fang,  S. Fatehi,  Qingguo Feng,  T. Friedhoff,  
 J. Gayvert,  Qinghui Ge,  G. Gidofalvi,  M. Goldey,  J. Gomes,  
 C. Gonzalez-Espinoza,  S. Gulania,  A. Gunina,  M. W. D. Hanson-Heine,  
 P. H. P. Harbach,  A. W. Hauser,  M. F. Herbst,  M. Hernandez Vera,  
 M. Hodecker,  Z. C. Holden,  S. Houck,  Xunkun Huang,  Kerwin Hui,  
 B. C. Huynh,  M. Ivanov,  Hyunjun Ji,  Hanjie Jiang,  B. Kaduk,  S. Kaehler,  
 K. Khistyaev,  Jaehoon Kim,  P. Klunzinger,  Z. Koczor-Benda,  
 Joong Hoon Koh,  D. Kosenkov,  L. Koulias,  T. Kowalczyk,  C. M. Krauter,  
 K. Kue,  A. Kunitsa,  T. Kus,  A. Landau,  K. V. Lawler,  D. Lefrancois,  
 S. Lehtola,  Rain Li,  Yi-Pei Li,  Jiashu Liang,  M. Liebenthal,  
 Hung-Hsuan Lin,  You-Sheng Lin,  Fenglai Liu,  Kuan-Yu Liu,  
 M. Loipersberger,  A. Luenser,  A. Manjanath,  P. Manohar,  E. Mansoor,  
 S. F. Manzer,  Shan-Ping Mao,  A. V. Marenich,  T. Markovich,  S. Mason,  
 S. A. Maurer,  P. F. McLaughlin,  M. F. S. J. Menger,  J.-M. Mewes,  
 S. A. Mewes,  P. Morgante,  J. W. Mullinax,  K. J. Oosterbaan,  G. Paran,  
 Alexander C. Paul,  Suranjan K. Paul,  F. Pavosevic,  Zheng Pei,  S. Prager,  
 E. I. Proynov,  E. Ramos,  B. Rana,  A. E. Rask,  A. Rettig,  R. M. Richard,  
 F. Rob,  E. Rossomme,  T. Scheele,  M. Scheurer,  M. Schneider,  
 N. Sergueev,  S. M. Sharada,  W. Skomorowski,  D. W. Small,  C. J. Stein,  
 Yu-Chuan Su,  E. J. Sundstrom,  Zhen Tao,  J. Thirman,  T. Tsuchimochi,  
 N. M. Tubman,  S. P. Veccham,  O. Vydrov,  J. Wenzel,  J. Witte,  A. Yamada,  
 Kun Yao,  S. Yeganeh,  S. R. Yost,  A. Zech,  Igor Ying Zhang,  Xing Zhang,  
 Yu Zhang,  D. Zuev,  A. Aspuru-Guzik,  A. T. Bell,  N. A. Besley,  
 K. B. Bravaya,  B. R. Brooks,  D. Casanova,  Jeng-Da Chai,  S. Coriani,  
 C. J. Cramer,  A. E. DePrince, III,  R. A. DiStasio Jr.,  A. Dreuw,  
 B. D. Dunietz,  T. R. Furlani,  W. A. Goddard III,  S. Grimme,  
 S. Hammes-Schiffer,  T. Head-Gordon,  W. J. Hehre,  Chao-Ping Hsu,  
 T.-C. Jagau,  Yousung Jung,  A. Klamt,  Jing Kong,  D. S. Lambrecht,  
 WanZhen Liang,  N. J. Mayhall,  C. W. McCurdy,  J. B. Neaton,  
 C. Ochsenfeld,  J. A. Parkhill,  R. Peverati,  V. A. Rassolov,  Yihan Shao,  
 L. V. Slipchenko,  T. Stauch,  R. P. Steele,  J. E. Subotnik,  
 A. J. W. Thom,  A. Tkatchenko,  D. G. Truhlar,  T. Van Voorhis,  
 T. A. Wesolowski,  K. B. Whaley,  H. L. Woodcock III,  P. M. Zimmerman,  
 S. Faraji,  P. M. W. Gill,  M. Head-Gordon,  J. M. Herbert,  A. I. Krylov

 Additional authors for Version 5.4.1: 
 S. Kotaru,  Shaozhi Li,  Xiangyuan Li,  F. Matz,  A. Molle,  Haisheng Ren,  
 Yingli Su,  Hung-Yi Tsai,  C. Utku,  Fang Wang

 Contributors to earlier versions of Q-Chem not listed above: 
 R. D. Adamson,  B. Austin,  R. Baer,  J. Baker,  G. J. O. Beran,  
 K. Brandhorst,  S. T. Brown,  E. F. C. Byrd,  A. K. Chakraborty,  
 G. K. L. Chan,  Chun-Min Chang,  Yunqing Chen,  C.-L. Cheng,  
 Siu Hung Chien,  D. M. Chipman,  D. L. Crittenden,  H. Dachsel,  
 R. J. Doerksen,  A. D. Dutoi,  R. G. Edgar,  J. Fosso-Tande,  
 L. Fusti-Molnar,  D. Ghosh,  A. Ghysels,  A. Golubeva-Zadorozhnaya,  
 J. Gonthier,  M. S. Gordon,  S. R. Gwaltney,  G. Hawkins,  J. E. Herr,  
 A. Heyden,  S. Hirata,  E. G. Hohenstein,  G. Kedziora,  F. J. Keil,  
 C. Kelley,  Jihan Kim,  R. A. King,  R. Z. Khaliullin,  P. P. Korambath,  
 W. Kurlancheek,  A. Laurent,  A. M. Lee,  M. S. Lee,  S. V. Levchenko,  
 Ching Yeh Lin,  D. Liotard,  E. Livshits,  R. C. Lochan,  I. Lotan,  
 L. A. Martinez-Martinez,  P. E. Maslen,  N. Nair,  D. P. O'Neill,  
 D. Neuhauser,  E. Neuscamman,  C. M. Oana,  R. Olivares-Amaya,  R. Olson,  
 T. M. Perrine,  B. Peters,  P. A. Pieniazek,  A. Prociuk,  Y. M. Rhee,  
 J. Ritchie,  M. A. Rohrdanz,  E. Rosta,  N. J. Russ,  H. F. Schaefer III,  
 M. W. Schmidt,  N. E. Schultz,  S. Sharma,  N. Shenvi,  C. D. Sherrill,  
 A. C. Simmonett,  A. Sodt,  T. Stein,  D. Stuck,  K. S. Thanthiriwatte,  
 V. Vanovschi,  L. Vogt,  Tao Wang,  A. Warshel,  M. A. Watson,  
 C. F. Williams,  Q. Wu,  X. Xu,  Jun Yang,  W. Zhang,  Yan Zhao

 Please cite Q-Chem as follows:
 Y. Shao et al., Mol. Phys. 113, 184-215 (2015)
 DOI: 10.1080/00268976.2014.952696

 Q-Chem 5.4.1 for Intel X86 EM64T Linux

 Parts of Q-Chem use Armadillo 9.900.5 (Nocturnal Misbehaviour).
 http://arma.sourceforge.net/

 Q-Chem begins on Wed Mar  2 17:50:06 2022  

 Host: node01
0

     Scratch files written to /src/jdavis/qchem.scratch/qchem25905//
 Processing $rem in /src/tsommerfeld/qchem/config/preferences:
 Processing $rem in /home/jdavis/.qchemrc:

 Checking the input file for inconsistencies... 	...done.

--------------------------------------------------------------
User input:
--------------------------------------------------------------
$molecule
-1 1
C        -0.6645000000    0.0000000000    1.1619088658
C         0.6645000000    0.0000000000    1.1619088658
H        -1.1590800000    0.0000000000    0.1995598658
H         1.1590800000    0.0000000000    0.1995598658
H        -1.1590800000    0.0000000000    2.1242568658
H         1.1590800000    0.0000000000    2.1242568658
O         0.0000000000    0.0000000000   -1.5841414040
H         0.0000000000    0.0000000000   -2.5471307683
$end
$rem
   METHOD adc(2)
   BASIS gen
   PURECART 11
   EE_STATES [0,0,10,0]
   scf_convergence 8
   ADC_DAVIDSON_MAXITER 120
   ADC_DAVIDSON_MAXSUBSPACE 200
   adc_nguess_singles 100
   THRESH 14
   S2THRESH 14
   adc_davidson_conv 5
   adc_davidson_thresh 14
   THREADS 10
   MEM_TOTAL 95000
   STATE_ANALYSIS TRUE
$end
$basis
C 1
S   9   1.00
      6.665000D+03           6.920000D-04
      1.000000D+03           5.329000D-03
      2.280000D+02           2.707700D-02
      6.471000D+01           1.017180D-01
      2.106000D+01           2.747400D-01
      7.495000D+00           4.485640D-01
      2.797000D+00           2.850740D-01
      5.215000D-01           1.520400D-02
      1.596000D-01          -3.191000D-03
S   9   1.00
      6.665000D+03          -1.460000D-04
      1.000000D+03          -1.154000D-03
      2.280000D+02          -5.725000D-03
      6.471000D+01          -2.331200D-02
      2.106000D+01          -6.395500D-02
      7.495000D+00          -1.499810D-01
      2.797000D+00          -1.272620D-01
      5.215000D-01           5.445290D-01
      1.596000D-01           5.804960D-01
S   1   1.00
      1.596000D-01           1.000000D+00
S   1   1.00
      0.0469000              1.0000000
P   4   1.00
      9.439000D+00           3.810900D-02
      2.002000D+00           2.094800D-01
      5.456000D-01           5.085570D-01
      1.517000D-01           4.688420D-01
P   1   1.00
      1.517000D-01           1.000000D+00
P   1   1.00
      0.0753903      1.0000000
P   1   1.00
      0.0376952      1.0000000
D   1   1.00
      5.500000D-01           1.0000000
****
C 2
S   9   1.00
      6.665000D+03           6.920000D-04
      1.000000D+03           5.329000D-03
      2.280000D+02           2.707700D-02
      6.471000D+01           1.017180D-01
      2.106000D+01           2.747400D-01
      7.495000D+00           4.485640D-01
      2.797000D+00           2.850740D-01
      5.215000D-01           1.520400D-02
      1.596000D-01          -3.191000D-03
S   9   1.00
      6.665000D+03          -1.460000D-04
      1.000000D+03          -1.154000D-03
      2.280000D+02          -5.725000D-03
      6.471000D+01          -2.331200D-02
      2.106000D+01          -6.395500D-02
      7.495000D+00          -1.499810D-01
      2.797000D+00          -1.272620D-01
      5.215000D-01           5.445290D-01
      1.596000D-01           5.804960D-01
S   1   1.00
      1.596000D-01           1.000000D+00
S   1   1.00
      0.0469000              1.0000000
P   4   1.00
      9.439000D+00           3.810900D-02
      2.002000D+00           2.094800D-01
      5.456000D-01           5.085570D-01
      1.517000D-01           4.688420D-01
P   1   1.00
      1.517000D-01           1.000000D+00
P   1   1.00
      0.0753903      1.0000000
P   1   1.00
      0.0376952      1.0000000
D   1   1.00
      5.500000D-01           1.0000000
****
H 3
cc-pVDZ
****
H 4
cc-pVDZ
****
H 5
cc-pVDZ
****
H 6
cc-pVDZ
****
O 7
aug-cc-pVDZ
****
H 8
cc-pVDZ
****
$end
--------------------------------------------------------------
 ----------------------------------------------------------------
             Standard Nuclear Orientation (Angstroms)
    I     Atom           X                Y                Z
 ----------------------------------------------------------------
    1      C      -0.6645000000    -0.0000000000     1.0270977517
    2      C       0.6645000000     0.0000000000     1.0270977517
    3      H      -1.1590800000    -0.0000000000     0.0647487517
    4      H       1.1590800000     0.0000000000     0.0647487517
    5      H      -1.1590800000    -0.0000000000     1.9894457517
    6      H       1.1590800000     0.0000000000     1.9894457517
    7      O       0.0000000000    -0.0000000000    -1.7189525181
    8      H       0.0000000000    -0.0000000000    -2.6819418824
 ----------------------------------------------------------------
 Molecular Point Group                 C2v   NOp =  4
 Largest Abelian Subgroup              C2v   NOp =  4
 Nuclear Repulsion Energy =          64.38561153 hartrees
 There are       13 alpha and       13 beta electrons
 Requested basis set is non-standard
 There are 42 shells and 90 basis functions
 Total memory of 95000 MB is distributed as follows: 
   MEM_STATIC is set to 192 MB
   QALLOC/CCMAN JOB total memory use is  94808 MB
 Warning: actual memory use might exceed 95000 MB

 Total QAlloc Memory Limit  95000 MB
 Mega-Array Size       188 MB
 MEM_STATIC part       192 MB

                       Distance Matrix (Angstroms)
             C (  1)   C (  2)   H (  3)   H (  4)   H (  5)   H (  6)
   C (  2)  1.329000
   H (  3)  1.082000  2.061931
   H (  4)  2.061931  1.082000  2.318160
   H (  5)  1.082000  2.061931  1.924697  3.013026
   H (  6)  2.061931  1.082000  3.013026  1.924697  2.318160
   O (  7)  2.825306  2.825306  2.127218  2.127218  3.885316  3.885316
   H (  8)  3.768094  3.768094  2.981237  2.981237  4.813037  4.813037
             O (  7)
   H (  8)  0.962989
 
 A cutoff of  1.0D-14 yielded    903 shell pairs
 There are      4183 function pairs (      4573 Cartesian)
 Smallest overlap matrix eigenvalue = 2.14E-04

 Scale SEOQF with 1.000000e-01/1.000000e-01/1.000000e-01

 Standard Electronic Orientation quadrupole field applied
 Nucleus-field energy     =    -0.0000000051 hartrees
 ================ Generating on-the-fly SAD Guess ================
Attempting to make child job directory: /src/jdavis/qchem.scratch/qchem25905//Frg1/
Attempting to make child job directory: /src/jdavis/qchem.scratch/qchem25905//Frg2/
Attempting to make child job directory: /src/jdavis/qchem.scratch/qchem25905//Frg3/
Creating input file /src/jdavis/qchem.scratch/qchem25905/Frg1.input
using default PutDataFrgm: nothing
calling putenv with: QCSCRATCH=/src/jdavis/qchem.scratch/qchem25905/ 
Spawning Job For Fragment 0
Done Job For Fragment 0
calling putenv with: QCSCRATCH=/src/jdavis/qchem.scratch 
calling putenv with: QCTHREADS=1 
Creating input file /src/jdavis/qchem.scratch/qchem25905/Frg2.input
using default PutDataFrgm: nothing
calling putenv with: QCSCRATCH=/src/jdavis/qchem.scratch/qchem25905/ 
Spawning Job For Fragment 1
Done Job For Fragment 1
calling putenv with: QCSCRATCH=/src/jdavis/qchem.scratch 
calling putenv with: QCTHREADS=1 
Creating input file /src/jdavis/qchem.scratch/qchem25905/Frg3.input
using default PutDataFrgm: nothing
calling putenv with: QCSCRATCH=/src/jdavis/qchem.scratch/qchem25905/ 
Spawning Job For Fragment 2
Done Job For Fragment 2
calling putenv with: QCSCRATCH=/src/jdavis/qchem.scratch 
calling putenv with: QCTHREADS=1 
 Time for running child jobs:  CPU 1.80 s  wall 80.44 s
 ============= Method Specific SAD Guess Constructed =============
 Guess from on-the-fly superposition of atomic densities
 Warning: Energy on first SCF cycle will be non-variational
 A restricted Hartree-Fock SCF calculation will be
 performed using Pulay DIIS extrapolation
 SCF converges when DIIS error is below 1.0E-08
 using 10 threads for integral computing
 -------------------------------------------------------
 OpenMP Integral computing Module                
 Release: version 1.0, May 2013, Q-Chem Inc. Pittsburgh 
 -------------------------------------------------------
 ---------------------------------------
  Cycle       Energy         DIIS Error
 ---------------------------------------
    1    -153.5747042540      5.98E-02
    2    -153.2898683752      1.22E-02
    3    -153.3564036688      1.02E-02
    4    -153.4403350381      7.54E-04
    5    -153.4412540497      2.11E-04
    6    -153.4413269774      4.61E-05
    7    -153.4413322802      1.21E-05
    8    -153.4413328392      3.63E-06
    9    -153.4413328876      7.47E-07
   10    -153.4413328892      1.28E-07
   11    -153.4413328892      3.53E-08
   12    -153.4413328892      1.05E-08
   13    -153.4413328893      2.22E-09 Convergence criterion met
 ---------------------------------------
 SCF time:  CPU 15.12 s  wall 1.52 s
 SCF   energy in the final basis set = -153.44133289
 Total energy in the final basis set = -153.44133289
================================================================================
|                                                                              |
|                                 A D C  M A N                                 |
|                                                                              |
 ------------------------------------------------------------------------------ 
|                                                                              |
| Components:                                                                  |
|                                                                              |
| - libvmm - 1.3-trunk                                                         |
|   Authors:                                                                   |
|   Evgeny Epifanovsky, Ilya Kaliman                                           |
|                                                                              |
| - libtensor - 2.5-trunk                                                      |
|   Authors:                                                                   |
|   Evgeny Epifanovsky, Michael Wormit, Dmitry Zuev, Sam Manzer,               |
|   Ilya Kaliman                                                               |
|                                                                              |
| - libwfa - 1.1-trunk                                                         |
|   Authors:                                                                   |
|   Felix Plasser, Stefanie Mewes (Baeppler), Benjamin Thomitzni,              |
|   Michael Wormit, Feng Chen, Anna I. Krylov, Pavel Pokhilko                  |
|                                                                              |
| - libadc - 1.1-trunk                                                         |
|   Authors:                                                                   |
|   Michael Wormit, Adrian L. Dempwolff, Philipp H. P. Harbach,                |
|   Caroline Krauter, Dirk Rehn, Matthias Schneider, Jan Wenzel                |
|                                                                              |
| - adcman - 2.6-trunk                                                         |
|   Authors:                                                                   |
|   Michael Wormit, Adrian L. Dempwolff, Philipp H. P. Harbach,                |
|   Caroline Krauter, Daniel Lefrancois, Jan-Michael Mewes, Dirk Rehn,         |
|   Matthias Schneider, Jan Wenzel, Andreas Dreuw                              |
|                                                                              |
| Authors of earlier versions of ADCMAN:                                       |
| Andreas Dreuw, Jan Hendrik Starcke, Dirk Rehn, Michael Wormit                |
|                                                                              |
================================================================================

 
 Alpha MOs, Restricted
 -- Occupied --                  
-20.213 -11.049 -11.047  -0.930  -0.854  -0.598  -0.473  -0.384
  1 A1    2 A1    1 B1    3 A1    4 A1    2 B1    5 A1    6 A1                 
 -0.328  -0.271  -0.194  -0.130  -0.129
  3 B1    7 A1    1 B2    4 B1    2 B2                                         
 -- Virtual --                   
  0.177   0.187   0.213   0.216   0.220   0.235   0.292   0.328
  5 B1    8 A1    3 B2    9 A1    1 A2    6 B1   10 A1   11 A1                 
  0.337   0.347   0.430   0.441   0.453   0.471   0.489   0.499
  2 A2    7 B1   12 A1    4 B2    8 B1   13 A1    9 B1    5 B2                 
  0.510   0.510   0.561   0.575   0.577   0.582   0.699   0.726
 14 A1   10 B1   11 B1    3 A2   15 A1   16 A1   17 A1   12 B1                 
  0.795   0.990   1.034   1.115   1.129   1.134   1.198   1.202
 13 B1   18 A1   19 A1   20 A1   14 B1   21 A1    6 B2   15 B1                 
  1.261   1.265   1.291   1.306   1.307   1.333   1.334   1.336
 22 A1    7 B2    4 A2    5 A2   16 B1   17 B1   23 A1   24 A1                 
  1.370   1.458   1.473   1.483   1.646   1.664   1.720   1.729
  8 B2   18 B1    9 B2    6 A2   19 B1   25 A1   10 B2   20 B1                 
  1.873   1.937   2.031   2.062   2.127   2.131   2.174   2.212
 26 A1   21 B1   27 A1    7 A2   28 A1   11 B2   22 B1   12 B2                 
  2.258   2.333   2.366   2.394   2.438   2.528   2.578   2.604
 29 A1   30 A1    8 A2   13 B2   23 B1   24 B1   31 A1    9 A2                 
  2.767   2.773   2.854   3.035   3.054   3.117   3.454   3.565
 32 A1   25 B1   26 B1   33 A1   34 A1   35 A1   27 B1   28 B1                 
  3.923   3.946   3.972   4.090   4.545
 14 B2   10 A2   36 A1   29 B1   37 A1                                         
 
 Beta MOs, Restricted
 -- Occupied --                  
-20.213 -11.049 -11.047  -0.930  -0.854  -0.598  -0.473  -0.384
  1 A1    2 A1    1 B1    3 A1    4 A1    2 B1    5 A1    6 A1                 
 -0.328  -0.271  -0.194  -0.130  -0.129
  3 B1    7 A1    1 B2    4 B1    2 B2                                         
 -- Virtual --                   
  0.177   0.187   0.213   0.216   0.220   0.235   0.292   0.328
  5 B1    8 A1    3 B2    9 A1    1 A2    6 B1   10 A1   11 A1                 
  0.337   0.347   0.430   0.441   0.453   0.471   0.489   0.499
  2 A2    7 B1   12 A1    4 B2    8 B1   13 A1    9 B1    5 B2                 
  0.510   0.510   0.561   0.575   0.577   0.582   0.699   0.726
 14 A1   10 B1   11 B1    3 A2   15 A1   16 A1   17 A1   12 B1                 
  0.795   0.990   1.034   1.115   1.129   1.134   1.198   1.202
 13 B1   18 A1   19 A1   20 A1   14 B1   21 A1    6 B2   15 B1                 
  1.261   1.265   1.291   1.306   1.307   1.333   1.334   1.336
 22 A1    7 B2    4 A2    5 A2   16 B1   17 B1   23 A1   24 A1                 
  1.370   1.458   1.473   1.483   1.646   1.664   1.720   1.729
  8 B2   18 B1    9 B2    6 A2   19 B1   25 A1   10 B2   20 B1                 
  1.873   1.937   2.031   2.062   2.127   2.131   2.174   2.212
 26 A1   21 B1   27 A1    7 A2   28 A1   11 B2   22 B1   12 B2                 
  2.258   2.333   2.366   2.394   2.438   2.528   2.578   2.604
 29 A1   30 A1    8 A2   13 B2   23 B1   24 B1   31 A1    9 A2                 
  2.767   2.773   2.854   3.035   3.054   3.117   3.454   3.565
 32 A1   25 B1   26 B1   33 A1   34 A1   35 A1   27 B1   28 B1                 
  3.923   3.946   3.972   4.090   4.545
 14 B2   10 A2   36 A1   29 B1   37 A1                                         

--------------------------------------------------------------------------------
                                   HF Summary                                   
--------------------------------------------------------------------------------
  Energy:                                                 -153.4413328893 a.u.
  Dip. moment [a.u.]:                  [  -0.000000,    0.000000,    2.078399]
  Total dipole [Debye]:                                               5.282765
  <r^2> [a.u.]:                        [  55.699044,   19.712309,  208.053584]
  Total <r^2> [a.u.]:                                               283.464937
--------------------------------------------------------------------------------

--------------------------------------------------------------------------------
                                 MP(2) Summary                                  
--------------------------------------------------------------------------------
  MP energy contribution:                                   -0.5292521103 a.u.
  Total energy:                                           -153.9705849996 a.u.
  Dip. moment [a.u.]:                  [  -0.000000,   -0.000000,    2.145766]
  Total dipole [Debye]:                                               5.453993
  <r^2> [a.u.]:                        [  56.664597,   20.378026,  209.304598]
  Total <r^2> [a.u.]:                                               286.347221

  Density matrix analysis:
  ------------------------
  NOs
    Occupation of frontier NOs:
       0.0447   1.9356
    Number of electrons: 26.000000
    Number of unpaired electrons: n_u =  0.71602, n_u,nl =  0.08550
    NO participation ratio (PR_NO): 23.023726
  
  
  Mulliken Population Analysis
  Atom      Charge (e)              h+              e-           Del q
  --------------------------------------------------------------------
   1 C       -0.225987        0.092942       -0.095019       -0.002077
   2 C       -0.225987        0.092942       -0.095019       -0.002077
   3 H        0.202674        0.017512       -0.013437        0.004074
   4 H        0.202674        0.017512       -0.013437        0.004074
   5 H        0.035803        0.018935       -0.012001        0.006933
   6 H        0.035803        0.018935       -0.012001        0.006933
   7 O       -1.073468        0.277029       -0.278469       -0.001440
   8 H        0.048488        0.015528       -0.031950       -0.016422
  --------------------------------------------------------------------
  Sum:       -1.000000        0.551334       -0.551334        0.000000
  
  Multipole moment analysis of the density matrix
    Molecular charge:                      -1.000000
    Number of electrons:                   26.000000
      Center of electronic charge [Ang]: [  0.000000,   0.000000,  -0.043673]
    Total nuclear charge:                  25.000000
      Center of nuclear charge [Ang]:    [  0.000000,   0.000000,  -0.000000]
    Dipole moment [D]:                     5.453991
      Cartesian components [D]:          [ -0.000000,  -0.000000,   5.453991]
    RMS size of the density [Ang]:         1.755604
      Cartesian components [Ang]:        [  0.781215,   0.468485,   1.500790]
  
  Exciton analysis of the difference density matrix
    <r_h> [Ang]:                  [  0.000000,   0.000000,  -0.472602]
    <r_e> [Ang]:                  [  0.000000,   0.000000,  -0.537261]
    |<r_e - r_h>| [Ang]:            0.064659
    Hole size [Ang]:                1.933733
      Cartesian components [Ang]: [  0.857501,   0.723422,   1.575016]
    Electron size [Ang]:            2.266708
      Cartesian components [Ang]: [  1.107123,   0.928151,   1.746648]
--------------------------------------------------------------------------------
  Starting Davidson for singlet states of irrep B1 ... 
--------------------------------------------------------------------------------
   It NVec Conv  Avg. Norm  Max. Norm  Conv. states           Remark
--------------------------------------------------------------------------------
       100    0  1.579e-01  5.371e-01  0.2708 n n n n n n n n Guess.
    1  110    0  1.620e-02  7.601e-02  0.1046 n n n n n n n n 
    2  120    0  1.071e-02  9.845e-02  0.1032 n n n n n n n n 
    3  130    0  1.127e-02  9.443e-02  0.1032 n n n n n n n n 
    4  140    0  6.191e-03  5.814e-02  0.1032 n n n n n n n n 
    5  150    0  1.397e-03  1.288e-02  0.1032 n n n n n n n n 
    6  160    5  3.278e-04  3.082e-03  0.1032 y y y y n y n n 
    7  170    7  6.992e-05  6.610e-04  0.1032 y y y y y y n y 
    8  180    8  1.211e-05  1.127e-04  0.1032 y y y y y y y y 
    9  190    9  1.981e-06  1.874e-05  0.1032 y y y y y y y y 
   10  200   10  3.535e-07  3.276e-06  0.1032 y y y y y y y y Converged.
--------------------------------------------------------------------------------
  Davidson Summary: 
 ------------------------------------------------------------
  State  0: excitation energy =   0.1032 a.u.   (converged)
  State  1: excitation energy =   0.1096 a.u.   (converged)
  State  2: excitation energy =   0.1200 a.u.   (converged)
  State  3: excitation energy =   0.1437 a.u.   (converged)
  State  4: excitation energy =   0.1898 a.u.   (converged)
  State  5: excitation energy =   0.1901 a.u.   (converged)
  State  6: excitation energy =   0.2429 a.u.   (converged)
  State  7: excitation energy =   0.2637 a.u.   (converged)
  State  8: excitation energy =   0.2887 a.u.   (converged)
  State  9: excitation energy =   0.2945 a.u.   (converged)
 ------------------------------------------------------------


--------------------------------------------------------------------------------
                   State-averaged natural transition orbitals
--------------------------------------------------------------------------------
--------------------------------------------------------------------------------

--------------------------------------------------------------------------------
                             Excited State Summary
--------------------------------------------------------------------------------
--------------------------------------------------------------------------------

  Excited state 1 (singlet, B1)                                    [converged]
  ----------------------------------------------------------------------------
  Term symbol:  1 (1) B1                                    R^2 =  1.63672e-09

  Total energy:                                           -153.8674256760 a.u.
  Excitation energy:                                               2.807108 eV

  Osc. strength:                                                      0.004495
  Trans. dip. moment [a.u.]:           [   0.255654,   -0.000000,    0.000000]
  <i|r^2|0> [a.u.]:                    [   0.000000,   -0.000000,   -0.000000]

  Dip. moment [a.u.]:                  [   0.000000,   -0.000000,   -5.389719]
  Total dipole [Debye]:                                              13.699302
  <r^2> [a.u.]:                        [  81.615468,   27.402857,  223.401937]
  Total <r^2> [a.u.]:                                               332.420262

  V1^2 = 0.8659, V2^2 = 0.1341

  Important amplitudes:
      occ i      occ j       vir a       vir b          v   
    ---------------------------------------------------------
     4 (B1) A               8 (A1) A                 -0.6452
     4 (B1) A               9 (A1) A                 -0.0890
    ---------------------------------------------------------

  Density matrix analysis:
  ------------------------
  NOs
    Occupation of frontier NOs:
       0.9622   0.9956
    Number of electrons: 26.000000
    Number of unpaired electrons: n_u =  2.75250, n_u,nl =  2.11548
    NO participation ratio (PR_NO):  3.888425
  
  
  Mulliken Population Analysis
  Atom      Charge (e)              h+              e-           Del q
  --------------------------------------------------------------------
   1 C       -0.747618        0.044514       -0.566145       -0.521631
   2 C       -0.747618        0.044514       -0.566145       -0.521631
   3 H        0.156604       -0.001637       -0.044433       -0.046070
   4 H        0.156604       -0.001637       -0.044433       -0.046070
   5 H        0.102119        0.054584        0.011732        0.066317
   6 H        0.102119        0.054584        0.011732        0.066317
   7 O       -0.196699        1.392780       -0.516011        0.876770
   8 H        0.174487        0.131404       -0.005405        0.125999
  --------------------------------------------------------------------
  Sum:       -1.000000        1.719107       -1.719107        0.000000
  
  Multipole moment analysis of the density matrix
    Molecular charge:                      -1.000000
    Number of electrons:                   26.000000
      Center of electronic charge [Ang]: [ -0.000000,   0.000000,   0.109697]
    Total nuclear charge:                  25.000000
      Center of nuclear charge [Ang]:    [  0.000000,   0.000000,  -0.000000]
    Dipole moment [D]:                     13.699298
      Cartesian components [D]:          [  0.000000,  -0.000000, -13.699298]
    RMS size of the density [Ang]:         1.888979
      Cartesian components [Ang]:        [  0.937564,   0.543266,   1.547281]
  
  Exciton analysis of the difference density matrix
    <r_h> [Ang]:                  [  0.000000,  -0.000000,  -1.380199]
    <r_e> [Ang]:                  [ -0.000000,   0.000000,   0.939381]
    |<r_e - r_h>| [Ang]:            2.319580
    Hole size [Ang]:                1.825684
      Cartesian components [Ang]: [  0.930248,   0.760615,   1.374491]
    Electron size [Ang]:            3.443916
      Cartesian components [Ang]: [  2.220283,   1.312563,   2.282121]

  Transition density matrix analysis:
  -----------------------------------
  
  CT numbers (Mulliken)
    omega =     0.8500
    <Phe> =    -0.0001
  
  Exciton analysis of the transition density matrix
    Trans. dipole moment [D]:             0.324904
      Cartesian components [D]:         [  0.324904,  -0.000000,   0.000000]
    <r_h> [Ang]:                        [  0.000000,  -0.000000,  -1.711519]
    <r_e> [Ang]:                        [ -0.000000,   0.000000,   2.430526]
    |<r_e - r_h>| [Ang]:                  4.142045
    Hole size [Ang]:                      1.153228
      Cartesian components [Ang]:       [  0.822200,   0.467352,   0.659927]
    Electron size [Ang]:                  3.603609
      Cartesian components [Ang]:       [  2.827280,   1.601813,   1.557780]
    RMS electron-hole separation [Ang]:   5.607324
      Cartesian components [Ang]:       [  2.940253,   1.668456,   4.473617]
    Covariance(r_h, r_e) [Ang^2]:         0.015197
    Correlation coefficient:              0.003657
    Center-of-mass size [Ang]:            1.893827
      Cartesian components [Ang]:       [  1.474277,   0.834371,   0.846708]

  Decomposition into state-averaged NTOs
    H- 0 -> L+ 2: -0.5815 ( 67.6%)
    H- 0 -> L+ 5:  0.2770 ( 15.4%)
    H- 0 -> L+ 1:  0.0760 (  1.2%)
                   omega =  85.0%
  ----------------------------------------------------------------------------


  Excited state 2 (singlet, B1)                                    [converged]
  ----------------------------------------------------------------------------
  Term symbol:  2 (1) B1                                    R^2 =  1.48301e-09

  Total energy:                                           -153.8610326067 a.u.
  Excitation energy:                                               2.981072 eV

  Osc. strength:                                                      0.048275
  Trans. dip. moment [a.u.]:           [   0.813012,    0.000000,    0.000000]
  <i|r^2|0> [a.u.]:                    [   0.000000,    0.000000,    0.000000]

  Dip. moment [a.u.]:                  [   0.000000,   -0.000000,   -0.213632]
  Total dipole [Debye]:                                               0.542997
  <r^2> [a.u.]:                        [  71.248610,   27.369389,  221.461484]
  Total <r^2> [a.u.]:                                               320.079483

  V1^2 = 0.8824, V2^2 = 0.1176

  Important amplitudes:
      occ i      occ j       vir a       vir b          v   
    ---------------------------------------------------------
     4 (B1) A               9 (A1) A                 -0.5423
     4 (B1) A              10 (A1) A                 -0.3216
    ---------------------------------------------------------

  Density matrix analysis:
  ------------------------
  NOs
    Occupation of frontier NOs:
       0.9678   0.9908
    Number of electrons: 26.000000
    Number of unpaired electrons: n_u =  2.74259, n_u,nl =  2.11180
    NO participation ratio (PR_NO):  3.860231
  
  
  Mulliken Population Analysis
  Atom      Charge (e)              h+              e-           Del q
  --------------------------------------------------------------------
   1 C       -0.706847        0.021236       -0.502096       -0.480861
   2 C       -0.706847        0.021236       -0.502096       -0.480861
   3 H        0.144423        0.003004       -0.061255       -0.058251
   4 H        0.144423        0.003004       -0.061255       -0.058251
   5 H        0.065935        0.028213        0.001920        0.030133
   6 H        0.065935        0.028213        0.001920        0.030133
   7 O       -0.398974        1.346252       -0.671757        0.674494
   8 H        0.391952        0.150132        0.193333        0.343464
  --------------------------------------------------------------------
  Sum:       -1.000000        1.601287       -1.601287        0.000000
  
  Multipole moment analysis of the density matrix
    Molecular charge:                      -1.000000
    Number of electrons:                   26.000000
      Center of electronic charge [Ang]: [ -0.000000,   0.000000,   0.004348]
    Total nuclear charge:                  25.000000
      Center of nuclear charge [Ang]:    [  0.000000,   0.000000,  -0.000000]
    Dipole moment [D]:                     0.542997
      Cartesian components [D]:          [  0.000000,  -0.000000,  -0.542997]
    RMS size of the density [Ang]:         1.856702
      Cartesian components [Ang]:        [  0.875997,   0.542934,   1.544407]
  
  Exciton analysis of the difference density matrix
    <r_h> [Ang]:                  [  0.000000,  -0.000000,  -1.523995]
    <r_e> [Ang]:                  [ -0.000000,   0.000000,  -0.744285]
    |<r_e - r_h>| [Ang]:            0.779710
    Hole size [Ang]:                1.713621
      Cartesian components [Ang]: [  0.926646,   0.759908,   1.224894]
    Electron size [Ang]:            3.256393
      Cartesian components [Ang]: [  1.846370,   1.341674,   2.322698]

  Transition density matrix analysis:
  -----------------------------------
  
  CT numbers (Mulliken)
    omega =     0.8658
    <Phe> =    -0.0056
  
  Exciton analysis of the transition density matrix
    Trans. dipole moment [D]:             1.033235
      Cartesian components [D]:         [  1.033235,   0.000000,   0.000000]
    <r_h> [Ang]:                        [  0.000000,  -0.000000,  -1.724433]
    <r_e> [Ang]:                        [ -0.000000,   0.000000,  -0.456581]
    |<r_e - r_h>| [Ang]:                  1.267852
    Hole size [Ang]:                      1.130704
      Cartesian components [Ang]:       [  0.817660,   0.468830,   0.624598]
    Electron size [Ang]:                  3.873863
      Cartesian components [Ang]:       [  2.239955,   1.591132,   2.730882]
    RMS electron-hole separation [Ang]:   4.219275
      Cartesian components [Ang]:       [  2.376795,   1.658283,   3.066467]
    Covariance(r_h, r_e) [Ang^2]:         0.045240
    Correlation coefficient:              0.010328
    Center-of-mass size [Ang]:            2.023351
      Cartesian components [Ang]:       [  1.196117,   0.829623,   1.405339]

  Decomposition into state-averaged NTOs
    H- 0 -> L+ 5:  0.3657 ( 26.8%)
    H- 0 -> L+ 1:  0.3622 ( 26.2%)
    H- 0 -> L+ 4:  0.3493 ( 24.4%)
    H- 0 -> L+ 2:  0.2078 (  8.6%)
                   omega =  86.6%
  ----------------------------------------------------------------------------


  Excited state 3 (singlet, B1)                                    [converged]
  ----------------------------------------------------------------------------
  Term symbol:  3 (1) B1                                    R^2 =  1.05395e-09

  Total energy:                                           -153.8506292916 a.u.
  Excitation energy:                                               3.264161 eV

  Osc. strength:                                                      0.000436
  Trans. dip. moment [a.u.]:           [   0.073861,   -0.000000,   -0.000000]
  <i|r^2|0> [a.u.]:                    [  -0.000000,   -0.000000,   -0.000000]

  Dip. moment [a.u.]:                  [  -0.000000,   -0.000000,   -2.883756]
  Total dipole [Debye]:                                               7.329777
  <r^2> [a.u.]:                        [  74.286003,   35.948600,  204.754851]
  Total <r^2> [a.u.]:                                               314.989454

  V1^2 = 0.8715, V2^2 = 0.1285

  Important amplitudes:
      occ i      occ j       vir a       vir b          v   
    ---------------------------------------------------------
     2 (B2) A               1 (A2) A                 -0.6236
     2 (B2) A               2 (A2) A                 -0.2011
    ---------------------------------------------------------

  Density matrix analysis:
  ------------------------
  NOs
    Occupation of frontier NOs:
       0.9669   0.9918
    Number of electrons: 26.000000
    Number of unpaired electrons: n_u =  2.74430, n_u,nl =  2.11135
    NO participation ratio (PR_NO):  3.864873
  
  
  Mulliken Population Analysis
  Atom      Charge (e)              h+              e-           Del q
  --------------------------------------------------------------------
   1 C       -0.698665        0.040789       -0.513468       -0.472678
   2 C       -0.698665        0.040789       -0.513468       -0.472678
   3 H        0.156696        0.006759       -0.052736       -0.045978
   4 H        0.156696        0.006759       -0.052736       -0.045978
   5 H        0.051090        0.015183        0.000105        0.015288
   6 H        0.051090        0.015183        0.000105        0.015288
   7 O       -0.172561        1.385267       -0.484361        0.900907
   8 H        0.154317        0.128003       -0.022174        0.105830
  --------------------------------------------------------------------
  Sum:       -1.000000        1.638733       -1.638733       -0.000000
  
  Multipole moment analysis of the density matrix
    Molecular charge:                      -1.000000
    Number of electrons:                   26.000000
      Center of electronic charge [Ang]: [  0.000000,   0.000000,   0.058693]
    Total nuclear charge:                  25.000000
      Center of nuclear charge [Ang]:    [  0.000000,   0.000000,  -0.000000]
    Dipole moment [D]:                     7.329775
      Cartesian components [D]:          [ -0.000000,  -0.000000,  -7.329775]
    RMS size of the density [Ang]:         1.840949
      Cartesian components [Ang]:        [  0.894474,   0.622236,   1.483857]
  
  Exciton analysis of the difference density matrix
    <r_h> [Ang]:                  [  0.000000,  -0.000000,  -1.531736]
    <r_e> [Ang]:                  [  0.000000,   0.000000,   0.092390]
    |<r_e - r_h>| [Ang]:            1.624126
    Hole size [Ang]:                1.649199
      Cartesian components [Ang]: [  0.803541,   0.850557,   1.162210]
    Electron size [Ang]:            3.154672
      Cartesian components [Ang]: [  1.912288,   1.839610,   1.706149]

  Transition density matrix analysis:
  -----------------------------------
  
  CT numbers (Mulliken)
    omega =     0.8518
    <Phe> =    -0.0003
  
  Exciton analysis of the transition density matrix
    Trans. dipole moment [D]:             0.093868
      Cartesian components [D]:         [  0.093868,  -0.000000,  -0.000000]
    <r_h> [Ang]:                        [  0.000000,   0.000000,  -1.739390]
    <r_e> [Ang]:                        [  0.000000,   0.000000,   1.017527]
    |<r_e - r_h>| [Ang]:                  2.756918
    Hole size [Ang]:                      1.096318
      Cartesian components [Ang]:       [  0.477872,   0.818892,   0.550426]
    Electron size [Ang]:                  3.548387
      Cartesian components [Ang]:       [  2.351490,   2.293081,   1.342880]
    RMS electron-hole separation [Ang]:   4.623562
      Cartesian components [Ang]:       [  2.399297,   2.431839,   3.115584]
    Covariance(r_h, r_e) [Ang^2]:         0.008116
    Correlation coefficient:              0.002086
    Center-of-mass size [Ang]:            1.858036
      Cartesian components [Ang]:       [  1.199907,   1.218992,   0.725659]

  Decomposition into state-averaged NTOs
    H- 2 -> L+ 0: -0.6506 ( 84.6%)
                   omega =  85.2%
  ----------------------------------------------------------------------------


  Excited state 4 (singlet, B1)                                    [converged]
  ----------------------------------------------------------------------------
  Term symbol:  4 (1) B1                                    R^2 =  2.50093e-09

  Total energy:                                           -153.8268700910 a.u.
  Excitation energy:                                               3.910682 eV

  Osc. strength:                                                      0.010836
  Trans. dip. moment [a.u.]:           [  -0.336298,   -0.000000,   -0.000000]
  <i|r^2|0> [a.u.]:                    [   0.000000,    0.000000,    0.000000]

  Dip. moment [a.u.]:                  [  -0.000000,   -0.000000,    0.699106]
  Total dipole [Debye]:                                               1.776951
  <r^2> [a.u.]:                        [  71.019236,   26.555796,  226.308930]
  Total <r^2> [a.u.]:                                               323.883962

  V1^2 = 0.8870, V2^2 = 0.1130

  Important amplitudes:
      occ i      occ j       vir a       vir b          v   
    ---------------------------------------------------------
     4 (B1) A              10 (A1) A                  0.4570
     4 (B1) A               9 (A1) A                 -0.3541
    ---------------------------------------------------------

  Density matrix analysis:
  ------------------------
  NOs
    Occupation of frontier NOs:
       0.9651   0.9960
    Number of electrons: 26.000000
    Number of unpaired electrons: n_u =  2.72893, n_u,nl =  2.10611
    NO participation ratio (PR_NO):  3.815057
  
  
  Mulliken Population Analysis
  Atom      Charge (e)              h+              e-           Del q
  --------------------------------------------------------------------
   1 C       -0.471053        0.032012       -0.277078       -0.245066
   2 C       -0.471053        0.032012       -0.277078       -0.245066
   3 H        0.160213        0.000621       -0.043083       -0.042461
   4 H        0.160213        0.000621       -0.043083       -0.042461
   5 H        0.028114        0.029241       -0.036929       -0.007688
   6 H        0.028114        0.029241       -0.036929       -0.007688
   7 O       -1.143150        1.290623       -1.360305       -0.069682
   8 H        0.708602        0.180384        0.479730        0.660114
  --------------------------------------------------------------------
  Sum:       -1.000000        1.594755       -1.594755        0.000000
  
  Multipole moment analysis of the density matrix
    Molecular charge:                      -1.000000
    Number of electrons:                   26.000000
      Center of electronic charge [Ang]: [  0.000000,   0.000000,  -0.014229]
    Total nuclear charge:                  25.000000
      Center of nuclear charge [Ang]:    [  0.000000,   0.000000,  -0.000000]
    Dipole moment [D]:                     1.776950
      Cartesian components [D]:          [ -0.000000,  -0.000000,   1.776950]
    RMS size of the density [Ang]:         1.867655
      Cartesian components [Ang]:        [  0.874586,   0.534803,   1.561159]
  
  Exciton analysis of the difference density matrix
    <r_h> [Ang]:                  [  0.000000,  -0.000000,  -1.503847]
    <r_e> [Ang]:                  [  0.000000,  -0.000000,  -1.023811]
    |<r_e - r_h>| [Ang]:            0.480036
    Hole size [Ang]:                1.729282
      Cartesian components [Ang]: [  0.928645,   0.755927,   1.247640]
    Electron size [Ang]:            3.285572
      Cartesian components [Ang]: [  1.839283,   1.286935,   2.399129]

  Transition density matrix analysis:
  -----------------------------------
  
  CT numbers (Mulliken)
    omega =     0.8697
    <Phe> =    -0.0064
  
  Exciton analysis of the transition density matrix
    Trans. dipole moment [D]:             0.427391
      Cartesian components [D]:         [ -0.427391,  -0.000000,  -0.000000]
    <r_h> [Ang]:                        [  0.000000,  -0.000000,  -1.728475]
    <r_e> [Ang]:                        [  0.000000,  -0.000000,  -0.959228]
    |<r_e - r_h>| [Ang]:                  0.769247
    Hole size [Ang]:                      1.124215
      Cartesian components [Ang]:       [  0.817501,   0.466026,   0.615120]
    Electron size [Ang]:                  3.922098
      Cartesian components [Ang]:       [  2.215335,   1.512399,   2.861431]
    RMS electron-hole separation [Ang]:   4.140601
      Cartesian components [Ang]:       [  2.356591,   1.582352,   3.014501]
    Covariance(r_h, r_e) [Ang^2]:         0.046937
    Correlation coefficient:              0.010645
    Center-of-mass size [Ang]:            2.045763
      Cartesian components [Ang]:       [  1.183059,   0.791394,   1.469426]

  Decomposition into state-averaged NTOs
    H- 0 -> L+ 1: -0.5026 ( 50.5%)
    H- 0 -> L+ 5:  0.4042 ( 32.7%)
    H- 0 -> L+ 2:  0.1300 (  3.4%)
                   omega =  87.0%
  ----------------------------------------------------------------------------


  Excited state 5 (singlet, B1)                                    [converged]
  ----------------------------------------------------------------------------
  Term symbol:  5 (1) B1                                    R^2 =  6.26641e-09

  Total energy:                                           -153.7807898346 a.u.
  Excitation energy:                                               5.164589 eV

  Osc. strength:                                                      0.002667
  Trans. dip. moment [a.u.]:           [   0.145189,   -0.000000,    0.000000]
  <i|r^2|0> [a.u.]:                    [   0.000000,   -0.000000,    0.000000]

  Dip. moment [a.u.]:                  [   0.000000,   -0.000000,   -1.565975]
  Total dipole [Debye]:                                               3.980312
  <r^2> [a.u.]:                        [  64.617328,   33.224986,  209.076813]
  Total <r^2> [a.u.]:                                               306.919127

  V1^2 = 0.8799, V2^2 = 0.1201

  Important amplitudes:
      occ i      occ j       vir a       vir b          v   
    ---------------------------------------------------------
     4 (B1) A              11 (A1) A                  0.5097
     4 (B1) A              10 (A1) A                  0.3140
    ---------------------------------------------------------

  Density matrix analysis:
  ------------------------
  NOs
    Occupation of frontier NOs:
       0.8358   1.1198
    Number of electrons: 26.000000
    Number of unpaired electrons: n_u =  2.80672, n_u,nl =  2.27744
    NO participation ratio (PR_NO):  4.982038
  
  
  Mulliken Population Analysis
  Atom      Charge (e)              h+              e-           Del q
  --------------------------------------------------------------------
   1 C       -0.680332        0.052689       -0.507034       -0.454345
   2 C       -0.680332        0.052689       -0.507034       -0.454345
   3 H        0.228693        0.002264        0.023755        0.026019
   4 H        0.228693        0.002264        0.023755        0.026019
   5 H        0.134824        0.009552        0.089470        0.099021
   6 H        0.134824        0.009552        0.089470        0.099021
   7 O       -0.616270        1.281961       -0.824763        0.457198
   8 H        0.249900        0.137842        0.063571        0.201413
  --------------------------------------------------------------------
  Sum:       -1.000000        1.548811       -1.548811        0.000000
  
  Multipole moment analysis of the density matrix
    Molecular charge:                      -1.000000
    Number of electrons:                   26.000000
      Center of electronic charge [Ang]: [ -0.000000,   0.000000,   0.031872]
    Total nuclear charge:                  25.000000
      Center of nuclear charge [Ang]:    [  0.000000,   0.000000,  -0.000000]
    Dipole moment [D]:                     3.980311
      Cartesian components [D]:          [  0.000000,  -0.000000,  -3.980311]
    RMS size of the density [Ang]:         1.817857
      Cartesian components [Ang]:        [  0.834236,   0.598201,   1.500270]
  
  Exciton analysis of the difference density matrix
    <r_h> [Ang]:                  [  0.000000,  -0.000000,  -1.514206]
    <r_e> [Ang]:                  [ -0.000000,  -0.000000,  -0.246028]
    |<r_e - r_h>| [Ang]:            1.268178
    Hole size [Ang]:                1.685422
      Cartesian components [Ang]: [  0.898002,   0.787941,   1.188861]
    Electron size [Ang]:            2.965195
      Cartesian components [Ang]: [  1.498092,   1.715695,   1.898551]

  Transition density matrix analysis:
  -----------------------------------
  
  CT numbers (Mulliken)
    omega =     0.8614
    <Phe> =    -0.0012
  
  Exciton analysis of the transition density matrix
    Trans. dipole moment [D]:             0.184516
      Cartesian components [D]:         [  0.184516,  -0.000000,   0.000000]
    <r_h> [Ang]:                        [  0.000000,  -0.000000,  -1.722829]
    <r_e> [Ang]:                        [ -0.000000,  -0.000000,   0.296281]
    |<r_e - r_h>| [Ang]:                  2.019110
    Hole size [Ang]:                      1.129267
      Cartesian components [Ang]:       [  0.774521,   0.536859,   0.622209]
    Electron size [Ang]:                  3.347422
      Cartesian components [Ang]:       [  1.739964,   2.049147,   1.994682]
    RMS electron-hole separation [Ang]:   4.063396
      Cartesian components [Ang]:       [  1.900876,   2.117316,   2.900833]
    Covariance(r_h, r_e) [Ang^2]:         0.023047
    Correlation coefficient:              0.006097
    Center-of-mass size [Ang]:            1.769645
      Cartesian components [Ang]:       [  0.954121,   1.059648,   1.048066]

  Decomposition into state-averaged NTOs
    H- 0 -> L+ 4: -0.5089 ( 51.8%)
    H- 2 -> L+ 7:  0.2601 ( 13.5%)
    H- 0 -> L+ 5:  0.2054 (  8.4%)
    H- 0 -> L+ 1:  0.2031 (  8.3%)
    H- 0 -> L+ 2:  0.1415 (  4.0%)
                   omega =  86.1%
  ----------------------------------------------------------------------------


  Excited state 6 (singlet, B1)                                    [converged]
  ----------------------------------------------------------------------------
  Term symbol:  6 (1) B1                                    R^2 =  2.92610e-09

  Total energy:                                           -153.7805256063 a.u.
  Excitation energy:                                               5.171779 eV

  Osc. strength:                                                      0.001330
  Trans. dip. moment [a.u.]:           [  -0.102443,    0.000000,    0.000000]
  <i|r^2|0> [a.u.]:                    [   0.000000,   -0.000000,    0.000000]

  Dip. moment [a.u.]:                  [  -0.000000,    0.000000,   -2.649262]
  Total dipole [Debye]:                                               6.733754
  <r^2> [a.u.]:                        [  68.594187,   31.349456,  204.809981]
  Total <r^2> [a.u.]:                                               304.753624

  V1^2 = 0.8678, V2^2 = 0.1322

  Important amplitudes:
      occ i      occ j       vir a       vir b          v   
    ---------------------------------------------------------
     2 (B2) A               2 (A2) A                 -0.5626
     4 (B1) A              11 (A1) A                  0.2231
    ---------------------------------------------------------

  Density matrix analysis:
  ------------------------
  NOs
    Occupation of frontier NOs:
       0.8382   1.1184
    Number of electrons: 26.000000
    Number of unpaired electrons: n_u =  2.80341, n_u,nl =  2.26167
    NO participation ratio (PR_NO):  4.968468
  
  
  Mulliken Population Analysis
  Atom      Charge (e)              h+              e-           Del q
  --------------------------------------------------------------------
   1 C       -0.651458        0.087530       -0.513001       -0.425471
   2 C       -0.651458        0.087530       -0.513001       -0.425471
   3 H        0.151222        0.008164       -0.059616       -0.051452
   4 H        0.151222        0.008164       -0.059616       -0.051452
   5 H        0.041385        0.006193       -0.000611        0.005582
   6 H        0.041385        0.006193       -0.000611        0.005582
   7 O       -0.248851        1.296584       -0.471967        0.824617
   8 H        0.166552        0.126771       -0.008707        0.118065
  --------------------------------------------------------------------
  Sum:       -1.000000        1.627130       -1.627130        0.000000
  
  Multipole moment analysis of the density matrix
    Molecular charge:                      -1.000000
    Number of electrons:                   26.000000
      Center of electronic charge [Ang]: [  0.000000,  -0.000000,   0.053920]
    Total nuclear charge:                  25.000000
      Center of nuclear charge [Ang]:    [  0.000000,   0.000000,  -0.000000]
    Dipole moment [D]:                     6.733752
      Cartesian components [D]:          [ -0.000000,   0.000000,  -6.733752]
    RMS size of the density [Ang]:         1.810908
      Cartesian components [Ang]:        [  0.859524,   0.581071,   1.484238]
  
  Exciton analysis of the difference density matrix
    <r_h> [Ang]:                  [  0.000000,   0.000000,  -1.408234]
    <r_e> [Ang]:                  [  0.000000,  -0.000000,   0.151211]
    |<r_e - r_h>| [Ang]:            1.559445
    Hole size [Ang]:                1.710203
      Cartesian components [Ang]: [  0.829079,   0.834560,   1.241342]
    Electron size [Ang]:            2.837743
      Cartesian components [Ang]: [  1.655430,   1.607691,   1.651565]

  Transition density matrix analysis:
  -----------------------------------
  
  CT numbers (Mulliken)
    omega =     0.8436
    <Phe> =    -0.0007
  
  Exciton analysis of the transition density matrix
    Trans. dipole moment [D]:             0.130192
      Cartesian components [D]:         [ -0.130192,   0.000000,   0.000000]
    <r_h> [Ang]:                        [  0.000000,  -0.000000,  -1.737621]
    <r_e> [Ang]:                        [ -0.000000,  -0.000000,   0.886036]
    |<r_e - r_h>| [Ang]:                  2.623657
    Hole size [Ang]:                      1.098938
      Cartesian components [Ang]:       [  0.546789,   0.772066,   0.559108]
    Electron size [Ang]:                  3.098874
      Cartesian components [Ang]:       [  1.961032,   1.966990,   1.374162]
    RMS electron-hole separation [Ang]:   4.204668
      Cartesian components [Ang]:       [  2.035122,   2.110951,   3.013536]
    Covariance(r_h, r_e) [Ang^2]:         0.007513
    Correlation coefficient:              0.002206
    Center-of-mass size [Ang]:            1.645122
      Cartesian components [Ang]:       [  1.018274,   1.057610,   0.742297]

  Decomposition into state-averaged NTOs
    H- 2 -> L+ 7: -0.5931 ( 70.4%)
    H- 0 -> L+ 4: -0.2224 (  9.9%)
    H- 0 -> L+ 5:  0.0912 (  1.7%)
    H- 0 -> L+ 1:  0.0888 (  1.6%)
                   omega =  84.4%
  ----------------------------------------------------------------------------


  Excited state 7 (singlet, B1)                                    [converged]
  ----------------------------------------------------------------------------
  Term symbol:  7 (1) B1                                    R^2 =  9.45211e-08

  Total energy:                                           -153.7277284919 a.u.
  Excitation energy:                                               6.608462 eV

  Osc. strength:                                                      0.001070
  Trans. dip. moment [a.u.]:           [   0.081304,    0.000000,    0.000000]
  <i|r^2|0> [a.u.]:                    [   0.000000,    0.000000,   -0.000000]

  Dip. moment [a.u.]:                  [   0.000000,   -0.000000,   -3.465383]
  Total dipole [Debye]:                                               8.808126
  <r^2> [a.u.]:                        [  98.249440,   28.159730,  210.482159]
  Total <r^2> [a.u.]:                                               336.891328

  V1^2 = 0.8733, V2^2 = 0.1267

  Important amplitudes:
      occ i      occ j       vir a       vir b          v   
    ---------------------------------------------------------
     7 (A1) A               5 (B1) A                  0.6368
     7 (A1) A               6 (B1) A                 -0.1511
    ---------------------------------------------------------

  Density matrix analysis:
  ------------------------
  NOs
    Occupation of frontier NOs:
       0.9815   0.9969
    Number of electrons: 26.000000
    Number of unpaired electrons: n_u =  2.80030, n_u,nl =  2.12883
    NO participation ratio (PR_NO):  3.937748
  
  
  Mulliken Population Analysis
  Atom      Charge (e)              h+              e-           Del q
  --------------------------------------------------------------------
   1 C       -0.683936        0.055151       -0.513101       -0.457950
   2 C       -0.683936        0.055151       -0.513101       -0.457950
   3 H        0.163276        0.008079       -0.047478       -0.039399
   4 H        0.163276        0.008079       -0.047478       -0.039399
   5 H        0.052548        0.047609       -0.030863        0.016746
   6 H        0.052548        0.047609       -0.030863        0.016746
   7 O       -0.387024        1.184411       -0.497966        0.686445
   8 H        0.323249        0.290952       -0.016191        0.274761
  --------------------------------------------------------------------
  Sum:       -1.000000        1.697039       -1.697039        0.000000
  
  Multipole moment analysis of the density matrix
    Molecular charge:                      -1.000000
    Number of electrons:                   26.000000
      Center of electronic charge [Ang]: [ -0.000000,   0.000000,   0.070531]
    Total nuclear charge:                  25.000000
      Center of nuclear charge [Ang]:    [  0.000000,   0.000000,  -0.000000]
    Dipole moment [D]:                     8.808123
      Cartesian components [D]:          [  0.000000,  -0.000000,  -8.808123]
    RMS size of the density [Ang]:         1.903538
      Cartesian components [Ang]:        [  1.028678,   0.550717,   1.503990]
  
  Exciton analysis of the difference density matrix
    <r_h> [Ang]:                  [  0.000000,  -0.000000,  -1.349169]
    <r_e> [Ang]:                  [  0.000000,   0.000000,   0.400520]
    |<r_e - r_h>| [Ang]:            1.749690
    Hole size [Ang]:                1.841754
      Cartesian components [Ang]: [  0.851834,   0.755639,   1.447566]
    Electron size [Ang]:            3.659534
      Cartesian components [Ang]: [  2.754549,   1.362002,   1.987360]

  Transition density matrix analysis:
  -----------------------------------
  
  CT numbers (Mulliken)
    omega =     0.8559
    <Phe> =    -0.0000
  
  Exciton analysis of the transition density matrix
    Trans. dipole moment [D]:             0.103328
      Cartesian components [D]:         [  0.103328,   0.000000,   0.000000]
    <r_h> [Ang]:                        [  0.000000,   0.000000,  -1.680621]
    <r_e> [Ang]:                        [ -0.000000,   0.000000,   1.431349]
    |<r_e - r_h>| [Ang]:                  3.111970
    Hole size [Ang]:                      1.180616
      Cartesian components [Ang]:       [  0.466219,   0.405597,   1.005975]
    Electron size [Ang]:                  4.237902
      Cartesian components [Ang]:       [  3.514109,   1.658122,   1.691591]
    RMS electron-hole separation [Ang]:   5.381721
      Cartesian components [Ang]:       [  3.540346,   1.707638,   3.675982]
    Covariance(r_h, r_e) [Ang^2]:         0.037552
    Correlation coefficient:              0.007505
    Center-of-mass size [Ang]:            2.203904
      Cartesian components [Ang]:       [  1.774725,   0.853189,   0.989754]

  Decomposition into state-averaged NTOs
    H- 1 -> L+ 6: -0.5019 ( 50.4%)
    H- 1 -> L+ 3:  0.4189 ( 35.1%)
                   omega =  85.6%
  ----------------------------------------------------------------------------


  Excited state 8 (singlet, B1)                                    [converged]
  ----------------------------------------------------------------------------
  Term symbol:  8 (1) B1                                    R^2 =  3.55347e-08

  Total energy:                                           -153.7069292034 a.u.
  Excitation energy:                                               7.174439 eV

  Osc. strength:                                                      0.224687
  Trans. dip. moment [a.u.]:           [  -1.130618,   -0.000000,    0.000000]
  <i|r^2|0> [a.u.]:                    [   0.000000,    0.000000,    0.000000]

  Dip. moment [a.u.]:                  [  -0.000000,   -0.000000,    2.025050]
  Total dipole [Debye]:                                               5.147166
  <r^2> [a.u.]:                        [  70.823749,   34.092366,  211.892003]
  Total <r^2> [a.u.]:                                               316.808119

  V1^2 = 0.9509, V2^2 = 0.0491

  Important amplitudes:
      occ i      occ j       vir a       vir b          v   
    ---------------------------------------------------------
     1 (B2) A               1 (A2) A                  0.6341
     1 (B2) A               2 (A2) A                  0.2393
    ---------------------------------------------------------

  Density matrix analysis:
  ------------------------
  NOs
    Occupation of frontier NOs:
       0.9673   1.0059
    Number of electrons: 26.000000
    Number of unpaired electrons: n_u =  2.64422, n_u,nl =  2.07461
    NO participation ratio (PR_NO):  3.597191
  
  
  Mulliken Population Analysis
  Atom      Charge (e)              h+              e-           Del q
  --------------------------------------------------------------------
   1 C       -0.367524        0.515322       -0.656859       -0.141537
   2 C       -0.367524        0.515322       -0.656859       -0.141537
   3 H        0.258901        0.063008       -0.006782        0.056227
   4 H        0.258901        0.063008       -0.006782        0.056227
   5 H        0.116792        0.086646       -0.005656        0.080990
   6 H        0.116792        0.086646       -0.005656        0.080990
   7 O       -1.078531        0.045993       -0.051057       -0.005063
   8 H        0.062192        0.016959       -0.003254        0.013704
  --------------------------------------------------------------------
  Sum:       -1.000000        1.392905       -1.392905       -0.000000
  
  Multipole moment analysis of the density matrix
    Molecular charge:                      -1.000000
    Number of electrons:                   26.000000
      Center of electronic charge [Ang]: [  0.000000,   0.000000,  -0.041216]
    Total nuclear charge:                  25.000000
      Center of nuclear charge [Ang]:    [  0.000000,   0.000000,  -0.000000]
    Dipole moment [D]:                     5.147164
      Cartesian components [D]:          [ -0.000000,  -0.000000,   5.147164]
    RMS size of the density [Ang]:         1.846735
      Cartesian components [Ang]:        [  0.873381,   0.605959,   1.510115]
  
  Exciton analysis of the difference density matrix
    <r_h> [Ang]:                  [  0.000000,   0.000000,   0.883557]
    <r_e> [Ang]:                  [  0.000000,   0.000000,   0.929418]
    |<r_e - r_h>| [Ang]:            0.045861
    Hole size [Ang]:                1.760542
      Cartesian components [Ang]: [  1.041124,   0.908222,   1.091194]
    Electron size [Ang]:            3.023276
      Cartesian components [Ang]: [  1.982545,   1.892614,   1.275825]

  Transition density matrix analysis:
  -----------------------------------
  
  CT numbers (Mulliken)
    omega =     0.9243
    <Phe> =    -0.0530
  
  Exciton analysis of the transition density matrix
    Trans. dipole moment [D]:             1.436872
      Cartesian components [D]:         [ -1.436872,  -0.000000,   0.000000]
    <r_h> [Ang]:                        [  0.000000,   0.000000,   0.996229]
    <r_e> [Ang]:                        [  0.000000,   0.000000,   1.026011]
    |<r_e - r_h>| [Ang]:                  0.029782
    Hole size [Ang]:                      1.331778
      Cartesian components [Ang]:       [  0.772821,   0.883117,   0.629671]
    Electron size [Ang]:                  3.391653
      Cartesian components [Ang]:       [  2.247395,   2.186431,   1.293075]
    RMS electron-hole separation [Ang]:   3.633244
      Cartesian components [Ang]:       [  2.389013,   2.344640,   1.412707]
    Covariance(r_h, r_e) [Ang^2]:         0.038684
    Correlation coefficient:              0.008564
    Center-of-mass size [Ang]:            1.827177
      Cartesian components [Ang]:       [  1.182020,   1.185688,   0.731813]

  Decomposition into state-averaged NTOs
    H- 3 -> L+ 0: -0.6696 ( 89.7%)
                   omega =  92.4%
  ----------------------------------------------------------------------------


  Excited state 9 (singlet, B1)                                    [converged]
  ----------------------------------------------------------------------------
  Term symbol:  9 (1) B1                                    R^2 =  3.27590e-06

  Total energy:                                           -153.6818642010 a.u.
  Excitation energy:                                               7.856492 eV

  Osc. strength:                                                      0.001788
  Trans. dip. moment [a.u.]:           [  -0.096382,   -0.000000,    0.000000]
  <i|r^2|0> [a.u.]:                    [  -0.000000,   -0.000000,   -0.000000]

  Dip. moment [a.u.]:                  [  -0.000000,   -0.000000,   -2.707891]
  Total dipole [Debye]:                                               6.882774
  <r^2> [a.u.]:                        [  85.597653,   27.818637,  222.475910]
  Total <r^2> [a.u.]:                                               335.892200

  V1^2 = 0.8784, V2^2 = 0.1216

  Important amplitudes:
      occ i      occ j       vir a       vir b          v   
    ---------------------------------------------------------
     7 (A1) A               6 (B1) A                  0.6375
     7 (A1) A               5 (B1) A                  0.1497
    ---------------------------------------------------------

  Density matrix analysis:
  ------------------------
  NOs
    Occupation of frontier NOs:
       0.9833   0.9979
    Number of electrons: 26.000000
    Number of unpaired electrons: n_u =  2.79328, n_u,nl =  2.12530
    NO participation ratio (PR_NO):  3.908773
  
  
  Mulliken Population Analysis
  Atom      Charge (e)              h+              e-           Del q
  --------------------------------------------------------------------
   1 C       -0.655934        0.045755       -0.475703       -0.429948
   2 C       -0.655934        0.045755       -0.475703       -0.429948
   3 H        0.114221        0.001694       -0.090147       -0.088453
   4 H        0.114221        0.001694       -0.090147       -0.088453
   5 H        0.022953        0.046916       -0.059766       -0.012850
   6 H        0.022953        0.046916       -0.059766       -0.012850
   7 O       -0.286863        1.193650       -0.407044        0.786605
   8 H        0.324385        0.292165       -0.016269        0.275897
  --------------------------------------------------------------------
  Sum:       -1.000000        1.674545       -1.674545       -0.000000
  
  Multipole moment analysis of the density matrix
    Molecular charge:                      -1.000000
    Number of electrons:                   26.000000
      Center of electronic charge [Ang]: [  0.000000,   0.000000,   0.055114]
    Total nuclear charge:                  25.000000
      Center of nuclear charge [Ang]:    [  0.000000,   0.000000,  -0.000000]
    Dipole moment [D]:                     6.882771
      Cartesian components [D]:          [ -0.000000,  -0.000000,  -6.882771]
    RMS size of the density [Ang]:         1.901218
      Cartesian components [Ang]:        [  0.960164,   0.547372,   1.546965]
  
  Exciton analysis of the difference density matrix
    <r_h> [Ang]:                  [  0.000000,   0.000000,  -1.352407]
    <r_e> [Ang]:                  [  0.000000,  -0.000000,   0.181410]
    |<r_e - r_h>| [Ang]:            1.533816
    Hole size [Ang]:                1.853338
      Cartesian components [Ang]: [  0.834716,   0.755467,   1.472202]
    Electron size [Ang]:            3.676438
      Cartesian components [Ang]: [  2.352686,   1.347219,   2.483157]

  Transition density matrix analysis:
  -----------------------------------
  
  CT numbers (Mulliken)
    omega =     0.8604
    <Phe> =    -0.0000
  
  Exciton analysis of the transition density matrix
    Trans. dipole moment [D]:             0.122489
      Cartesian components [D]:         [ -0.122489,  -0.000000,   0.000000]
    <r_h> [Ang]:                        [  0.000000,   0.000000,  -1.693237]
    <r_e> [Ang]:                        [  0.000000,  -0.000000,   0.993688]
    |<r_e - r_h>| [Ang]:                  2.686925
    Hole size [Ang]:                      1.167496
      Cartesian components [Ang]:       [  0.460121,   0.406460,   0.993039]
    Electron size [Ang]:                  4.325062
      Cartesian components [Ang]:       [  2.962465,   1.627982,   2.698080]
    RMS electron-hole separation [Ang]:   5.209287
      Cartesian components [Ang]:       [  2.994058,   1.677991,   3.918754]
    Covariance(r_h, r_e) [Ang^2]:         0.076051
    Correlation coefficient:              0.015061
    Center-of-mass size [Ang]:            2.248406
      Cartesian components [Ang]:       [  1.500953,   0.838960,   1.448659]

  Decomposition into state-averaged NTOs
    H- 1 -> L+ 3: -0.5059 ( 51.2%)
    H- 1 -> L+ 6: -0.4156 ( 34.5%)
                   omega =  86.0%
  ----------------------------------------------------------------------------


  Excited state 10 (singlet, B1)                                    [converged]
  ----------------------------------------------------------------------------
  Term symbol:  10 (1) B1                                   R^2 =  1.32386e-06

  Total energy:                                           -153.6760802798 a.u.
  Excitation energy:                                               8.013881 eV

  Osc. strength:                                                      0.049519
  Trans. dip. moment [a.u.]:           [  -0.502210,   -0.000000,   -0.000000]
  <i|r^2|0> [a.u.]:                    [  -0.000000,   -0.000000,   -0.000000]

  Dip. moment [a.u.]:                  [  -0.000000,   -0.000000,   -3.426931]
  Total dipole [Debye]:                                               8.710392
  <r^2> [a.u.]:                        [  60.326303,   24.382205,  216.622998]
  Total <r^2> [a.u.]:                                               301.331506

  V1^2 = 0.8780, V2^2 = 0.1220

  Important amplitudes:
      occ i      occ j       vir a       vir b          v   
    ---------------------------------------------------------
     4 (B1) A              12 (A1) A                  0.6089
     4 (B1) A              14 (A1) A                  0.1737
    ---------------------------------------------------------

  Density matrix analysis:
  ------------------------
  NOs
    Occupation of frontier NOs:
       0.9552   0.9994
    Number of electrons: 26.000000
    Number of unpaired electrons: n_u =  2.81249, n_u,nl =  2.12727
    NO participation ratio (PR_NO):  4.064957
  
  
  Mulliken Population Analysis
  Atom      Charge (e)              h+              e-           Del q
  --------------------------------------------------------------------
   1 C       -0.344379        0.082135       -0.200527       -0.118393
   2 C       -0.344379        0.082135       -0.200527       -0.118393
   3 H        0.045527       -0.003003       -0.154144       -0.157147
   4 H        0.045527       -0.003003       -0.154144       -0.157147
   5 H       -0.069660        0.033514       -0.138976       -0.105463
   6 H       -0.069660        0.033514       -0.138976       -0.105463
   7 O       -0.404899        1.268608       -0.600039        0.668569
   8 H        0.141925        0.115887       -0.022450        0.093437
  --------------------------------------------------------------------
  Sum:       -1.000000        1.609786       -1.609786        0.000000
  
  Multipole moment analysis of the density matrix
    Molecular charge:                      -1.000000
    Number of electrons:                   26.000000
      Center of electronic charge [Ang]: [  0.000000,   0.000000,   0.069748]
    Total nuclear charge:                  25.000000
      Center of nuclear charge [Ang]:    [  0.000000,   0.000000,  -0.000000]
    Dipole moment [D]:                     8.710389
      Cartesian components [D]:          [ -0.000000,  -0.000000,  -8.710389]
    RMS size of the density [Ang]:         1.800159
      Cartesian components [Ang]:        [  0.806061,   0.512449,   1.525856]
  
  Exciton analysis of the difference density matrix
    <r_h> [Ang]:                  [  0.000000,  -0.000000,  -1.327868]
    <r_e> [Ang]:                  [  0.000000,  -0.000000,   0.504018]
    |<r_e - r_h>| [Ang]:            1.831886
    Hole size [Ang]:                1.785586
      Cartesian components [Ang]: [  0.894087,   0.721892,   1.366674]
    Electron size [Ang]:            2.702608
      Cartesian components [Ang]: [  1.198482,   1.103481,   2.156400]

  Transition density matrix analysis:
  -----------------------------------
  
  CT numbers (Mulliken)
    omega =     0.8583
    <Phe> =    -0.0038
  
  Exciton analysis of the transition density matrix
    Trans. dipole moment [D]:             0.638246
      Cartesian components [D]:         [ -0.638246,  -0.000000,  -0.000000]
    <r_h> [Ang]:                        [  0.000000,  -0.000000,  -1.581182]
    <r_e> [Ang]:                        [  0.000000,  -0.000000,   1.482455]
    |<r_e - r_h>| [Ang]:                  3.063637
    Hole size [Ang]:                      1.302503
      Cartesian components [Ang]:       [  0.827766,   0.470517,   0.888780]
    Electron size [Ang]:                  2.714232
      Cartesian components [Ang]:       [  1.360278,   1.270566,   1.975440]
    RMS electron-hole separation [Ang]:   4.272559
      Cartesian components [Ang]:       [  1.582461,   1.354478,   3.730411]
    Covariance(r_h, r_e) [Ang^2]:         0.097339
    Correlation coefficient:              0.027533
    Center-of-mass size [Ang]:            1.521368
      Cartesian components [Ang]:       [  0.801081,   0.677650,   1.101645]

  Decomposition into state-averaged NTOs
    H- 0 -> L+ 8: -0.6377 ( 81.3%)
    H- 4 -> L+ 2:  0.1006 (  2.0%)
                   omega =  85.8%
  ----------------------------------------------------------------------------


--------------------------------------------------------------------------------
  Time of ADC calculation:  CPU 263.45 s  wall 71.32 s
================================================================================
 
 --------------------------------------------------------------
             Orbital Energies (a.u.) and Symmetries
 --------------------------------------------------------------
 
 Alpha MOs, Restricted
 -- Occupied --                  
-20.213 -11.049 -11.047  -0.930  -0.854  -0.598  -0.473  -0.384
  1 A1    2 A1    1 B1    3 A1    4 A1    2 B1    5 A1    6 A1                 
 -0.328  -0.271  -0.194  -0.130  -0.129
  3 B1    7 A1    1 B2    4 B1    2 B2                                         
 -- Virtual --                   
  0.177   0.187   0.213   0.216   0.220   0.235   0.292   0.328
  5 B1    8 A1    3 B2    9 A1    1 A2    6 B1   10 A1   11 A1                 
  0.337   0.347   0.430   0.441   0.453   0.471   0.489   0.499
  2 A2    7 B1   12 A1    4 B2    8 B1   13 A1    9 B1    5 B2                 
  0.510   0.510   0.561   0.575   0.577   0.582   0.699   0.726
 14 A1   10 B1   11 B1    3 A2   15 A1   16 A1   17 A1   12 B1                 
  0.795   0.990   1.034   1.115   1.129   1.134   1.198   1.202
 13 B1   18 A1   19 A1   20 A1   14 B1   21 A1    6 B2   15 B1                 
  1.261   1.265   1.291   1.306   1.307   1.333   1.334   1.336
 22 A1    7 B2    4 A2    5 A2   16 B1   17 B1   23 A1   24 A1                 
  1.370   1.458   1.473   1.483   1.646   1.664   1.720   1.729
  8 B2   18 B1    9 B2    6 A2   19 B1   25 A1   10 B2   20 B1                 
  1.873   1.937   2.031   2.062   2.127   2.131   2.174   2.212
 26 A1   21 B1   27 A1    7 A2   28 A1   11 B2   22 B1   12 B2                 
  2.258   2.333   2.366   2.394   2.438   2.528   2.578   2.604
 29 A1   30 A1    8 A2   13 B2   23 B1   24 B1   31 A1    9 A2                 
  2.767   2.773   2.854   3.035   3.054   3.117   3.454   3.565
 32 A1   25 B1   26 B1   33 A1   34 A1   35 A1   27 B1   28 B1                 
  3.923   3.946   3.972   4.090   4.545
 14 B2   10 A2   36 A1   29 B1   37 A1                                         
 
 Beta MOs, Restricted
 -- Occupied --                  
-20.213 -11.049 -11.047  -0.930  -0.854  -0.598  -0.473  -0.384
  1 A1    2 A1    1 B1    3 A1    4 A1    2 B1    5 A1    6 A1                 
 -0.328  -0.271  -0.194  -0.130  -0.129
  3 B1    7 A1    1 B2    4 B1    2 B2                                         
 -- Virtual --                   
  0.177   0.187   0.213   0.216   0.220   0.235   0.292   0.328
  5 B1    8 A1    3 B2    9 A1    1 A2    6 B1   10 A1   11 A1                 
  0.337   0.347   0.430   0.441   0.453   0.471   0.489   0.499
  2 A2    7 B1   12 A1    4 B2    8 B1   13 A1    9 B1    5 B2                 
  0.510   0.510   0.561   0.575   0.577   0.582   0.699   0.726
 14 A1   10 B1   11 B1    3 A2   15 A1   16 A1   17 A1   12 B1                 
  0.795   0.990   1.034   1.115   1.129   1.134   1.198   1.202
 13 B1   18 A1   19 A1   20 A1   14 B1   21 A1    6 B2   15 B1                 
  1.261   1.265   1.291   1.306   1.307   1.333   1.334   1.336
 22 A1    7 B2    4 A2    5 A2   16 B1   17 B1   23 A1   24 A1                 
  1.370   1.458   1.473   1.483   1.646   1.664   1.720   1.729
  8 B2   18 B1    9 B2    6 A2   19 B1   25 A1   10 B2   20 B1                 
  1.873   1.937   2.031   2.062   2.127   2.131   2.174   2.212
 26 A1   21 B1   27 A1    7 A2   28 A1   11 B2   22 B1   12 B2                 
  2.258   2.333   2.366   2.394   2.438   2.528   2.578   2.604
 29 A1   30 A1    8 A2   13 B2   23 B1   24 B1   31 A1    9 A2                 
  2.767   2.773   2.854   3.035   3.054   3.117   3.454   3.565
 32 A1   25 B1   26 B1   33 A1   34 A1   35 A1   27 B1   28 B1                 
  3.923   3.946   3.972   4.090   4.545
 14 B2   10 A2   36 A1   29 B1   37 A1                                         
 --------------------------------------------------------------
 
          Ground-State Mulliken Net Atomic Charges

     Atom                 Charge (a.u.)
  ----------------------------------------
      1 C                    -0.223910
      2 C                    -0.223910
      3 H                     0.198600
      4 H                     0.198600
      5 H                     0.028869
      6 H                     0.028869
      7 O                    -1.072028
      8 H                     0.064909
  ----------------------------------------
  Sum of atomic charges =    -1.000000

 -----------------------------------------------------------------
                    Cartesian Multipole Moments
 -----------------------------------------------------------------
    Charge (ESU x 10^10)
                -4.8032
    Dipole Moment (Debye)
         X      -0.0000      Y       0.0000      Z       5.2828
       Tot       5.2828
    Quadrupole Moments (Debye-Ang)
        XX     -23.6545     XY       0.0000     YY     -26.5137
        XZ      -0.0000     YZ       0.0000     ZZ     -32.8847
    Octopole Moments (Debye-Ang^2)
       XXX      -0.0000    XXY      -0.0000    XYY       0.0000
       YYY      -0.0000    XXZ       1.0321    XYZ       0.0000
       YYZ      -0.1546    XZZ      -0.0000    YZZ       0.0000
       ZZZ       6.3408
    Hexadecapole Moments (Debye-Ang^3)
      XXXX     -87.7421   XXXY      -0.0000   XXYY     -21.8045
      XYYY       0.0000   YYYY     -40.1451   XXXZ      -0.0000
      XXYZ      -0.0000   XYYZ       0.0000   YYYZ      -0.0000
      XXZZ     -70.4242   XYZZ      -0.0000   YYZZ     -65.4043
      XZZZ      -0.0000   YZZZ      -0.0000   ZZZZ    -292.5904
 -----------------------------------------------------------------
 Total job time:  179.82s(wall), 312.24s(cpu) 
 Wed Mar  2 17:53:06 2022

        *************************************************************
        *                                                           *
        *  Thank you very much for using Q-Chem.  Have a nice day.  *
        *                                                           *
        *************************************************************


