/src/tsommerfeld/qchem/exe/qcprog.exe .input0.848485.24259.qcin.1 /src/jdavis/qchem.scratch/qchem24259/

                  Welcome to Q-Chem
     A Quantum Leap Into The Future Of Chemistry


 Q-Chem 5.4 (devel), Q-Chem, Inc., Pleasanton, CA (2021)

 E. Epifanovsky,  A. T. B. Gilbert,  Xintian Feng,  Joonho Lee,  Yuezhi Mao,  
 N. Mardirossian,  P. Pokhilko,  A. White,  M. Wormit,  M. P. Coons,  
 A. L. Dempwolff,  Zhengting Gan,  D. Hait,  P. R. Horn,  L. D. Jacobson,  
 I. Kaliman,  J. Kussmann,  A. W. Lange,  Ka Un Lao,  D. S. Levine,  Jie Liu,  
 S. C. McKenzie,  A. F. Morrison,  K. Nanda,  F. Plasser,  D. R. Rehn,  
 M. L. Vidal,  Zhi-Qiang You,  Ying Zhu,  B. Alam,  B. Albrecht,  
 A. Aldossary,  E. Alguire,  J. H. Andersen,  D. Barton,  K. Begam,  A. Behn,  
 Y. A. Bernard,  E. J. Berquist,  H. Burton,  A. Carreras,  K. Carter-Fenk,  
 R. Chakraborty,  A. D. Chien,  K. D. Closser,  V. Cofer-Shabica,  
 S. Dasgupta,  Jia Deng,  M. de Wergifosse,  M. Diedenhofen,  Hainam Do,  
 S. Ehlert,  Po-Tung Fang,  S. Fatehi,  Qingguo Feng,  T. Friedhoff,  
 J. Gayvert,  Qinghui Ge,  G. Gidofalvi,  M. Goldey,  J. Gomes,  
 C. Gonzalez-Espinoza,  S. Gulania,  A. Gunina,  M. W. D. Hanson-Heine,  
 P. H. P. Harbach,  A. W. Hauser,  M. F. Herbst,  M. Hernandez Vera,  
 M. Hodecker,  Z. C. Holden,  S. Houck,  Xunkun Huang,  Kerwin Hui,  
 B. C. Huynh,  M. Ivanov,  Hyunjun Ji,  Hanjie Jiang,  B. Kaduk,  S. Kaehler,  
 K. Khistyaev,  Jaehoon Kim,  P. Klunzinger,  Z. Koczor-Benda,  
 Joong Hoon Koh,  D. Kosenkov,  L. Koulias,  T. Kowalczyk,  C. M. Krauter,  
 K. Kue,  A. Kunitsa,  T. Kus,  A. Landau,  K. V. Lawler,  D. Lefrancois,  
 S. Lehtola,  Rain Li,  Yi-Pei Li,  Jiashu Liang,  M. Liebenthal,  
 Hung-Hsuan Lin,  You-Sheng Lin,  Fenglai Liu,  Kuan-Yu Liu,  
 M. Loipersberger,  A. Luenser,  A. Manjanath,  P. Manohar,  E. Mansoor,  
 S. F. Manzer,  Shan-Ping Mao,  A. V. Marenich,  T. Markovich,  S. Mason,  
 S. A. Maurer,  P. F. McLaughlin,  M. F. S. J. Menger,  J.-M. Mewes,  
 S. A. Mewes,  P. Morgante,  J. W. Mullinax,  K. J. Oosterbaan,  G. Paran,  
 Alexander C. Paul,  Suranjan K. Paul,  F. Pavosevic,  Zheng Pei,  S. Prager,  
 E. I. Proynov,  E. Ramos,  B. Rana,  A. E. Rask,  A. Rettig,  R. M. Richard,  
 F. Rob,  E. Rossomme,  T. Scheele,  M. Scheurer,  M. Schneider,  
 N. Sergueev,  S. M. Sharada,  W. Skomorowski,  D. W. Small,  C. J. Stein,  
 Yu-Chuan Su,  E. J. Sundstrom,  Zhen Tao,  J. Thirman,  T. Tsuchimochi,  
 N. M. Tubman,  S. P. Veccham,  O. Vydrov,  J. Wenzel,  J. Witte,  A. Yamada,  
 Kun Yao,  S. Yeganeh,  S. R. Yost,  A. Zech,  Igor Ying Zhang,  Xing Zhang,  
 Yu Zhang,  D. Zuev,  A. Aspuru-Guzik,  A. T. Bell,  N. A. Besley,  
 K. B. Bravaya,  B. R. Brooks,  D. Casanova,  Jeng-Da Chai,  S. Coriani,  
 C. J. Cramer,  A. E. DePrince, III,  R. A. DiStasio Jr.,  A. Dreuw,  
 B. D. Dunietz,  T. R. Furlani,  W. A. Goddard III,  S. Grimme,  
 S. Hammes-Schiffer,  T. Head-Gordon,  W. J. Hehre,  Chao-Ping Hsu,  
 T.-C. Jagau,  Yousung Jung,  A. Klamt,  Jing Kong,  D. S. Lambrecht,  
 WanZhen Liang,  N. J. Mayhall,  C. W. McCurdy,  J. B. Neaton,  
 C. Ochsenfeld,  J. A. Parkhill,  R. Peverati,  V. A. Rassolov,  Yihan Shao,  
 L. V. Slipchenko,  T. Stauch,  R. P. Steele,  J. E. Subotnik,  
 A. J. W. Thom,  A. Tkatchenko,  D. G. Truhlar,  T. Van Voorhis,  
 T. A. Wesolowski,  K. B. Whaley,  H. L. Woodcock III,  P. M. Zimmerman,  
 S. Faraji,  P. M. W. Gill,  M. Head-Gordon,  J. M. Herbert,  A. I. Krylov

 Additional authors for Version 5.4.1: 
 S. Kotaru,  Shaozhi Li,  Xiangyuan Li,  F. Matz,  A. Molle,  Haisheng Ren,  
 Yingli Su,  Hung-Yi Tsai,  C. Utku,  Fang Wang

 Contributors to earlier versions of Q-Chem not listed above: 
 R. D. Adamson,  B. Austin,  R. Baer,  J. Baker,  G. J. O. Beran,  
 K. Brandhorst,  S. T. Brown,  E. F. C. Byrd,  A. K. Chakraborty,  
 G. K. L. Chan,  Chun-Min Chang,  Yunqing Chen,  C.-L. Cheng,  
 Siu Hung Chien,  D. M. Chipman,  D. L. Crittenden,  H. Dachsel,  
 R. J. Doerksen,  A. D. Dutoi,  R. G. Edgar,  J. Fosso-Tande,  
 L. Fusti-Molnar,  D. Ghosh,  A. Ghysels,  A. Golubeva-Zadorozhnaya,  
 J. Gonthier,  M. S. Gordon,  S. R. Gwaltney,  G. Hawkins,  J. E. Herr,  
 A. Heyden,  S. Hirata,  E. G. Hohenstein,  G. Kedziora,  F. J. Keil,  
 C. Kelley,  Jihan Kim,  R. A. King,  R. Z. Khaliullin,  P. P. Korambath,  
 W. Kurlancheek,  A. Laurent,  A. M. Lee,  M. S. Lee,  S. V. Levchenko,  
 Ching Yeh Lin,  D. Liotard,  E. Livshits,  R. C. Lochan,  I. Lotan,  
 L. A. Martinez-Martinez,  P. E. Maslen,  N. Nair,  D. P. O'Neill,  
 D. Neuhauser,  E. Neuscamman,  C. M. Oana,  R. Olivares-Amaya,  R. Olson,  
 T. M. Perrine,  B. Peters,  P. A. Pieniazek,  A. Prociuk,  Y. M. Rhee,  
 J. Ritchie,  M. A. Rohrdanz,  E. Rosta,  N. J. Russ,  H. F. Schaefer III,  
 M. W. Schmidt,  N. E. Schultz,  S. Sharma,  N. Shenvi,  C. D. Sherrill,  
 A. C. Simmonett,  A. Sodt,  T. Stein,  D. Stuck,  K. S. Thanthiriwatte,  
 V. Vanovschi,  L. Vogt,  Tao Wang,  A. Warshel,  M. A. Watson,  
 C. F. Williams,  Q. Wu,  X. Xu,  Jun Yang,  W. Zhang,  Yan Zhao

 Please cite Q-Chem as follows:
 Y. Shao et al., Mol. Phys. 113, 184-215 (2015)
 DOI: 10.1080/00268976.2014.952696

 Q-Chem 5.4.1 for Intel X86 EM64T Linux

 Parts of Q-Chem use Armadillo 9.900.5 (Nocturnal Misbehaviour).
 http://arma.sourceforge.net/

 Q-Chem begins on Wed Mar  2 16:46:48 2022  

 Host: node01
0

     Scratch files written to /src/jdavis/qchem.scratch/qchem24259//
 Processing $rem in /src/tsommerfeld/qchem/config/preferences:
 Processing $rem in /home/jdavis/.qchemrc:

 Checking the input file for inconsistencies... 	...done.

--------------------------------------------------------------
User input:
--------------------------------------------------------------
$molecule
-1 1
C        -0.6645000000    0.0000000000    1.1619088658
C         0.6645000000    0.0000000000    1.1619088658
H        -1.1590800000    0.0000000000    0.1995598658
H         1.1590800000    0.0000000000    0.1995598658
H        -1.1590800000    0.0000000000    2.1242568658
H         1.1590800000    0.0000000000    2.1242568658
O         0.0000000000    0.0000000000   -1.5841414040
H         0.0000000000    0.0000000000   -2.5471307683
$end
$rem
   METHOD adc(2)
   BASIS gen
   PURECART 11
   EE_STATES [0,0,10,0]
   scf_convergence 8
   ADC_DAVIDSON_MAXITER 120
   ADC_DAVIDSON_MAXSUBSPACE 200
   adc_nguess_singles 100
   THRESH 14
   S2THRESH 14
   adc_davidson_conv 5
   adc_davidson_thresh 14
   THREADS 10
   MEM_TOTAL 95000
   STATE_ANALYSIS TRUE
$end
$basis
C 1
S   9   1.00
      6.665000D+03           6.920000D-04
      1.000000D+03           5.329000D-03
      2.280000D+02           2.707700D-02
      6.471000D+01           1.017180D-01
      2.106000D+01           2.747400D-01
      7.495000D+00           4.485640D-01
      2.797000D+00           2.850740D-01
      5.215000D-01           1.520400D-02
      1.596000D-01          -3.191000D-03
S   9   1.00
      6.665000D+03          -1.460000D-04
      1.000000D+03          -1.154000D-03
      2.280000D+02          -5.725000D-03
      6.471000D+01          -2.331200D-02
      2.106000D+01          -6.395500D-02
      7.495000D+00          -1.499810D-01
      2.797000D+00          -1.272620D-01
      5.215000D-01           5.445290D-01
      1.596000D-01           5.804960D-01
S   1   1.00
      1.596000D-01           1.000000D+00
S   1   1.00
      0.0469000              1.0000000
P   4   1.00
      9.439000D+00           3.810900D-02
      2.002000D+00           2.094800D-01
      5.456000D-01           5.085570D-01
      1.517000D-01           4.688420D-01
P   1   1.00
      1.517000D-01           1.000000D+00
P   1   1.00
      0.0367758      1.0000000
P   1   1.00
      0.0183879      1.0000000
D   1   1.00
      5.500000D-01           1.0000000
****
C 2
S   9   1.00
      6.665000D+03           6.920000D-04
      1.000000D+03           5.329000D-03
      2.280000D+02           2.707700D-02
      6.471000D+01           1.017180D-01
      2.106000D+01           2.747400D-01
      7.495000D+00           4.485640D-01
      2.797000D+00           2.850740D-01
      5.215000D-01           1.520400D-02
      1.596000D-01          -3.191000D-03
S   9   1.00
      6.665000D+03          -1.460000D-04
      1.000000D+03          -1.154000D-03
      2.280000D+02          -5.725000D-03
      6.471000D+01          -2.331200D-02
      2.106000D+01          -6.395500D-02
      7.495000D+00          -1.499810D-01
      2.797000D+00          -1.272620D-01
      5.215000D-01           5.445290D-01
      1.596000D-01           5.804960D-01
S   1   1.00
      1.596000D-01           1.000000D+00
S   1   1.00
      0.0469000              1.0000000
P   4   1.00
      9.439000D+00           3.810900D-02
      2.002000D+00           2.094800D-01
      5.456000D-01           5.085570D-01
      1.517000D-01           4.688420D-01
P   1   1.00
      1.517000D-01           1.000000D+00
P   1   1.00
      0.0367758      1.0000000
P   1   1.00
      0.0183879      1.0000000
D   1   1.00
      5.500000D-01           1.0000000
****
H 3
cc-pVDZ
****
H 4
cc-pVDZ
****
H 5
cc-pVDZ
****
H 6
cc-pVDZ
****
O 7
aug-cc-pVDZ
****
H 8
cc-pVDZ
****
$end
--------------------------------------------------------------
 ----------------------------------------------------------------
             Standard Nuclear Orientation (Angstroms)
    I     Atom           X                Y                Z
 ----------------------------------------------------------------
    1      C      -0.6645000000    -0.0000000000     1.0270977517
    2      C       0.6645000000     0.0000000000     1.0270977517
    3      H      -1.1590800000    -0.0000000000     0.0647487517
    4      H       1.1590800000     0.0000000000     0.0647487517
    5      H      -1.1590800000    -0.0000000000     1.9894457517
    6      H       1.1590800000     0.0000000000     1.9894457517
    7      O       0.0000000000    -0.0000000000    -1.7189525181
    8      H       0.0000000000    -0.0000000000    -2.6819418824
 ----------------------------------------------------------------
 Molecular Point Group                 C2v   NOp =  4
 Largest Abelian Subgroup              C2v   NOp =  4
 Nuclear Repulsion Energy =          64.38561153 hartrees
 There are       13 alpha and       13 beta electrons
 Requested basis set is non-standard
 There are 42 shells and 90 basis functions
 Total memory of 95000 MB is distributed as follows: 
   MEM_STATIC is set to 192 MB
   QALLOC/CCMAN JOB total memory use is  94808 MB
 Warning: actual memory use might exceed 95000 MB

 Total QAlloc Memory Limit  95000 MB
 Mega-Array Size       188 MB
 MEM_STATIC part       192 MB

                       Distance Matrix (Angstroms)
             C (  1)   C (  2)   H (  3)   H (  4)   H (  5)   H (  6)
   C (  2)  1.329000
   H (  3)  1.082000  2.061931
   H (  4)  2.061931  1.082000  2.318160
   H (  5)  1.082000  2.061931  1.924697  3.013026
   H (  6)  2.061931  1.082000  3.013026  1.924697  2.318160
   O (  7)  2.825306  2.825306  2.127218  2.127218  3.885316  3.885316
   H (  8)  3.768094  3.768094  2.981237  2.981237  4.813037  4.813037
             O (  7)
   H (  8)  0.962989
 
 A cutoff of  1.0D-14 yielded    903 shell pairs
 There are      4183 function pairs (      4573 Cartesian)
 Smallest overlap matrix eigenvalue = 4.39E-04

 Scale SEOQF with 1.000000e-01/1.000000e-01/1.000000e-01

 Standard Electronic Orientation quadrupole field applied
 Nucleus-field energy     =    -0.0000000051 hartrees
 ================ Generating on-the-fly SAD Guess ================
Attempting to make child job directory: /src/jdavis/qchem.scratch/qchem24259//Frg1/
Attempting to make child job directory: /src/jdavis/qchem.scratch/qchem24259//Frg2/
Attempting to make child job directory: /src/jdavis/qchem.scratch/qchem24259//Frg3/
Creating input file /src/jdavis/qchem.scratch/qchem24259/Frg1.input
using default PutDataFrgm: nothing
calling putenv with: QCSCRATCH=/src/jdavis/qchem.scratch/qchem24259/ 
Spawning Job For Fragment 0
Done Job For Fragment 0
calling putenv with: QCSCRATCH=/src/jdavis/qchem.scratch 
calling putenv with: QCTHREADS=1 
Creating input file /src/jdavis/qchem.scratch/qchem24259/Frg2.input
using default PutDataFrgm: nothing
calling putenv with: QCSCRATCH=/src/jdavis/qchem.scratch/qchem24259/ 
Spawning Job For Fragment 1
Done Job For Fragment 1
calling putenv with: QCSCRATCH=/src/jdavis/qchem.scratch 
calling putenv with: QCTHREADS=1 
Creating input file /src/jdavis/qchem.scratch/qchem24259/Frg3.input
using default PutDataFrgm: nothing
calling putenv with: QCSCRATCH=/src/jdavis/qchem.scratch/qchem24259/ 
Spawning Job For Fragment 2
Done Job For Fragment 2
calling putenv with: QCSCRATCH=/src/jdavis/qchem.scratch 
calling putenv with: QCTHREADS=1 
 Time for running child jobs:  CPU 1.77 s  wall 80.44 s
 ============= Method Specific SAD Guess Constructed =============
 Guess from on-the-fly superposition of atomic densities
 Warning: Energy on first SCF cycle will be non-variational
 A restricted Hartree-Fock SCF calculation will be
 performed using Pulay DIIS extrapolation
 SCF converges when DIIS error is below 1.0E-08
 using 10 threads for integral computing
 -------------------------------------------------------
 OpenMP Integral computing Module                
 Release: version 1.0, May 2013, Q-Chem Inc. Pittsburgh 
 -------------------------------------------------------
 ---------------------------------------
  Cycle       Energy         DIIS Error
 ---------------------------------------
    1    -153.5740763252      5.98E-02
    2    -153.2897399868      1.22E-02
    3    -153.3540640077      1.03E-02
    4    -153.4401407930      7.75E-04
    5    -153.4410967519      2.13E-04
    6    -153.4411719909      4.62E-05
    7    -153.4411774106      1.23E-05
    8    -153.4411779837      3.68E-06
    9    -153.4411780326      7.21E-07
   10    -153.4411780342      1.36E-07
   11    -153.4411780343      4.49E-08
   12    -153.4411780343      1.43E-08
   13    -153.4411780343      2.69E-09 Convergence criterion met
 ---------------------------------------
 SCF time:  CPU 15.26 s  wall 1.53 s
 SCF   energy in the final basis set = -153.44117803
 Total energy in the final basis set = -153.44117803
================================================================================
|                                                                              |
|                                 A D C  M A N                                 |
|                                                                              |
 ------------------------------------------------------------------------------ 
|                                                                              |
| Components:                                                                  |
|                                                                              |
| - libvmm - 1.3-trunk                                                         |
|   Authors:                                                                   |
|   Evgeny Epifanovsky, Ilya Kaliman                                           |
|                                                                              |
| - libtensor - 2.5-trunk                                                      |
|   Authors:                                                                   |
|   Evgeny Epifanovsky, Michael Wormit, Dmitry Zuev, Sam Manzer,               |
|   Ilya Kaliman                                                               |
|                                                                              |
| - libwfa - 1.1-trunk                                                         |
|   Authors:                                                                   |
|   Felix Plasser, Stefanie Mewes (Baeppler), Benjamin Thomitzni,              |
|   Michael Wormit, Feng Chen, Anna I. Krylov, Pavel Pokhilko                  |
|                                                                              |
| - libadc - 1.1-trunk                                                         |
|   Authors:                                                                   |
|   Michael Wormit, Adrian L. Dempwolff, Philipp H. P. Harbach,                |
|   Caroline Krauter, Dirk Rehn, Matthias Schneider, Jan Wenzel                |
|                                                                              |
| - adcman - 2.6-trunk                                                         |
|   Authors:                                                                   |
|   Michael Wormit, Adrian L. Dempwolff, Philipp H. P. Harbach,                |
|   Caroline Krauter, Daniel Lefrancois, Jan-Michael Mewes, Dirk Rehn,         |
|   Matthias Schneider, Jan Wenzel, Andreas Dreuw                              |
|                                                                              |
| Authors of earlier versions of ADCMAN:                                       |
| Andreas Dreuw, Jan Hendrik Starcke, Dirk Rehn, Michael Wormit                |
|                                                                              |
================================================================================

 
 Alpha MOs, Restricted
 -- Occupied --                  
-20.213 -11.049 -11.047  -0.930  -0.854  -0.598  -0.473  -0.384
  1 A1    2 A1    1 B1    3 A1    4 A1    2 B1    5 A1    6 A1                 
 -0.328  -0.271  -0.194  -0.130  -0.129
  3 B1    7 A1    1 B2    4 B1    2 B2                                         
 -- Virtual --                   
  0.120   0.135   0.142   0.146   0.150   0.155   0.223   0.234
  5 B1    8 A1    3 B2    1 A2    9 A1    6 B1   10 A1    7 B1                 
  0.271   0.285   0.300   0.311   0.332   0.362   0.410   0.435
  2 A2   11 A1    8 B1    4 B2   12 A1   13 A1    3 A2    9 B1                 
  0.450   0.473   0.480   0.528   0.542   0.578   0.636   0.661
  5 B2   10 B1   14 A1   15 A1   11 B1   16 A1   12 B1   17 A1                 
  0.682   0.849   0.964   1.019   1.058   1.082   1.083   1.130
 13 B1   18 A1   19 A1    6 B2   20 A1   21 A1    4 A2   14 B1                 
  1.183   1.203   1.211   1.214   1.291   1.304   1.333   1.333
 15 B1    7 B2   16 B1   22 A1    5 A2   23 A1   24 A1   17 B1                 
  1.370   1.467   1.483   1.491   1.561   1.642   1.691   1.719
  8 B2    9 B2    6 A2   18 B1   19 B1   25 A1   20 B1   10 B2                 
  1.852   1.927   1.968   2.035   2.124   2.132   2.138   2.193
 26 A1   21 B1   27 A1    7 A2   11 B2   28 A1   22 B1   29 A1                 
  2.212   2.289   2.357   2.393   2.438   2.475   2.553   2.604
 12 B2   30 A1    8 A2   13 B2   23 B1   24 B1   31 A1    9 A2                 
  2.735   2.751   2.846   3.007   3.037   3.088   3.461   3.562
 25 B1   32 A1   26 B1   33 A1   34 A1   35 A1   27 B1   28 B1                 
  3.921   3.945   3.970   4.087   4.538
 14 B2   10 A2   36 A1   29 B1   37 A1                                         
 
 Beta MOs, Restricted
 -- Occupied --                  
-20.213 -11.049 -11.047  -0.930  -0.854  -0.598  -0.473  -0.384
  1 A1    2 A1    1 B1    3 A1    4 A1    2 B1    5 A1    6 A1                 
 -0.328  -0.271  -0.194  -0.130  -0.129
  3 B1    7 A1    1 B2    4 B1    2 B2                                         
 -- Virtual --                   
  0.120   0.135   0.142   0.146   0.150   0.155   0.223   0.234
  5 B1    8 A1    3 B2    1 A2    9 A1    6 B1   10 A1    7 B1                 
  0.271   0.285   0.300   0.311   0.332   0.362   0.410   0.435
  2 A2   11 A1    8 B1    4 B2   12 A1   13 A1    3 A2    9 B1                 
  0.450   0.473   0.480   0.528   0.542   0.578   0.636   0.661
  5 B2   10 B1   14 A1   15 A1   11 B1   16 A1   12 B1   17 A1                 
  0.682   0.849   0.964   1.019   1.058   1.082   1.083   1.130
 13 B1   18 A1   19 A1    6 B2   20 A1   21 A1    4 A2   14 B1                 
  1.183   1.203   1.211   1.214   1.291   1.304   1.333   1.333
 15 B1    7 B2   16 B1   22 A1    5 A2   23 A1   24 A1   17 B1                 
  1.370   1.467   1.483   1.491   1.561   1.642   1.691   1.719
  8 B2    9 B2    6 A2   18 B1   19 B1   25 A1   20 B1   10 B2                 
  1.852   1.927   1.968   2.035   2.124   2.132   2.138   2.193
 26 A1   21 B1   27 A1    7 A2   11 B2   28 A1   22 B1   29 A1                 
  2.212   2.289   2.357   2.393   2.438   2.475   2.553   2.604
 12 B2   30 A1    8 A2   13 B2   23 B1   24 B1   31 A1    9 A2                 
  2.735   2.751   2.846   3.007   3.037   3.088   3.461   3.562
 25 B1   32 A1   26 B1   33 A1   34 A1   35 A1   27 B1   28 B1                 
  3.921   3.945   3.970   4.087   4.538
 14 B2   10 A2   36 A1   29 B1   37 A1                                         

--------------------------------------------------------------------------------
                                   HF Summary                                   
--------------------------------------------------------------------------------
  Energy:                                                 -153.4411780343 a.u.
  Dip. moment [a.u.]:                  [   0.000000,    0.000000,    2.075944]
  Total dipole [Debye]:                                               5.276525
  <r^2> [a.u.]:                        [  55.713268,   19.703925,  208.030162]
  Total <r^2> [a.u.]:                                               283.447354
--------------------------------------------------------------------------------

--------------------------------------------------------------------------------
                                 MP(2) Summary                                  
--------------------------------------------------------------------------------
  MP energy contribution:                                   -0.5277573730 a.u.
  Total energy:                                           -153.9689354073 a.u.
  Dip. moment [a.u.]:                  [   0.000000,    0.000000,    2.143498]
  Total dipole [Debye]:                                               5.448231
  <r^2> [a.u.]:                        [  56.707689,   20.412008,  209.296933]
  Total <r^2> [a.u.]:                                               286.416630

  Density matrix analysis:
  ------------------------
  NOs
    Occupation of frontier NOs:
       0.0446   1.9358
    Number of electrons: 26.000000
    Number of unpaired electrons: n_u =  0.71423, n_u,nl =  0.08519
    NO participation ratio (PR_NO): 22.997016
  
  
  Mulliken Population Analysis
  Atom      Charge (e)              h+              e-           Del q
  --------------------------------------------------------------------
   1 C       -0.186985        0.094769       -0.100121       -0.005351
   2 C       -0.186985        0.094769       -0.100121       -0.005351
   3 H        0.180876        0.017377       -0.010654        0.006724
   4 H        0.180876        0.017377       -0.010654        0.006724
   5 H        0.008515        0.018339       -0.012779        0.005560
   6 H        0.008515        0.018339       -0.012779        0.005560
   7 O       -1.056868        0.277713       -0.274167        0.003546
   8 H        0.052054        0.015418       -0.032829       -0.017411
  --------------------------------------------------------------------
  Sum:       -1.000000        0.554102       -0.554102       -0.000000
  
  Multipole moment analysis of the density matrix
    Molecular charge:                      -1.000000
    Number of electrons:                   26.000000
      Center of electronic charge [Ang]: [ -0.000000,  -0.000000,  -0.043627]
    Total nuclear charge:                  25.000000
      Center of nuclear charge [Ang]:    [  0.000000,   0.000000,  -0.000000]
    Dipole moment [D]:                     5.448229
      Cartesian components [D]:          [  0.000000,   0.000000,   5.448229]
    RMS size of the density [Ang]:         1.755818
      Cartesian components [Ang]:        [  0.781512,   0.468875,   1.500764]
  
  Exciton analysis of the difference density matrix
    <r_h> [Ang]:                  [  0.000000,   0.000000,  -0.481561]
    <r_e> [Ang]:                  [ -0.000000,  -0.000000,  -0.546077]
    |<r_e - r_h>| [Ang]:            0.064516
    Hole size [Ang]:                1.977324
      Cartesian components [Ang]: [  0.898609,   0.766726,   1.585700]
    Electron size [Ang]:            2.311732
      Cartesian components [Ang]: [  1.144576,   0.972479,   1.757366]
--------------------------------------------------------------------------------
  Starting Davidson for singlet states of irrep B1 ... 
--------------------------------------------------------------------------------
   It NVec Conv  Avg. Norm  Max. Norm  Conv. states           Remark
--------------------------------------------------------------------------------
       100    0  1.585e-01  5.426e-01  0.2353 n n n n n n n n Guess.
    1  110    0  1.621e-02  7.671e-02  0.0626 n n n n n n n n 
    2  120    0  4.918e-03  3.533e-02  0.0614 n n n n n n n n 
    3  130    0  1.605e-02  1.593e-01  0.0614 n n n n n n n n 
    4  140    0  3.995e-03  3.897e-02  0.0614 n n n n n n n n 
    5  150    2  2.179e-03  1.929e-02  0.0614 n y y n n n n n 
    6  160    4  5.173e-04  4.691e-03  0.0614 y y y y n n n n 
    7  170    6  1.065e-04  9.047e-04  0.0614 y y y y y y n n 
    8  180    7  1.769e-05  1.416e-04  0.0614 y y y y y y y n 
    9  190    8  2.750e-06  2.242e-05  0.0614 y y y y y y y y 
   10  200   10  4.856e-07  3.656e-06  0.0614 y y y y y y y y Converged.
--------------------------------------------------------------------------------
  Davidson Summary: 
 ------------------------------------------------------------
  State  0: excitation energy =   0.0614 a.u.   (converged)
  State  1: excitation energy =   0.0786 a.u.   (converged)
  State  2: excitation energy =   0.0822 a.u.   (converged)
  State  3: excitation energy =   0.1176 a.u.   (converged)
  State  4: excitation energy =   0.1446 a.u.   (converged)
  State  5: excitation energy =   0.1686 a.u.   (converged)
  State  6: excitation energy =   0.1824 a.u.   (converged)
  State  7: excitation energy =   0.2088 a.u.   (converged)
  State  8: excitation energy =   0.2277 a.u.   (converged)
  State  9: excitation energy =   0.2330 a.u.   (converged)
 ------------------------------------------------------------


--------------------------------------------------------------------------------
                   State-averaged natural transition orbitals
--------------------------------------------------------------------------------
--------------------------------------------------------------------------------

--------------------------------------------------------------------------------
                             Excited State Summary
--------------------------------------------------------------------------------
--------------------------------------------------------------------------------

  Excited state 1 (singlet, B1)                                    [converged]
  ----------------------------------------------------------------------------
  Term symbol:  1 (1) B1                                    R^2 =  9.56925e-10

  Total energy:                                           -153.9075384276 a.u.
  Excitation energy:                                               1.670697 eV

  Osc. strength:                                                      0.008290
  Trans. dip. moment [a.u.]:           [  -0.450030,   -0.000000,    0.000000]
  <i|r^2|0> [a.u.]:                    [   0.000000,   -0.000000,   -0.000000]

  Dip. moment [a.u.]:                  [  -0.000000,    0.000000,   -4.120282]
  Total dipole [Debye]:                                              10.472715
  <r^2> [a.u.]:                        [  76.056063,   40.084373,  261.926383]
  Total <r^2> [a.u.]:                                               378.066818

  V1^2 = 0.8683, V2^2 = 0.1317

  Important amplitudes:
      occ i      occ j       vir a       vir b          v   
    ---------------------------------------------------------
     4 (B1) A               8 (A1) A                 -0.6424
     4 (B1) A              12 (A1) A                 -0.1011
    ---------------------------------------------------------

  Density matrix analysis:
  ------------------------
  NOs
    Occupation of frontier NOs:
       0.9611   0.9984
    Number of electrons: 26.000000
    Number of unpaired electrons: n_u =  2.74688, n_u,nl =  2.11434
    NO participation ratio (PR_NO):  3.866317
  
  
  Mulliken Population Analysis
  Atom      Charge (e)              h+              e-           Del q
  --------------------------------------------------------------------
   1 C       -0.684020        0.043374       -0.540409       -0.497035
   2 C       -0.684020        0.043374       -0.540409       -0.497035
   3 H        0.129821       -0.005422       -0.045633       -0.051055
   4 H        0.129821       -0.005422       -0.045633       -0.051055
   5 H        0.035714        0.042712       -0.015514        0.027198
   6 H        0.035714        0.042712       -0.015514        0.027198
   7 O       -0.089329        1.399038       -0.431500        0.967538
   8 H        0.126299        0.136911       -0.062665        0.074245
  --------------------------------------------------------------------
  Sum:       -1.000000        1.697275       -1.697275       -0.000000
  
  Multipole moment analysis of the density matrix
    Molecular charge:                      -1.000000
    Number of electrons:                   26.000000
      Center of electronic charge [Ang]: [  0.000000,  -0.000000,   0.083860]
    Total nuclear charge:                  25.000000
      Center of nuclear charge [Ang]:    [  0.000000,   0.000000,  -0.000000]
    Dipole moment [D]:                     10.472712
      Cartesian components [D]:          [ -0.000000,   0.000000, -10.472712]
    RMS size of the density [Ang]:         2.016153
      Cartesian components [Ang]:        [  0.905068,   0.657055,   1.677498]
  
  Exciton analysis of the difference density matrix
    <r_h> [Ang]:                  [ -0.000000,  -0.000000,  -1.441408]
    <r_e> [Ang]:                  [  0.000000,  -0.000000,   0.511516]
    |<r_e - r_h>| [Ang]:            1.952924
    Hole size [Ang]:                1.826794
      Cartesian components [Ang]: [  0.940786,   0.796782,   1.348049]
    Electron size [Ang]:            4.502698
      Cartesian components [Ang]: [  2.019235,   1.969911,   3.509477]

  Transition density matrix analysis:
  -----------------------------------
  
  CT numbers (Mulliken)
    omega =     0.8533
    <Phe> =    -0.0011
  
  Exciton analysis of the transition density matrix
    Trans. dipole moment [D]:             0.571931
      Cartesian components [D]:         [ -0.571931,  -0.000000,   0.000000]
    <r_h> [Ang]:                        [ -0.000000,  -0.000000,  -1.724386]
    <r_e> [Ang]:                        [  0.000000,  -0.000000,   1.669089]
    |<r_e - r_h>| [Ang]:                  3.393475
    Hole size [Ang]:                      1.143506
      Cartesian components [Ang]:       [  0.826072,   0.473903,   0.632950]
    Electron size [Ang]:                  5.369915
      Cartesian components [Ang]:       [  2.529403,   2.474217,   4.039351]
    RMS electron-hole separation [Ang]:   6.451203
      Cartesian components [Ang]:       [  2.657896,   2.519111,   5.311091]
    Covariance(r_h, r_e) [Ang^2]:         0.020628
    Correlation coefficient:              0.003359
    Center-of-mass size [Ang]:            2.747037
      Cartesian components [Ang]:       [  1.331929,   1.259638,   2.045847]

  Decomposition into state-averaged NTOs
    H- 0 -> L+ 6:  0.5430 ( 59.0%)
    H- 0 -> L+ 5:  0.2096 (  8.8%)
    H- 0 -> L+ 0:  0.1988 (  7.9%)
    H- 0 -> L+ 3: -0.1668 (  5.6%)
    H- 0 -> L+ 1: -0.1024 (  2.1%)
    H- 0 -> L+ 8: -0.0989 (  2.0%)
                   omega =  85.3%
  ----------------------------------------------------------------------------


  Excited state 2 (singlet, B1)                                    [converged]
  ----------------------------------------------------------------------------
  Term symbol:  2 (1) B1                                    R^2 =  4.13808e-10

  Total energy:                                           -153.8903542175 a.u.
  Excitation energy:                                               2.138303 eV

  Osc. strength:                                                      0.001979
  Trans. dip. moment [a.u.]:           [   0.194346,   -0.000000,    0.000000]
  <i|r^2|0> [a.u.]:                    [  -0.000000,   -0.000000,    0.000000]

  Dip. moment [a.u.]:                  [   0.000000,   -0.000000,   -2.929928]
  Total dipole [Debye]:                                               7.447134
  <r^2> [a.u.]:                        [ 104.828327,   66.769732,  214.247152]
  Total <r^2> [a.u.]:                                               385.845211

  V1^2 = 0.8661, V2^2 = 0.1339

  Important amplitudes:
      occ i      occ j       vir a       vir b          v   
    ---------------------------------------------------------
     2 (B2) A               1 (A2) A                  0.6479
     2 (B2) A               2 (A2) A                 -0.0921
    ---------------------------------------------------------

  Density matrix analysis:
  ------------------------
  NOs
    Occupation of frontier NOs:
       0.9610   0.9984
    Number of electrons: 26.000000
    Number of unpaired electrons: n_u =  2.74993, n_u,nl =  2.11630
    NO participation ratio (PR_NO):  3.874444
  
  
  Mulliken Population Analysis
  Atom      Charge (e)              h+              e-           Del q
  --------------------------------------------------------------------
   1 C       -0.681951        0.043118       -0.538084       -0.494966
   2 C       -0.681951        0.043118       -0.538084       -0.494966
   3 H        0.143406       -0.001031       -0.036439       -0.037470
   4 H        0.143406       -0.001031       -0.036439       -0.037470
   5 H        0.039250        0.032911       -0.002176        0.030734
   6 H        0.039250        0.032911       -0.002176        0.030734
   7 O       -0.168166        1.405912       -0.517210        0.888702
   8 H        0.166756        0.139688       -0.024986        0.114702
  --------------------------------------------------------------------
  Sum:       -1.000000        1.695594       -1.695594        0.000000
  
  Multipole moment analysis of the density matrix
    Molecular charge:                      -1.000000
    Number of electrons:                   26.000000
      Center of electronic charge [Ang]: [ -0.000000,   0.000000,   0.059633]
    Total nuclear charge:                  25.000000
      Center of nuclear charge [Ang]:    [  0.000000,   0.000000,  -0.000000]
    Dipole moment [D]:                     7.447132
      Cartesian components [D]:          [  0.000000,  -0.000000,  -7.447132]
    RMS size of the density [Ang]:         2.037676
      Cartesian components [Ang]:        [  1.062561,   0.848016,   1.517879]
  
  Exciton analysis of the difference density matrix
    <r_h> [Ang]:                  [  0.000000,  -0.000000,  -1.490681]
    <r_e> [Ang]:                  [ -0.000000,   0.000000,   0.092682]
    |<r_e - r_h>| [Ang]:            1.583363
    Hole size [Ang]:                1.781023
      Cartesian components [Ang]: [  0.857102,   0.890300,   1.282491]
    Electron size [Ang]:            4.669720
      Cartesian components [Ang]: [  2.946486,   2.906655,   2.162373]

  Transition density matrix analysis:
  -----------------------------------
  
  CT numbers (Mulliken)
    omega =     0.8513
    <Phe> =     0.0001
  
  Exciton analysis of the transition density matrix
    Trans. dipole moment [D]:             0.246990
      Cartesian components [D]:         [  0.246990,  -0.000000,   0.000000]
    <r_h> [Ang]:                        [  0.000000,  -0.000000,  -1.744372]
    <r_e> [Ang]:                        [ -0.000000,   0.000000,   1.027233]
    |<r_e - r_h>| [Ang]:                  2.771605
    Hole size [Ang]:                      1.099535
      Cartesian components [Ang]:       [  0.479505,   0.826984,   0.543276]
    Electron size [Ang]:                  5.721483
      Cartesian components [Ang]:       [  3.761292,   3.733253,   2.156588]
    RMS electron-hole separation [Ang]:   6.450661
      Cartesian components [Ang]:       [  3.791560,   3.821947,   3.553565]
    Covariance(r_h, r_e) [Ang^2]:         0.007555
    Correlation coefficient:              0.001201
    Center-of-mass size [Ang]:            2.913737
      Cartesian components [Ang]:       [  1.895954,   1.912779,   1.111981]

  Decomposition into state-averaged NTOs
    H- 2 -> L+ 4:  0.6484 ( 84.1%)
                   omega =  85.1%
  ----------------------------------------------------------------------------


  Excited state 3 (singlet, B1)                                    [converged]
  ----------------------------------------------------------------------------
  Term symbol:  3 (1) B1                                    R^2 =  5.51472e-10

  Total energy:                                           -153.8867010321 a.u.
  Excitation energy:                                               2.237711 eV

  Osc. strength:                                                      0.002028
  Trans. dip. moment [a.u.]:           [  -0.192310,    0.000000,    0.000000]
  <i|r^2|0> [a.u.]:                    [   0.000000,    0.000000,    0.000000]

  Dip. moment [a.u.]:                  [  -0.000000,    0.000000,   -3.164051]
  Total dipole [Debye]:                                               8.042218
  <r^2> [a.u.]:                        [ 134.132814,   37.046778,  214.830606]
  Total <r^2> [a.u.]:                                               386.010197

  V1^2 = 0.8662, V2^2 = 0.1338

  Important amplitudes:
      occ i      occ j       vir a       vir b          v   
    ---------------------------------------------------------
     4 (B1) A               9 (A1) A                  0.6533
     4 (B1) A   4 (B1) B    9 (A1) A   10 (B1) B      0.0524
    ---------------------------------------------------------

  Density matrix analysis:
  ------------------------
  NOs
    Occupation of frontier NOs:
       0.9609   0.9985
    Number of electrons: 26.000000
    Number of unpaired electrons: n_u =  2.74996, n_u,nl =  2.11578
    NO participation ratio (PR_NO):  3.874619
  
  
  Mulliken Population Analysis
  Atom      Charge (e)              h+              e-           Del q
  --------------------------------------------------------------------
   1 C       -0.688581        0.047888       -0.549484       -0.501597
   2 C       -0.688581        0.047888       -0.549484       -0.501597
   3 H        0.138517       -0.004126       -0.038233       -0.042360
   4 H        0.138517       -0.004126       -0.038233       -0.042360
   5 H        0.046821        0.038552       -0.000246        0.038305
   6 H        0.046821        0.038552       -0.000246        0.038305
   7 O       -0.147792        1.402875       -0.493799        0.909076
   8 H        0.154280        0.137283       -0.035057        0.102226
  --------------------------------------------------------------------
  Sum:       -1.000000        1.704784       -1.704784       -0.000000
  
  Multipole moment analysis of the density matrix
    Molecular charge:                      -1.000000
    Number of electrons:                   26.000000
      Center of electronic charge [Ang]: [  0.000000,  -0.000000,   0.064398]
    Total nuclear charge:                  25.000000
      Center of nuclear charge [Ang]:    [  0.000000,   0.000000,  -0.000000]
    Dipole moment [D]:                     8.042215
      Cartesian components [D]:          [ -0.000000,   0.000000,  -8.042215]
    RMS size of the density [Ang]:         2.037967
      Cartesian components [Ang]:        [  1.201938,   0.631669,   1.519753]
  
  Exciton analysis of the difference density matrix
    <r_h> [Ang]:                  [ -0.000000,   0.000000,  -1.455332]
    <r_e> [Ang]:                  [  0.000000,  -0.000000,   0.192169]
    |<r_e - r_h>| [Ang]:            1.647501
    Hole size [Ang]:                1.813104
      Cartesian components [Ang]: [  0.946668,   0.800806,   1.322829]
    Electron size [Ang]:            4.661296
      Cartesian components [Ang]: [  3.689724,   1.836770,   2.177131]

  Transition density matrix analysis:
  -----------------------------------
  
  CT numbers (Mulliken)
    omega =     0.8515
    <Phe> =     0.0001
  
  Exciton analysis of the transition density matrix
    Trans. dipole moment [D]:             0.244401
      Cartesian components [D]:         [ -0.244401,   0.000000,   0.000000]
    <r_h> [Ang]:                        [ -0.000000,  -0.000000,  -1.724315]
    <r_e> [Ang]:                        [  0.000000,  -0.000000,   1.179331]
    |<r_e - r_h>| [Ang]:                  2.903646
    Hole size [Ang]:                      1.144149
      Cartesian components [Ang]:       [  0.826589,   0.474323,   0.633123]
    Electron size [Ang]:                  5.700515
      Cartesian components [Ang]:       [  4.763123,   2.300394,   2.125257]
    RMS electron-hole separation [Ang]:   6.496945
      Cartesian components [Ang]:       [  4.831728,   2.348805,   3.653467]
    Covariance(r_h, r_e) [Ang^2]:         0.012902
    Correlation coefficient:              0.001978
    Center-of-mass size [Ang]:            2.908210
      Cartesian components [Ang]:       [  2.418449,   1.174383,   1.108881]

  Decomposition into state-averaged NTOs
    H- 0 -> L+ 5: -0.5648 ( 63.8%)
    H- 0 -> L+ 3: -0.2652 ( 14.1%)
    H- 0 -> L+ 6:  0.1450 (  4.2%)
    H- 0 -> L+ 8: -0.0979 (  1.9%)
                   omega =  85.2%
  ----------------------------------------------------------------------------


  Excited state 4 (singlet, B1)                                    [converged]
  ----------------------------------------------------------------------------
  Term symbol:  4 (1) B1                                    R^2 =  4.30059e-09

  Total energy:                                           -153.8513545915 a.u.
  Excitation energy:                                               3.199537 eV

  Osc. strength:                                                      0.030778
  Trans. dip. moment [a.u.]:           [   0.626610,    0.000000,    0.000000]
  <i|r^2|0> [a.u.]:                    [  -0.000000,    0.000000,   -0.000000]

  Dip. moment [a.u.]:                  [  -0.000000,    0.000000,   -2.343238]
  Total dipole [Debye]:                                               5.955917
  <r^2> [a.u.]:                        [  72.160186,   29.036060,  215.077980]
  Total <r^2> [a.u.]:                                               316.274226

  V1^2 = 0.8749, V2^2 = 0.1251

  Important amplitudes:
      occ i      occ j       vir a       vir b          v   
    ---------------------------------------------------------
     4 (B1) A              10 (A1) A                 -0.6001
     4 (B1) A              12 (A1) A                  0.2062
    ---------------------------------------------------------

  Density matrix analysis:
  ------------------------
  NOs
    Occupation of frontier NOs:
       0.9638   0.9920
    Number of electrons: 26.000000
    Number of unpaired electrons: n_u =  2.74486, n_u,nl =  2.11287
    NO participation ratio (PR_NO):  3.876771
  
  
  Mulliken Population Analysis
  Atom      Charge (e)              h+              e-           Del q
  --------------------------------------------------------------------
   1 C       -0.707818        0.046153       -0.566986       -0.520834
   2 C       -0.707818        0.046153       -0.566986       -0.520834
   3 H        0.146244       -0.003496       -0.031137       -0.034632
   4 H        0.146244       -0.003496       -0.031137       -0.034632
   5 H        0.114363        0.033885        0.071962        0.105848
   6 H        0.114363        0.033885        0.071962        0.105848
   7 O       -0.414190        1.351035       -0.708357        0.642678
   8 H        0.308613        0.139185        0.117375        0.256559
  --------------------------------------------------------------------
  Sum:       -1.000000        1.643304       -1.643304        0.000000
  
  Multipole moment analysis of the density matrix
    Molecular charge:                      -1.000000
    Number of electrons:                   26.000000
      Center of electronic charge [Ang]: [  0.000000,  -0.000000,   0.047692]
    Total nuclear charge:                  25.000000
      Center of nuclear charge [Ang]:    [  0.000000,   0.000000,  -0.000000]
    Dipole moment [D]:                     5.955915
      Cartesian components [D]:          [ -0.000000,   0.000000,  -5.955915]
    RMS size of the density [Ang]:         1.845021
      Cartesian components [Ang]:        [  0.881583,   0.559221,   1.521245]
  
  Exciton analysis of the difference density matrix
    <r_h> [Ang]:                  [ -0.000000,   0.000000,  -1.461691]
    <r_e> [Ang]:                  [  0.000000,  -0.000000,  -0.016871]
    |<r_e - r_h>| [Ang]:            1.444820
    Hole size [Ang]:                1.752505
      Cartesian components [Ang]: [  0.925395,   0.756019,   1.281933]
    Electron size [Ang]:            3.208650
      Cartesian components [Ang]: [  1.868034,   1.428689,   2.182827]

  Transition density matrix analysis:
  -----------------------------------
  
  CT numbers (Mulliken)
    omega =     0.8582
    <Phe> =    -0.0036
  
  Exciton analysis of the transition density matrix
    Trans. dipole moment [D]:             0.796342
      Cartesian components [D]:         [  0.796342,   0.000000,   0.000000]
    <r_h> [Ang]:                        [ -0.000000,  -0.000000,  -1.713842]
    <r_e> [Ang]:                        [  0.000000,  -0.000000,   0.731321]
    |<r_e - r_h>| [Ang]:                  2.445163
    Hole size [Ang]:                      1.154010
      Cartesian components [Ang]:       [  0.824207,   0.472369,   0.655202]
    Electron size [Ang]:                  3.689536
      Cartesian components [Ang]:       [  2.296650,   1.728092,   2.313390]
    RMS electron-hole separation [Ang]:   4.564599
      Cartesian components [Ang]:       [  2.434256,   1.791092,   3.420812]
    Covariance(r_h, r_e) [Ang^2]:         0.043835
    Correlation coefficient:              0.010295
    Center-of-mass size [Ang]:            1.938562
      Cartesian components [Ang]:       [  1.222930,   0.895944,   1.208201]

  Decomposition into state-averaged NTOs
    H- 0 -> L+ 8: -0.4472 ( 40.0%)
    H- 0 -> L+ 1:  0.2887 ( 16.7%)
    H- 0 -> L+ 0: -0.2550 ( 13.0%)
    H- 0 -> L+ 3:  0.2518 ( 12.7%)
    H- 0 -> L+ 6:  0.1224 (  3.0%)
                   omega =  85.8%
  ----------------------------------------------------------------------------


  Excited state 5 (singlet, B1)                                    [converged]
  ----------------------------------------------------------------------------
  Term symbol:  5 (1) B1                                    R^2 =  5.34754e-09

  Total energy:                                           -153.8243609240 a.u.
  Excitation energy:                                               3.934072 eV

  Osc. strength:                                                      0.000024
  Trans. dip. moment [a.u.]:           [   0.015854,   -0.000000,   -0.000000]
  <i|r^2|0> [a.u.]:                    [  -0.000000,   -0.000000,   -0.000000]

  Dip. moment [a.u.]:                  [   0.000000,   -0.000000,   -2.891283]
  Total dipole [Debye]:                                               7.348909
  <r^2> [a.u.]:                        [  70.405036,   31.802154,  203.985814]
  Total <r^2> [a.u.]:                                               306.193005

  V1^2 = 0.8686, V2^2 = 0.1314

  Important amplitudes:
      occ i      occ j       vir a       vir b          v   
    ---------------------------------------------------------
     2 (B2) A               2 (A2) A                  0.6204
     2 (B2) A               3 (A2) A                 -0.1938
    ---------------------------------------------------------

  Density matrix analysis:
  ------------------------
  NOs
    Occupation of frontier NOs:
       0.9639   0.9954
    Number of electrons: 26.000000
    Number of unpaired electrons: n_u =  2.72267, n_u,nl =  2.10254
    NO participation ratio (PR_NO):  3.806569
  
  
  Mulliken Population Analysis
  Atom      Charge (e)              h+              e-           Del q
  --------------------------------------------------------------------
   1 C       -0.617747        0.089729       -0.520491       -0.430762
   2 C       -0.617747        0.089729       -0.520491       -0.430762
   3 H        0.118538        0.004606       -0.066945       -0.062339
   4 H        0.118538        0.004606       -0.066945       -0.062339
   5 H       -0.000057        0.008773       -0.017346       -0.008573
   6 H       -0.000057        0.008773       -0.017346       -0.008573
   7 O       -0.151893        1.364950       -0.459976        0.904975
   8 H        0.150427        0.119897       -0.021524        0.098373
  --------------------------------------------------------------------
  Sum:       -1.000000        1.691064       -1.691064        0.000000
  
  Multipole moment analysis of the density matrix
    Molecular charge:                      -1.000000
    Number of electrons:                   26.000000
      Center of electronic charge [Ang]: [ -0.000000,   0.000000,   0.058846]
    Total nuclear charge:                  25.000000
      Center of nuclear charge [Ang]:    [  0.000000,   0.000000,  -0.000000]
    Dipole moment [D]:                     7.348907
      Cartesian components [D]:          [  0.000000,  -0.000000,  -7.348907]
    RMS size of the density [Ang]:         1.815031
      Cartesian components [Ang]:        [  0.870796,   0.585252,   1.481057]
  
  Exciton analysis of the difference density matrix
    <r_h> [Ang]:                  [  0.000000,  -0.000000,  -1.415885]
    <r_e> [Ang]:                  [  0.000000,   0.000000,   0.159627]
    |<r_e - r_h>| [Ang]:            1.575512
    Hole size [Ang]:                1.702467
      Cartesian components [Ang]: [  0.804320,   0.849758,   1.236678]
    Electron size [Ang]:            2.855253
      Cartesian components [Ang]: [  1.707371,   1.614998,   1.621461]

  Transition density matrix analysis:
  -----------------------------------
  
  CT numbers (Mulliken)
    omega =     0.8436
    <Phe> =    -0.0009
  
  Exciton analysis of the transition density matrix
    Trans. dipole moment [D]:             0.020148
      Cartesian components [D]:         [  0.020148,  -0.000000,  -0.000000]
    <r_h> [Ang]:                        [  0.000000,  -0.000000,  -1.737905]
    <r_e> [Ang]:                        [  0.000000,   0.000000,   1.025882]
    |<r_e - r_h>| [Ang]:                  2.763787
    Hole size [Ang]:                      1.102555
      Cartesian components [Ang]:       [  0.477949,   0.823092,   0.556517]
    Electron size [Ang]:                  3.112464
      Cartesian components [Ang]:       [  2.073860,   2.005454,   1.168202]
    RMS electron-hole separation [Ang]:   4.304459
      Cartesian components [Ang]:       [  2.127660,   2.165359,   3.051664]
    Covariance(r_h, r_e) [Ang^2]:         0.006606
    Correlation coefficient:              0.001925
    Center-of-mass size [Ang]:            1.651989
      Cartesian components [Ang]:       [  1.064392,   1.085112,   0.647047]

  Decomposition into state-averaged NTOs
    H- 2 -> L+ 9: -0.6454 ( 83.3%)
                   omega =  84.4%
  ----------------------------------------------------------------------------


  Excited state 6 (singlet, B1)                                    [converged]
  ----------------------------------------------------------------------------
  Term symbol:  6 (1) B1                                    R^2 =  1.32712e-08

  Total energy:                                           -153.8003466605 a.u.
  Excitation energy:                                               4.587533 eV

  Osc. strength:                                                      0.025335
  Trans. dip. moment [a.u.]:           [   0.474777,    0.000000,    0.000000]
  <i|r^2|0> [a.u.]:                    [  -0.000000,   -0.000000,   -0.000000]

  Dip. moment [a.u.]:                  [  -0.000000,    0.000000,   -0.913730]
  Total dipole [Debye]:                                               2.322471
  <r^2> [a.u.]:                        [  68.883926,   31.509565,  242.966917]
  Total <r^2> [a.u.]:                                               343.360407

  V1^2 = 0.8860, V2^2 = 0.1140

  Important amplitudes:
      occ i      occ j       vir a       vir b          v   
    ---------------------------------------------------------
     4 (B1) A              12 (A1) A                  0.4484
     4 (B1) A              11 (A1) A                  0.3241
    ---------------------------------------------------------

  Density matrix analysis:
  ------------------------
  NOs
    Occupation of frontier NOs:
       0.9653   0.9942
    Number of electrons: 26.000000
    Number of unpaired electrons: n_u =  2.72899, n_u,nl =  2.10663
    NO participation ratio (PR_NO):  3.821249
  
  
  Mulliken Population Analysis
  Atom      Charge (e)              h+              e-           Del q
  --------------------------------------------------------------------
   1 C       -0.545517        0.040519       -0.399051       -0.358533
   2 C       -0.545517        0.040519       -0.399051       -0.358533
   3 H        0.109717       -0.003663       -0.067497       -0.071159
   4 H        0.109717       -0.003663       -0.067497       -0.071159
   5 H        0.101399        0.032497        0.060387        0.092884
   6 H        0.101399        0.032497        0.060387        0.092884
   7 O       -1.072569        1.275889       -1.291591       -0.015702
   8 H        0.741372        0.177371        0.511947        0.689318
  --------------------------------------------------------------------
  Sum:       -1.000000        1.591966       -1.591966        0.000000
  
  Multipole moment analysis of the density matrix
    Molecular charge:                      -1.000000
    Number of electrons:                   26.000000
      Center of electronic charge [Ang]: [  0.000000,  -0.000000,   0.018597]
    Total nuclear charge:                  25.000000
      Center of nuclear charge [Ang]:    [  0.000000,   0.000000,  -0.000000]
    Dipole moment [D]:                     2.322471
      Cartesian components [D]:          [ -0.000000,   0.000000,  -2.322471]
    RMS size of the density [Ang]:         1.922956
      Cartesian components [Ang]:        [  0.861338,   0.582553,   1.617556]
  
  Exciton analysis of the difference density matrix
    <r_h> [Ang]:                  [ -0.000000,   0.000000,  -1.486848]
    <r_e> [Ang]:                  [  0.000000,   0.000000,  -0.470610]
    |<r_e - r_h>| [Ang]:            1.016238
    Hole size [Ang]:                1.775185
      Cartesian components [Ang]: [  0.933826,   0.776159,   1.294924]
    Electron size [Ang]:            3.893199
      Cartesian components [Ang]: [  1.736043,   1.598279,   3.096556]

  Transition density matrix analysis:
  -----------------------------------
  
  CT numbers (Mulliken)
    omega =     0.8683
    <Phe> =    -0.0088
  
  Exciton analysis of the transition density matrix
    Trans. dipole moment [D]:             0.603381
      Cartesian components [D]:         [  0.603381,   0.000000,   0.000000]
    <r_h> [Ang]:                        [ -0.000000,  -0.000000,  -1.723823]
    <r_e> [Ang]:                        [  0.000000,   0.000000,  -0.119100]
    |<r_e - r_h>| [Ang]:                  1.604723
    Hole size [Ang]:                      1.137810
      Cartesian components [Ang]:       [  0.821573,   0.471731,   0.630157]
    Electron size [Ang]:                  4.642436
      Cartesian components [Ang]:       [  2.069844,   1.903345,   3.693946]
    RMS electron-hole separation [Ang]:   5.032082
      Cartesian components [Ang]:       [  2.223193,   1.960788,   4.066272]
    Covariance(r_h, r_e) [Ang^2]:         0.050056
    Correlation coefficient:              0.009476
    Center-of-mass size [Ang]:            2.395148
      Cartesian components [Ang]:       [  1.115335,   0.980537,   1.879178]

  Decomposition into state-averaged NTOs
    H- 0 -> L+ 0: -0.4791 ( 45.9%)
    H- 0 -> L+ 8:  0.3734 ( 27.9%)
    H- 0 -> L+ 6:  0.2271 ( 10.3%)
    H- 0 -> L+ 1:  0.0962 (  1.8%)
                   omega =  86.8%
  ----------------------------------------------------------------------------


  Excited state 7 (singlet, B1)                                    [converged]
  ----------------------------------------------------------------------------
  Term symbol:  7 (1) B1                                    R^2 =  5.95300e-08

  Total energy:                                           -153.7865450971 a.u.
  Excitation energy:                                               4.963093 eV

  Osc. strength:                                                      0.002425
  Trans. dip. moment [a.u.]:           [   0.141226,   -0.000000,   -0.000000]
  <i|r^2|0> [a.u.]:                    [  -0.000000,    0.000000,   -0.000000]

  Dip. moment [a.u.]:                  [   0.000000,    0.000000,   -1.458856]
  Total dipole [Debye]:                                               3.708042
  <r^2> [a.u.]:                        [  71.092433,   28.576463,  220.289374]
  Total <r^2> [a.u.]:                                               319.958270

  V1^2 = 0.8802, V2^2 = 0.1198

  Important amplitudes:
      occ i      occ j       vir a       vir b          v   
    ---------------------------------------------------------
     4 (B1) A              11 (A1) A                 -0.5363
     4 (B1) A              12 (A1) A                  0.2737
    ---------------------------------------------------------

  Density matrix analysis:
  ------------------------
  NOs
    Occupation of frontier NOs:
       0.9646   0.9940
    Number of electrons: 26.000000
    Number of unpaired electrons: n_u =  2.73738, n_u,nl =  2.10963
    NO participation ratio (PR_NO):  3.846545
  
  
  Mulliken Population Analysis
  Atom      Charge (e)              h+              e-           Del q
  --------------------------------------------------------------------
   1 C       -0.584428        0.044743       -0.442186       -0.397443
   2 C       -0.584428        0.044743       -0.442186       -0.397443
   3 H        0.203132       -0.000131        0.022387        0.022256
   4 H        0.203132       -0.000131        0.022387        0.022256
   5 H        0.034879        0.032190       -0.005827        0.026363
   6 H        0.034879        0.032190       -0.005827        0.026363
   7 O       -0.640095        1.328440       -0.911668        0.416772
   8 H        0.332929        0.144716        0.136159        0.280875
  --------------------------------------------------------------------
  Sum:       -1.000000        1.626761       -1.626761       -0.000000
  
  Multipole moment analysis of the density matrix
    Molecular charge:                      -1.000000
    Number of electrons:                   26.000000
      Center of electronic charge [Ang]: [ -0.000000,  -0.000000,   0.029692]
    Total nuclear charge:                  25.000000
      Center of nuclear charge [Ang]:    [  0.000000,   0.000000,  -0.000000]
    Dipole moment [D]:                     3.708041
      Cartesian components [D]:          [  0.000000,   0.000000,  -3.708041]
    RMS size of the density [Ang]:         1.856118
      Cartesian components [Ang]:        [  0.875036,   0.554777,   1.540035]
  
  Exciton analysis of the difference density matrix
    <r_h> [Ang]:                  [ -0.000000,   0.000000,  -1.463650]
    <r_e> [Ang]:                  [ -0.000000,   0.000000,  -0.291822]
    |<r_e - r_h>| [Ang]:            1.171828
    Hole size [Ang]:                1.748616
      Cartesian components [Ang]: [  0.922401,   0.759355,   1.276799]
    Electron size [Ang]:            3.299786
      Cartesian components [Ang]: [  1.824005,   1.407849,   2.362107]

  Transition density matrix analysis:
  -----------------------------------
  
  CT numbers (Mulliken)
    omega =     0.8632
    <Phe> =    -0.0022
  
  Exciton analysis of the transition density matrix
    Trans. dipole moment [D]:             0.179480
      Cartesian components [D]:         [  0.179480,  -0.000000,  -0.000000]
    <r_h> [Ang]:                        [ -0.000000,  -0.000000,  -1.717907]
    <r_e> [Ang]:                        [ -0.000000,   0.000000,   0.249601]
    |<r_e - r_h>| [Ang]:                  1.967508
    Hole size [Ang]:                      1.147378
      Cartesian components [Ang]:       [  0.823102,   0.471639,   0.645396]
    Electron size [Ang]:                  3.882863
      Cartesian components [Ang]:       [  2.219449,   1.688685,   2.701669]
    RMS electron-hole separation [Ang]:   4.491024
      Cartesian components [Ang]:       [  2.362090,   1.753216,   3.393532]
    Covariance(r_h, r_e) [Ang^2]:         0.047447
    Correlation coefficient:              0.010650
    Center-of-mass size [Ang]:            2.030271
      Cartesian components [Ang]:       [  1.186110,   0.876703,   1.395182]

  Decomposition into state-averaged NTOs
    H- 0 -> L+ 3: -0.3396 ( 23.1%)
    H- 0 -> L+ 1: -0.3268 ( 21.4%)
    H- 0 -> L+ 0: -0.3134 ( 19.6%)
    H- 0 -> L+ 8: -0.2533 ( 12.8%)
    H- 0 -> L+ 6: -0.1570 (  4.9%)
    H- 0 -> L+ 5:  0.1481 (  4.4%)
                   omega =  86.3%
  ----------------------------------------------------------------------------


  Excited state 8 (singlet, B1)                                    [converged]
  ----------------------------------------------------------------------------
  Term symbol:  8 (1) B1                                    R^2 =  3.39265e-07

  Total energy:                                           -153.7601083343 a.u.
  Excitation energy:                                               5.682474 eV

  Osc. strength:                                                      0.000382
  Trans. dip. moment [a.u.]:           [   0.052366,    0.000000,    0.000000]
  <i|r^2|0> [a.u.]:                    [   0.000000,   -0.000000,    0.000000]

  Dip. moment [a.u.]:                  [   0.000000,    0.000000,   -3.736834]
  Total dipole [Debye]:                                               9.498087
  <r^2> [a.u.]:                        [ 122.192472,   41.826241,  223.439780]
  Total <r^2> [a.u.]:                                               387.458493

  V1^2 = 0.8692, V2^2 = 0.1308

  Important amplitudes:
      occ i      occ j       vir a       vir b          v   
    ---------------------------------------------------------
     7 (A1) A               5 (B1) A                  0.6023
     7 (A1) A               6 (B1) A                  0.2433
    ---------------------------------------------------------

  Density matrix analysis:
  ------------------------
  NOs
    Occupation of frontier NOs:
       0.9799   0.9994
    Number of electrons: 26.000000
    Number of unpaired electrons: n_u =  2.80192, n_u,nl =  2.13145
    NO participation ratio (PR_NO):  3.936643
  
  
  Mulliken Population Analysis
  Atom      Charge (e)              h+              e-           Del q
  --------------------------------------------------------------------
   1 C       -0.687135        0.061212       -0.561362       -0.500150
   2 C       -0.687135        0.061212       -0.561362       -0.500150
   3 H        0.148078        0.002900       -0.035697       -0.032798
   4 H        0.148078        0.002900       -0.035697       -0.032798
   5 H        0.050985        0.043589       -0.001119        0.042470
   6 H        0.050985        0.043589       -0.001119        0.042470
   7 O       -0.357367        1.203523       -0.504022        0.699501
   8 H        0.333509        0.298330       -0.016875        0.281456
  --------------------------------------------------------------------
  Sum:       -1.000000        1.717254       -1.717254        0.000000
  
  Multipole moment analysis of the density matrix
    Molecular charge:                      -1.000000
    Number of electrons:                   26.000000
      Center of electronic charge [Ang]: [ -0.000000,  -0.000000,   0.076056]
    Total nuclear charge:                  25.000000
      Center of nuclear charge [Ang]:    [  0.000000,   0.000000,  -0.000000]
    Dipole moment [D]:                     9.498084
      Cartesian components [D]:          [  0.000000,   0.000000,  -9.498084]
    RMS size of the density [Ang]:         2.041389
      Cartesian components [Ang]:        [  1.147194,   0.671180,   1.549431]
  
  Exciton analysis of the difference density matrix
    <r_h> [Ang]:                  [  0.000000,   0.000000,  -1.364697]
    <r_e> [Ang]:                  [ -0.000000,  -0.000000,   0.447346]
    |<r_e - r_h>| [Ang]:            1.812043
    Hole size [Ang]:                1.866973
      Cartesian components [Ang]: [  0.865777,   0.783689,   1.456657]
    Electron size [Ang]:            4.650217
      Cartesian components [Ang]: [  3.380535,   2.026360,   2.467867]

  Transition density matrix analysis:
  -----------------------------------
  
  CT numbers (Mulliken)
    omega =     0.8523
    <Phe> =     0.0000
  
  Exciton analysis of the transition density matrix
    Trans. dipole moment [D]:             0.066550
      Cartesian components [D]:         [  0.066550,   0.000000,   0.000000]
    <r_h> [Ang]:                        [ -0.000000,   0.000000,  -1.700733]
    <r_e> [Ang]:                        [ -0.000000,  -0.000000,   1.546123]
    |<r_e - r_h>| [Ang]:                  3.246856
    Hole size [Ang]:                      1.157621
      Cartesian components [Ang]:       [  0.457892,   0.405875,   0.982694]
    Electron size [Ang]:                  5.638005
      Cartesian components [Ang]:       [  4.360543,   2.565613,   2.488052]
    RMS electron-hole separation [Ang]:   6.603085
      Cartesian components [Ang]:       [  4.383173,   2.597777,   4.200009]
    Covariance(r_h, r_e) [Ang^2]:         0.034268
    Correlation coefficient:              0.005250
    Center-of-mass size [Ang]:            2.880787
      Cartesian components [Ang]:       [  2.192931,   1.298630,   1.342961]

  Decomposition into state-averaged NTOs
    H- 1 -> L+ 7: -0.5162 ( 53.3%)
    H- 1 -> L+ 2: -0.3994 ( 31.9%)
                   omega =  85.2%
  ----------------------------------------------------------------------------


  Excited state 9 (singlet, B1)                                    [converged]
  ----------------------------------------------------------------------------
  Term symbol:  9 (1) B1                                    R^2 =  3.17749e-06

  Total energy:                                           -153.7412472692 a.u.
  Excitation energy:                                               6.195709 eV

  Osc. strength:                                                      0.001452
  Trans. dip. moment [a.u.]:           [   0.097795,    0.000000,    0.000000]
  <i|r^2|0> [a.u.]:                    [   0.000000,    0.000000,    0.000000]

  Dip. moment [a.u.]:                  [   0.000000,    0.000000,   -1.735017]
  Total dipole [Debye]:                                               4.409974
  <r^2> [a.u.]:                        [ 110.436668,   36.741715,  246.465263]
  Total <r^2> [a.u.]:                                               393.643646

  V1^2 = 0.8721, V2^2 = 0.1279

  Important amplitudes:
      occ i      occ j       vir a       vir b          v   
    ---------------------------------------------------------
     7 (A1) A               6 (B1) A                  0.6084
     7 (A1) A               5 (B1) A                 -0.2427
    ---------------------------------------------------------

  Density matrix analysis:
  ------------------------
  NOs
    Occupation of frontier NOs:
       0.9795   1.0015
    Number of electrons: 26.000000
    Number of unpaired electrons: n_u =  2.79219, n_u,nl =  2.12860
    NO participation ratio (PR_NO):  3.916082
  
  
  Mulliken Population Analysis
  Atom      Charge (e)              h+              e-           Del q
  --------------------------------------------------------------------
   1 C       -0.673063        0.055372       -0.541450       -0.486078
   2 C       -0.673063        0.055372       -0.541450       -0.486078
   3 H        0.143443        0.000065       -0.037498       -0.037433
   4 H        0.143443        0.000065       -0.037498       -0.037433
   5 H        0.038736        0.041306       -0.011085        0.030220
   6 H        0.038736        0.041306       -0.011085        0.030220
   7 O       -0.355780        1.206619       -0.505531        0.701088
   8 H        0.337547        0.302486       -0.016992        0.285494
  --------------------------------------------------------------------
  Sum:       -1.000000        1.702590       -1.702590        0.000000
  
  Multipole moment analysis of the density matrix
    Molecular charge:                      -1.000000
    Number of electrons:                   26.000000
      Center of electronic charge [Ang]: [ -0.000000,  -0.000000,   0.035313]
    Total nuclear charge:                  25.000000
      Center of nuclear charge [Ang]:    [  0.000000,   0.000000,  -0.000000]
    Dipole moment [D]:                     4.409972
      Cartesian components [D]:          [  0.000000,   0.000000,  -4.409972]
    RMS size of the density [Ang]:         2.058743
      Cartesian components [Ang]:        [  1.090614,   0.629063,   1.628884]
  
  Exciton analysis of the difference density matrix
    <r_h> [Ang]:                  [ -0.000000,   0.000000,  -1.385469]
    <r_e> [Ang]:                  [ -0.000000,  -0.000000,  -0.179999]
    |<r_e - r_h>| [Ang]:            1.205471
    Hole size [Ang]:                1.854480
      Cartesian components [Ang]: [  0.854181,   0.782238,   1.448300]
    Electron size [Ang]:            4.791876
      Cartesian components [Ang]: [  3.092983,   1.815951,   3.177712]

  Transition density matrix analysis:
  -----------------------------------
  
  CT numbers (Mulliken)
    omega =     0.8551
    <Phe> =     0.0000
  
  Exciton analysis of the transition density matrix
    Trans. dipole moment [D]:             0.124284
      Cartesian components [D]:         [  0.124284,   0.000000,   0.000000]
    <r_h> [Ang]:                        [ -0.000000,   0.000000,  -1.716257]
    <r_e> [Ang]:                        [ -0.000000,  -0.000000,   0.451038]
    |<r_e - r_h>| [Ang]:                  2.167295
    Hole size [Ang]:                      1.141923
      Cartesian components [Ang]:       [  0.452135,   0.405877,   0.966864]
    Electron size [Ang]:                  5.973696
      Cartesian components [Ang]:       [  3.962820,   2.270617,   3.850376]
    RMS electron-hole separation [Ang]:   6.449015
      Cartesian components [Ang]:       [  3.987761,   2.306632,   4.512982]
    Covariance(r_h, r_e) [Ang^2]:         0.048198
    Correlation coefficient:              0.007066
    Center-of-mass size [Ang]:            3.044890
      Cartesian components [Ang]:       [  1.994649,   1.153292,   1.990641]

  Decomposition into state-averaged NTOs
    H- 1 -> L+ 2: -0.5192 ( 53.9%)
    H- 1 -> L+ 7:  0.3971 ( 31.5%)
                   omega =  85.5%
  ----------------------------------------------------------------------------


  Excited state 10 (singlet, B1)                                    [converged]
  ----------------------------------------------------------------------------
  Term symbol:  10 (1) B1                                   R^2 =  3.65552e-06

  Total energy:                                           -153.7359684216 a.u.
  Excitation energy:                                               6.339354 eV

  Osc. strength:                                                      0.001713
  Trans. dip. moment [a.u.]:           [  -0.105023,    0.000000,   -0.000000]
  <i|r^2|0> [a.u.]:                    [  -0.000000,   -0.000000,   -0.000000]

  Dip. moment [a.u.]:                  [  -0.000000,    0.000000,   -2.685925]
  Total dipole [Debye]:                                               6.826941
  <r^2> [a.u.]:                        [  74.246618,   32.337939,  206.203002]
  Total <r^2> [a.u.]:                                               312.787560

  V1^2 = 0.8782, V2^2 = 0.1218

  Important amplitudes:
      occ i      occ j       vir a       vir b          v   
    ---------------------------------------------------------
     4 (B1) A              13 (A1) A                 -0.5629
     4 (B1) A              12 (A1) A                  0.3238
    ---------------------------------------------------------

  Density matrix analysis:
  ------------------------
  NOs
    Occupation of frontier NOs:
       0.9649   0.9948
    Number of electrons: 26.000000
    Number of unpaired electrons: n_u =  2.74145, n_u,nl =  2.11104
    NO participation ratio (PR_NO):  3.853009
  
  
  Mulliken Population Analysis
  Atom      Charge (e)              h+              e-           Del q
  --------------------------------------------------------------------
   1 C       -0.752763        0.056148       -0.621927       -0.565779
   2 C       -0.752763        0.056148       -0.621927       -0.565779
   3 H        0.176670       -0.003244       -0.000963       -0.004206
   4 H        0.176670       -0.003244       -0.000963       -0.004206
   5 H        0.051407        0.015957        0.026935        0.042892
   6 H        0.051407        0.015957        0.026935        0.042892
   7 O       -0.103453        1.373187       -0.419773        0.953415
   8 H        0.152825        0.121641       -0.020869        0.100772
  --------------------------------------------------------------------
  Sum:       -1.000000        1.632550       -1.632550       -0.000000
  
  Multipole moment analysis of the density matrix
    Molecular charge:                      -1.000000
    Number of electrons:                   26.000000
      Center of electronic charge [Ang]: [  0.000000,  -0.000000,   0.054667]
    Total nuclear charge:                  25.000000
      Center of nuclear charge [Ang]:    [  0.000000,   0.000000,  -0.000000]
    Dipole moment [D]:                     6.826939
      Cartesian components [D]:          [ -0.000000,   0.000000,  -6.826939]
    RMS size of the density [Ang]:         1.834622
      Cartesian components [Ang]:        [  0.894237,   0.590161,   1.489257]
  
  Exciton analysis of the difference density matrix
    <r_h> [Ang]:                  [ -0.000000,  -0.000000,  -1.489671]
    <r_e> [Ang]:                  [  0.000000,   0.000000,   0.075746]
    |<r_e - r_h>| [Ang]:            1.565417
    Hole size [Ang]:                1.700149
      Cartesian components [Ang]: [  0.905388,   0.760867,   1.221418]
    Electron size [Ang]:            3.102781
      Cartesian components [Ang]: [  1.956566,   1.620047,   1.781726]

  Transition density matrix analysis:
  -----------------------------------
  
  CT numbers (Mulliken)
    omega =     0.8616
    <Phe> =    -0.0002
  
  Exciton analysis of the transition density matrix
    Trans. dipole moment [D]:             0.133470
      Cartesian components [D]:         [ -0.133470,   0.000000,  -0.000000]
    <r_h> [Ang]:                        [ -0.000000,  -0.000000,  -1.710713]
    <r_e> [Ang]:                        [  0.000000,  -0.000000,   0.937833]
    |<r_e - r_h>| [Ang]:                  2.648546
    Hole size [Ang]:                      1.156733
      Cartesian components [Ang]:       [  0.823765,   0.471869,   0.660896]
    Electron size [Ang]:                  3.465907
      Cartesian components [Ang]:       [  2.396331,   1.975614,   1.538525]
    RMS electron-hole separation [Ang]:   4.508766
      Cartesian components [Ang]:       [  2.530172,   2.030449,   3.131210]
    Covariance(r_h, r_e) [Ang^2]:         0.018186
    Correlation coefficient:              0.004536
    Center-of-mass size [Ang]:            1.829407
      Cartesian components [Ang]:       [  1.268879,   1.015960,   0.839345]

  Decomposition into state-averaged NTOs
    H- 0 -> L+ 1:  0.4679 ( 43.8%)
    H- 0 -> L+ 3: -0.3876 ( 30.0%)
    H- 0 -> L+ 5:  0.1895 (  7.2%)
    H- 0 -> L+ 6: -0.1324 (  3.5%)
    H- 0 -> L+ 0:  0.0859 (  1.5%)
                   omega =  86.2%
  ----------------------------------------------------------------------------


--------------------------------------------------------------------------------
  Time of ADC calculation:  CPU 271.20 s  wall 73.26 s
================================================================================
 
 --------------------------------------------------------------
             Orbital Energies (a.u.) and Symmetries
 --------------------------------------------------------------
 
 Alpha MOs, Restricted
 -- Occupied --                  
-20.213 -11.049 -11.047  -0.930  -0.854  -0.598  -0.473  -0.384
  1 A1    2 A1    1 B1    3 A1    4 A1    2 B1    5 A1    6 A1                 
 -0.328  -0.271  -0.194  -0.130  -0.129
  3 B1    7 A1    1 B2    4 B1    2 B2                                         
 -- Virtual --                   
  0.120   0.135   0.142   0.146   0.150   0.155   0.223   0.234
  5 B1    8 A1    3 B2    1 A2    9 A1    6 B1   10 A1    7 B1                 
  0.271   0.285   0.300   0.311   0.332   0.362   0.410   0.435
  2 A2   11 A1    8 B1    4 B2   12 A1   13 A1    3 A2    9 B1                 
  0.450   0.473   0.480   0.528   0.542   0.578   0.636   0.661
  5 B2   10 B1   14 A1   15 A1   11 B1   16 A1   12 B1   17 A1                 
  0.682   0.849   0.964   1.019   1.058   1.082   1.083   1.130
 13 B1   18 A1   19 A1    6 B2   20 A1   21 A1    4 A2   14 B1                 
  1.183   1.203   1.211   1.214   1.291   1.304   1.333   1.333
 15 B1    7 B2   16 B1   22 A1    5 A2   23 A1   24 A1   17 B1                 
  1.370   1.467   1.483   1.491   1.561   1.642   1.691   1.719
  8 B2    9 B2    6 A2   18 B1   19 B1   25 A1   20 B1   10 B2                 
  1.852   1.927   1.968   2.035   2.124   2.132   2.138   2.193
 26 A1   21 B1   27 A1    7 A2   11 B2   28 A1   22 B1   29 A1                 
  2.212   2.289   2.357   2.393   2.438   2.475   2.553   2.604
 12 B2   30 A1    8 A2   13 B2   23 B1   24 B1   31 A1    9 A2                 
  2.735   2.751   2.846   3.007   3.037   3.088   3.461   3.562
 25 B1   32 A1   26 B1   33 A1   34 A1   35 A1   27 B1   28 B1                 
  3.921   3.945   3.970   4.087   4.538
 14 B2   10 A2   36 A1   29 B1   37 A1                                         
 
 Beta MOs, Restricted
 -- Occupied --                  
-20.213 -11.049 -11.047  -0.930  -0.854  -0.598  -0.473  -0.384
  1 A1    2 A1    1 B1    3 A1    4 A1    2 B1    5 A1    6 A1                 
 -0.328  -0.271  -0.194  -0.130  -0.129
  3 B1    7 A1    1 B2    4 B1    2 B2                                         
 -- Virtual --                   
  0.120   0.135   0.142   0.146   0.150   0.155   0.223   0.234
  5 B1    8 A1    3 B2    1 A2    9 A1    6 B1   10 A1    7 B1                 
  0.271   0.285   0.300   0.311   0.332   0.362   0.410   0.435
  2 A2   11 A1    8 B1    4 B2   12 A1   13 A1    3 A2    9 B1                 
  0.450   0.473   0.480   0.528   0.542   0.578   0.636   0.661
  5 B2   10 B1   14 A1   15 A1   11 B1   16 A1   12 B1   17 A1                 
  0.682   0.849   0.964   1.019   1.058   1.082   1.083   1.130
 13 B1   18 A1   19 A1    6 B2   20 A1   21 A1    4 A2   14 B1                 
  1.183   1.203   1.211   1.214   1.291   1.304   1.333   1.333
 15 B1    7 B2   16 B1   22 A1    5 A2   23 A1   24 A1   17 B1                 
  1.370   1.467   1.483   1.491   1.561   1.642   1.691   1.719
  8 B2    9 B2    6 A2   18 B1   19 B1   25 A1   20 B1   10 B2                 
  1.852   1.927   1.968   2.035   2.124   2.132   2.138   2.193
 26 A1   21 B1   27 A1    7 A2   11 B2   28 A1   22 B1   29 A1                 
  2.212   2.289   2.357   2.393   2.438   2.475   2.553   2.604
 12 B2   30 A1    8 A2   13 B2   23 B1   24 B1   31 A1    9 A2                 
  2.735   2.751   2.846   3.007   3.037   3.088   3.461   3.562
 25 B1   32 A1   26 B1   33 A1   34 A1   35 A1   27 B1   28 B1                 
  3.921   3.945   3.970   4.087   4.538
 14 B2   10 A2   36 A1   29 B1   37 A1                                         
 --------------------------------------------------------------
 
          Ground-State Mulliken Net Atomic Charges

     Atom                 Charge (a.u.)
  ----------------------------------------
      1 C                    -0.181633
      2 C                    -0.181633
      3 H                     0.174153
      4 H                     0.174153
      5 H                     0.002955
      6 H                     0.002955
      7 O                    -1.060414
      8 H                     0.069465
  ----------------------------------------
  Sum of atomic charges =    -1.000000

 -----------------------------------------------------------------
                    Cartesian Multipole Moments
 -----------------------------------------------------------------
    Charge (ESU x 10^10)
                -4.8032
    Dipole Moment (Debye)
         X      -0.0000      Y       0.0000      Z       5.2765
       Tot       5.2765
    Quadrupole Moments (Debye-Ang)
        XX     -23.6736     XY       0.0000     YY     -26.5025
        XZ       0.0000     YZ      -0.0000     ZZ     -32.8532
    Octopole Moments (Debye-Ang^2)
       XXX       0.0000    XXY      -0.0000    XYY      -0.0000
       YYY      -0.0000    XXZ       1.0340    XYZ       0.0000
       YYZ      -0.0519    XZZ       0.0000    YZZ       0.0000
       ZZZ       6.1833
    Hexadecapole Moments (Debye-Ang^3)
      XXXX     -88.1175   XXXY      -0.0000   XXYY     -21.7937
      XYYY       0.0000   YYYY     -39.8703   XXXZ       0.0000
      XXYZ       0.0000   XYYZ      -0.0000   YYYZ       0.0000
      XXZZ     -70.6832   XYZZ       0.0000   YYZZ     -65.3656
      XZZZ       0.0000   YZZZ      -0.0000   ZZZZ    -292.3339
 -----------------------------------------------------------------
 Total job time:  182.08s(wall), 320.27s(cpu) 
 Wed Mar  2 16:49:50 2022

        *************************************************************
        *                                                           *
        *  Thank you very much for using Q-Chem.  Have a nice day.  *
        *                                                           *
        *************************************************************


