/src/tsommerfeld/qchem/exe/qcprog.exe .input0.678788.23948.qcin.1 /src/jdavis/qchem.scratch/qchem23948/

                  Welcome to Q-Chem
     A Quantum Leap Into The Future Of Chemistry


 Q-Chem 5.4 (devel), Q-Chem, Inc., Pleasanton, CA (2021)

 E. Epifanovsky,  A. T. B. Gilbert,  Xintian Feng,  Joonho Lee,  Yuezhi Mao,  
 N. Mardirossian,  P. Pokhilko,  A. White,  M. Wormit,  M. P. Coons,  
 A. L. Dempwolff,  Zhengting Gan,  D. Hait,  P. R. Horn,  L. D. Jacobson,  
 I. Kaliman,  J. Kussmann,  A. W. Lange,  Ka Un Lao,  D. S. Levine,  Jie Liu,  
 S. C. McKenzie,  A. F. Morrison,  K. Nanda,  F. Plasser,  D. R. Rehn,  
 M. L. Vidal,  Zhi-Qiang You,  Ying Zhu,  B. Alam,  B. Albrecht,  
 A. Aldossary,  E. Alguire,  J. H. Andersen,  D. Barton,  K. Begam,  A. Behn,  
 Y. A. Bernard,  E. J. Berquist,  H. Burton,  A. Carreras,  K. Carter-Fenk,  
 R. Chakraborty,  A. D. Chien,  K. D. Closser,  V. Cofer-Shabica,  
 S. Dasgupta,  Jia Deng,  M. de Wergifosse,  M. Diedenhofen,  Hainam Do,  
 S. Ehlert,  Po-Tung Fang,  S. Fatehi,  Qingguo Feng,  T. Friedhoff,  
 J. Gayvert,  Qinghui Ge,  G. Gidofalvi,  M. Goldey,  J. Gomes,  
 C. Gonzalez-Espinoza,  S. Gulania,  A. Gunina,  M. W. D. Hanson-Heine,  
 P. H. P. Harbach,  A. W. Hauser,  M. F. Herbst,  M. Hernandez Vera,  
 M. Hodecker,  Z. C. Holden,  S. Houck,  Xunkun Huang,  Kerwin Hui,  
 B. C. Huynh,  M. Ivanov,  Hyunjun Ji,  Hanjie Jiang,  B. Kaduk,  S. Kaehler,  
 K. Khistyaev,  Jaehoon Kim,  P. Klunzinger,  Z. Koczor-Benda,  
 Joong Hoon Koh,  D. Kosenkov,  L. Koulias,  T. Kowalczyk,  C. M. Krauter,  
 K. Kue,  A. Kunitsa,  T. Kus,  A. Landau,  K. V. Lawler,  D. Lefrancois,  
 S. Lehtola,  Rain Li,  Yi-Pei Li,  Jiashu Liang,  M. Liebenthal,  
 Hung-Hsuan Lin,  You-Sheng Lin,  Fenglai Liu,  Kuan-Yu Liu,  
 M. Loipersberger,  A. Luenser,  A. Manjanath,  P. Manohar,  E. Mansoor,  
 S. F. Manzer,  Shan-Ping Mao,  A. V. Marenich,  T. Markovich,  S. Mason,  
 S. A. Maurer,  P. F. McLaughlin,  M. F. S. J. Menger,  J.-M. Mewes,  
 S. A. Mewes,  P. Morgante,  J. W. Mullinax,  K. J. Oosterbaan,  G. Paran,  
 Alexander C. Paul,  Suranjan K. Paul,  F. Pavosevic,  Zheng Pei,  S. Prager,  
 E. I. Proynov,  E. Ramos,  B. Rana,  A. E. Rask,  A. Rettig,  R. M. Richard,  
 F. Rob,  E. Rossomme,  T. Scheele,  M. Scheurer,  M. Schneider,  
 N. Sergueev,  S. M. Sharada,  W. Skomorowski,  D. W. Small,  C. J. Stein,  
 Yu-Chuan Su,  E. J. Sundstrom,  Zhen Tao,  J. Thirman,  T. Tsuchimochi,  
 N. M. Tubman,  S. P. Veccham,  O. Vydrov,  J. Wenzel,  J. Witte,  A. Yamada,  
 Kun Yao,  S. Yeganeh,  S. R. Yost,  A. Zech,  Igor Ying Zhang,  Xing Zhang,  
 Yu Zhang,  D. Zuev,  A. Aspuru-Guzik,  A. T. Bell,  N. A. Besley,  
 K. B. Bravaya,  B. R. Brooks,  D. Casanova,  Jeng-Da Chai,  S. Coriani,  
 C. J. Cramer,  A. E. DePrince, III,  R. A. DiStasio Jr.,  A. Dreuw,  
 B. D. Dunietz,  T. R. Furlani,  W. A. Goddard III,  S. Grimme,  
 S. Hammes-Schiffer,  T. Head-Gordon,  W. J. Hehre,  Chao-Ping Hsu,  
 T.-C. Jagau,  Yousung Jung,  A. Klamt,  Jing Kong,  D. S. Lambrecht,  
 WanZhen Liang,  N. J. Mayhall,  C. W. McCurdy,  J. B. Neaton,  
 C. Ochsenfeld,  J. A. Parkhill,  R. Peverati,  V. A. Rassolov,  Yihan Shao,  
 L. V. Slipchenko,  T. Stauch,  R. P. Steele,  J. E. Subotnik,  
 A. J. W. Thom,  A. Tkatchenko,  D. G. Truhlar,  T. Van Voorhis,  
 T. A. Wesolowski,  K. B. Whaley,  H. L. Woodcock III,  P. M. Zimmerman,  
 S. Faraji,  P. M. W. Gill,  M. Head-Gordon,  J. M. Herbert,  A. I. Krylov

 Additional authors for Version 5.4.1: 
 S. Kotaru,  Shaozhi Li,  Xiangyuan Li,  F. Matz,  A. Molle,  Haisheng Ren,  
 Yingli Su,  Hung-Yi Tsai,  C. Utku,  Fang Wang

 Contributors to earlier versions of Q-Chem not listed above: 
 R. D. Adamson,  B. Austin,  R. Baer,  J. Baker,  G. J. O. Beran,  
 K. Brandhorst,  S. T. Brown,  E. F. C. Byrd,  A. K. Chakraborty,  
 G. K. L. Chan,  Chun-Min Chang,  Yunqing Chen,  C.-L. Cheng,  
 Siu Hung Chien,  D. M. Chipman,  D. L. Crittenden,  H. Dachsel,  
 R. J. Doerksen,  A. D. Dutoi,  R. G. Edgar,  J. Fosso-Tande,  
 L. Fusti-Molnar,  D. Ghosh,  A. Ghysels,  A. Golubeva-Zadorozhnaya,  
 J. Gonthier,  M. S. Gordon,  S. R. Gwaltney,  G. Hawkins,  J. E. Herr,  
 A. Heyden,  S. Hirata,  E. G. Hohenstein,  G. Kedziora,  F. J. Keil,  
 C. Kelley,  Jihan Kim,  R. A. King,  R. Z. Khaliullin,  P. P. Korambath,  
 W. Kurlancheek,  A. Laurent,  A. M. Lee,  M. S. Lee,  S. V. Levchenko,  
 Ching Yeh Lin,  D. Liotard,  E. Livshits,  R. C. Lochan,  I. Lotan,  
 L. A. Martinez-Martinez,  P. E. Maslen,  N. Nair,  D. P. O'Neill,  
 D. Neuhauser,  E. Neuscamman,  C. M. Oana,  R. Olivares-Amaya,  R. Olson,  
 T. M. Perrine,  B. Peters,  P. A. Pieniazek,  A. Prociuk,  Y. M. Rhee,  
 J. Ritchie,  M. A. Rohrdanz,  E. Rosta,  N. J. Russ,  H. F. Schaefer III,  
 M. W. Schmidt,  N. E. Schultz,  S. Sharma,  N. Shenvi,  C. D. Sherrill,  
 A. C. Simmonett,  A. Sodt,  T. Stein,  D. Stuck,  K. S. Thanthiriwatte,  
 V. Vanovschi,  L. Vogt,  Tao Wang,  A. Warshel,  M. A. Watson,  
 C. F. Williams,  Q. Wu,  X. Xu,  Jun Yang,  W. Zhang,  Yan Zhao

 Please cite Q-Chem as follows:
 Y. Shao et al., Mol. Phys. 113, 184-215 (2015)
 DOI: 10.1080/00268976.2014.952696

 Q-Chem 5.4.1 for Intel X86 EM64T Linux

 Parts of Q-Chem use Armadillo 9.900.5 (Nocturnal Misbehaviour).
 http://arma.sourceforge.net/

 Q-Chem begins on Wed Mar  2 16:34:41 2022  

 Host: node01
0

     Scratch files written to /src/jdavis/qchem.scratch/qchem23948//
 Processing $rem in /src/tsommerfeld/qchem/config/preferences:
 Processing $rem in /home/jdavis/.qchemrc:

 Checking the input file for inconsistencies... 	...done.

--------------------------------------------------------------
User input:
--------------------------------------------------------------
$molecule
-1 1
C        -0.6645000000    0.0000000000    1.1619088658
C         0.6645000000    0.0000000000    1.1619088658
H        -1.1590800000    0.0000000000    0.1995598658
H         1.1590800000    0.0000000000    0.1995598658
H        -1.1590800000    0.0000000000    2.1242568658
H         1.1590800000    0.0000000000    2.1242568658
O         0.0000000000    0.0000000000   -1.5841414040
H         0.0000000000    0.0000000000   -2.5471307683
$end
$rem
   METHOD adc(2)
   BASIS gen
   PURECART 11
   EE_STATES [0,0,10,0]
   scf_convergence 8
   ADC_DAVIDSON_MAXITER 120
   ADC_DAVIDSON_MAXSUBSPACE 200
   adc_nguess_singles 100
   THRESH 14
   S2THRESH 14
   adc_davidson_conv 5
   adc_davidson_thresh 14
   THREADS 10
   MEM_TOTAL 95000
   STATE_ANALYSIS TRUE
$end
$basis
C 1
S   9   1.00
      6.665000D+03           6.920000D-04
      1.000000D+03           5.329000D-03
      2.280000D+02           2.707700D-02
      6.471000D+01           1.017180D-01
      2.106000D+01           2.747400D-01
      7.495000D+00           4.485640D-01
      2.797000D+00           2.850740D-01
      5.215000D-01           1.520400D-02
      1.596000D-01          -3.191000D-03
S   9   1.00
      6.665000D+03          -1.460000D-04
      1.000000D+03          -1.154000D-03
      2.280000D+02          -5.725000D-03
      6.471000D+01          -2.331200D-02
      2.106000D+01          -6.395500D-02
      7.495000D+00          -1.499810D-01
      2.797000D+00          -1.272620D-01
      5.215000D-01           5.445290D-01
      1.596000D-01           5.804960D-01
S   1   1.00
      1.596000D-01           1.000000D+00
S   1   1.00
      0.0469000              1.0000000
P   4   1.00
      9.439000D+00           3.810900D-02
      2.002000D+00           2.094800D-01
      5.456000D-01           5.085570D-01
      1.517000D-01           4.688420D-01
P   1   1.00
      1.517000D-01           1.000000D+00
P   1   1.00
      0.0294206      1.0000000
P   1   1.00
      0.0147103      1.0000000
D   1   1.00
      5.500000D-01           1.0000000
****
C 2
S   9   1.00
      6.665000D+03           6.920000D-04
      1.000000D+03           5.329000D-03
      2.280000D+02           2.707700D-02
      6.471000D+01           1.017180D-01
      2.106000D+01           2.747400D-01
      7.495000D+00           4.485640D-01
      2.797000D+00           2.850740D-01
      5.215000D-01           1.520400D-02
      1.596000D-01          -3.191000D-03
S   9   1.00
      6.665000D+03          -1.460000D-04
      1.000000D+03          -1.154000D-03
      2.280000D+02          -5.725000D-03
      6.471000D+01          -2.331200D-02
      2.106000D+01          -6.395500D-02
      7.495000D+00          -1.499810D-01
      2.797000D+00          -1.272620D-01
      5.215000D-01           5.445290D-01
      1.596000D-01           5.804960D-01
S   1   1.00
      1.596000D-01           1.000000D+00
S   1   1.00
      0.0469000              1.0000000
P   4   1.00
      9.439000D+00           3.810900D-02
      2.002000D+00           2.094800D-01
      5.456000D-01           5.085570D-01
      1.517000D-01           4.688420D-01
P   1   1.00
      1.517000D-01           1.000000D+00
P   1   1.00
      0.0294206      1.0000000
P   1   1.00
      0.0147103      1.0000000
D   1   1.00
      5.500000D-01           1.0000000
****
H 3
cc-pVDZ
****
H 4
cc-pVDZ
****
H 5
cc-pVDZ
****
H 6
cc-pVDZ
****
O 7
aug-cc-pVDZ
****
H 8
cc-pVDZ
****
$end
--------------------------------------------------------------
 ----------------------------------------------------------------
             Standard Nuclear Orientation (Angstroms)
    I     Atom           X                Y                Z
 ----------------------------------------------------------------
    1      C      -0.6645000000    -0.0000000000     1.0270977517
    2      C       0.6645000000     0.0000000000     1.0270977517
    3      H      -1.1590800000    -0.0000000000     0.0647487517
    4      H       1.1590800000     0.0000000000     0.0647487517
    5      H      -1.1590800000    -0.0000000000     1.9894457517
    6      H       1.1590800000     0.0000000000     1.9894457517
    7      O       0.0000000000    -0.0000000000    -1.7189525181
    8      H       0.0000000000    -0.0000000000    -2.6819418824
 ----------------------------------------------------------------
 Molecular Point Group                 C2v   NOp =  4
 Largest Abelian Subgroup              C2v   NOp =  4
 Nuclear Repulsion Energy =          64.38561153 hartrees
 There are       13 alpha and       13 beta electrons
 Requested basis set is non-standard
 There are 42 shells and 90 basis functions
 Total memory of 95000 MB is distributed as follows: 
   MEM_STATIC is set to 192 MB
   QALLOC/CCMAN JOB total memory use is  94808 MB
 Warning: actual memory use might exceed 95000 MB

 Total QAlloc Memory Limit  95000 MB
 Mega-Array Size       188 MB
 MEM_STATIC part       192 MB

                       Distance Matrix (Angstroms)
             C (  1)   C (  2)   H (  3)   H (  4)   H (  5)   H (  6)
   C (  2)  1.329000
   H (  3)  1.082000  2.061931
   H (  4)  2.061931  1.082000  2.318160
   H (  5)  1.082000  2.061931  1.924697  3.013026
   H (  6)  2.061931  1.082000  3.013026  1.924697  2.318160
   O (  7)  2.825306  2.825306  2.127218  2.127218  3.885316  3.885316
   H (  8)  3.768094  3.768094  2.981237  2.981237  4.813037  4.813037
             O (  7)
   H (  8)  0.962989
 
 A cutoff of  1.0D-14 yielded    903 shell pairs
 There are      4183 function pairs (      4573 Cartesian)
 Smallest overlap matrix eigenvalue = 1.16E-03

 Scale SEOQF with 1.000000e-01/1.000000e-01/1.000000e-01

 Standard Electronic Orientation quadrupole field applied
 Nucleus-field energy     =    -0.0000000051 hartrees
 ================ Generating on-the-fly SAD Guess ================
Attempting to make child job directory: /src/jdavis/qchem.scratch/qchem23948//Frg1/
Attempting to make child job directory: /src/jdavis/qchem.scratch/qchem23948//Frg2/
Attempting to make child job directory: /src/jdavis/qchem.scratch/qchem23948//Frg3/
Creating input file /src/jdavis/qchem.scratch/qchem23948/Frg1.input
using default PutDataFrgm: nothing
calling putenv with: QCSCRATCH=/src/jdavis/qchem.scratch/qchem23948/ 
Spawning Job For Fragment 0
Done Job For Fragment 0
calling putenv with: QCSCRATCH=/src/jdavis/qchem.scratch 
calling putenv with: QCTHREADS=1 
Creating input file /src/jdavis/qchem.scratch/qchem23948/Frg2.input
using default PutDataFrgm: nothing
calling putenv with: QCSCRATCH=/src/jdavis/qchem.scratch/qchem23948/ 
Spawning Job For Fragment 1
Done Job For Fragment 1
calling putenv with: QCSCRATCH=/src/jdavis/qchem.scratch 
calling putenv with: QCTHREADS=1 
Creating input file /src/jdavis/qchem.scratch/qchem23948/Frg3.input
using default PutDataFrgm: nothing
calling putenv with: QCSCRATCH=/src/jdavis/qchem.scratch/qchem23948/ 
Spawning Job For Fragment 2
Done Job For Fragment 2
calling putenv with: QCSCRATCH=/src/jdavis/qchem.scratch 
calling putenv with: QCTHREADS=1 
 Time for running child jobs:  CPU 1.77 s  wall 80.51 s
 ============= Method Specific SAD Guess Constructed =============
 Guess from on-the-fly superposition of atomic densities
 Warning: Energy on first SCF cycle will be non-variational
 A restricted Hartree-Fock SCF calculation will be
 performed using Pulay DIIS extrapolation
 SCF converges when DIIS error is below 1.0E-08
 using 10 threads for integral computing
 -------------------------------------------------------
 OpenMP Integral computing Module                
 Release: version 1.0, May 2013, Q-Chem Inc. Pittsburgh 
 -------------------------------------------------------
 ---------------------------------------
  Cycle       Energy         DIIS Error
 ---------------------------------------
    1    -153.5741684062      5.98E-02
    2    -153.2896216377      1.22E-02
    3    -153.3532972179      1.04E-02
    4    -153.4399648400      7.81E-04
    5    -153.4409345239      2.14E-04
    6    -153.4410100244      4.56E-05
    7    -153.4410153283      1.21E-05
    8    -153.4410158779      3.62E-06
    9    -153.4410159248      6.98E-07
   10    -153.4410159264      1.35E-07
   11    -153.4410159265      4.54E-08
   12    -153.4410159265      1.44E-08
   13    -153.4410159265      2.60E-09 Convergence criterion met
 ---------------------------------------
 SCF time:  CPU 15.08 s  wall 1.52 s
 SCF   energy in the final basis set = -153.44101593
 Total energy in the final basis set = -153.44101593
================================================================================
|                                                                              |
|                                 A D C  M A N                                 |
|                                                                              |
 ------------------------------------------------------------------------------ 
|                                                                              |
| Components:                                                                  |
|                                                                              |
| - libvmm - 1.3-trunk                                                         |
|   Authors:                                                                   |
|   Evgeny Epifanovsky, Ilya Kaliman                                           |
|                                                                              |
| - libtensor - 2.5-trunk                                                      |
|   Authors:                                                                   |
|   Evgeny Epifanovsky, Michael Wormit, Dmitry Zuev, Sam Manzer,               |
|   Ilya Kaliman                                                               |
|                                                                              |
| - libwfa - 1.1-trunk                                                         |
|   Authors:                                                                   |
|   Felix Plasser, Stefanie Mewes (Baeppler), Benjamin Thomitzni,              |
|   Michael Wormit, Feng Chen, Anna I. Krylov, Pavel Pokhilko                  |
|                                                                              |
| - libadc - 1.1-trunk                                                         |
|   Authors:                                                                   |
|   Michael Wormit, Adrian L. Dempwolff, Philipp H. P. Harbach,                |
|   Caroline Krauter, Dirk Rehn, Matthias Schneider, Jan Wenzel                |
|                                                                              |
| - adcman - 2.6-trunk                                                         |
|   Authors:                                                                   |
|   Michael Wormit, Adrian L. Dempwolff, Philipp H. P. Harbach,                |
|   Caroline Krauter, Daniel Lefrancois, Jan-Michael Mewes, Dirk Rehn,         |
|   Matthias Schneider, Jan Wenzel, Andreas Dreuw                              |
|                                                                              |
| Authors of earlier versions of ADCMAN:                                       |
| Andreas Dreuw, Jan Hendrik Starcke, Dirk Rehn, Michael Wormit                |
|                                                                              |
================================================================================

 
 Alpha MOs, Restricted
 -- Occupied --                  
-20.213 -11.049 -11.047  -0.930  -0.854  -0.598  -0.473  -0.384
  1 A1    2 A1    1 B1    3 A1    4 A1    2 B1    5 A1    6 A1                 
 -0.328  -0.271  -0.194  -0.129  -0.128
  3 B1    7 A1    1 B2    4 B1    2 B2                                         
 -- Virtual --                   
  0.107   0.121   0.126   0.127   0.136   0.138   0.201   0.206
  5 B1    8 A1    3 B2    1 A2    6 B1    9 A1   10 A1    7 B1                 
  0.247   0.251   0.264   0.270   0.321   0.356   0.384   0.408
  2 A2   11 A1    8 B1    4 B2   12 A1   13 A1    3 A2    9 B1                 
  0.450   0.461   0.471   0.528   0.534   0.578   0.611   0.644
  5 B2   14 A1   10 B1   15 A1   11 B1   16 A1   12 B1   17 A1                 
  0.689   0.815   0.956   0.975   1.048   1.052   1.082   1.130
 13 B1   18 A1   19 A1    6 B2    4 A2   20 A1   21 A1   14 B1                 
  1.177   1.195   1.203   1.216   1.283   1.291   1.330   1.330
 15 B1   16 B1    7 B2   22 A1   23 A1    5 A2   17 B1   24 A1                 
  1.370   1.458   1.467   1.483   1.561   1.642   1.691   1.719
  8 B2   18 B1    9 B2    6 A2   19 B1   25 A1   20 B1   10 B2                 
  1.848   1.927   1.961   2.029   2.121   2.122   2.139   2.184
 26 A1   21 B1   27 A1    7 A2   28 A1   11 B2   22 B1   29 A1                 
  2.212   2.281   2.356   2.393   2.434   2.473   2.551   2.604
 12 B2   30 A1    8 A2   13 B2   23 B1   24 B1   31 A1    9 A2                 
  2.717   2.747   2.847   3.008   3.034   3.085   3.449   3.562
 25 B1   32 A1   26 B1   33 A1   34 A1   35 A1   27 B1   28 B1                 
  3.921   3.945   3.970   4.087   4.536
 14 B2   10 A2   36 A1   29 B1   37 A1                                         
 
 Beta MOs, Restricted
 -- Occupied --                  
-20.213 -11.049 -11.047  -0.930  -0.854  -0.598  -0.473  -0.384
  1 A1    2 A1    1 B1    3 A1    4 A1    2 B1    5 A1    6 A1                 
 -0.328  -0.271  -0.194  -0.129  -0.128
  3 B1    7 A1    1 B2    4 B1    2 B2                                         
 -- Virtual --                   
  0.107   0.121   0.126   0.127   0.136   0.138   0.201   0.206
  5 B1    8 A1    3 B2    1 A2    6 B1    9 A1   10 A1    7 B1                 
  0.247   0.251   0.264   0.270   0.321   0.356   0.384   0.408
  2 A2   11 A1    8 B1    4 B2   12 A1   13 A1    3 A2    9 B1                 
  0.450   0.461   0.471   0.528   0.534   0.578   0.611   0.644
  5 B2   14 A1   10 B1   15 A1   11 B1   16 A1   12 B1   17 A1                 
  0.689   0.815   0.956   0.975   1.048   1.052   1.082   1.130
 13 B1   18 A1   19 A1    6 B2    4 A2   20 A1   21 A1   14 B1                 
  1.177   1.195   1.203   1.216   1.283   1.291   1.330   1.330
 15 B1   16 B1    7 B2   22 A1   23 A1    5 A2   17 B1   24 A1                 
  1.370   1.458   1.467   1.483   1.561   1.642   1.691   1.719
  8 B2   18 B1    9 B2    6 A2   19 B1   25 A1   20 B1   10 B2                 
  1.848   1.927   1.961   2.029   2.121   2.122   2.139   2.184
 26 A1   21 B1   27 A1    7 A2   28 A1   11 B2   22 B1   29 A1                 
  2.212   2.281   2.356   2.393   2.434   2.473   2.551   2.604
 12 B2   30 A1    8 A2   13 B2   23 B1   24 B1   31 A1    9 A2                 
  2.717   2.747   2.847   3.008   3.034   3.085   3.449   3.562
 25 B1   32 A1   26 B1   33 A1   34 A1   35 A1   27 B1   28 B1                 
  3.921   3.945   3.970   4.087   4.536
 14 B2   10 A2   36 A1   29 B1   37 A1                                         

--------------------------------------------------------------------------------
                                   HF Summary                                   
--------------------------------------------------------------------------------
  Energy:                                                 -153.4410159265 a.u.
  Dip. moment [a.u.]:                  [  -0.000000,    0.000000,    2.073748]
  Total dipole [Debye]:                                               5.270941
  <r^2> [a.u.]:                        [  55.721174,   19.715455,  208.020964]
  Total <r^2> [a.u.]:                                               283.457593
--------------------------------------------------------------------------------

--------------------------------------------------------------------------------
                                 MP(2) Summary                                  
--------------------------------------------------------------------------------
  MP energy contribution:                                   -0.5274206567 a.u.
  Total energy:                                           -153.9684365832 a.u.
  Dip. moment [a.u.]:                  [   0.000000,    0.000000,    2.139835]
  Total dipole [Debye]:                                               5.438920
  <r^2> [a.u.]:                        [  56.718496,   20.432172,  209.278944]
  Total <r^2> [a.u.]:                                               286.429612

  Density matrix analysis:
  ------------------------
  NOs
    Occupation of frontier NOs:
       0.0446   1.9360
    Number of electrons: 26.000000
    Number of unpaired electrons: n_u =  0.71344, n_u,nl =  0.08502
    NO participation ratio (PR_NO): 22.992309
  
  
  Mulliken Population Analysis
  Atom      Charge (e)              h+              e-           Del q
  --------------------------------------------------------------------
   1 C       -0.181512        0.094918       -0.101253       -0.006335
   2 C       -0.181512        0.094918       -0.101253       -0.006335
   3 H        0.178941        0.017199       -0.009814        0.007385
   4 H        0.178941        0.017199       -0.009814        0.007385
   5 H        0.003312        0.018311       -0.013136        0.005175
   6 H        0.003312        0.018311       -0.013136        0.005175
   7 O       -1.050180        0.276736       -0.271862        0.004874
   8 H        0.048697        0.015715       -0.033039       -0.017323
  --------------------------------------------------------------------
  Sum:       -1.000000        0.553306       -0.553306       -0.000000
  
  Multipole moment analysis of the density matrix
    Molecular charge:                      -1.000000
    Number of electrons:                   26.000000
      Center of electronic charge [Ang]: [ -0.000000,  -0.000000,  -0.043552]
    Total nuclear charge:                  25.000000
      Center of nuclear charge [Ang]:    [  0.000000,   0.000000,  -0.000000]
    Dipole moment [D]:                     5.438919
      Cartesian components [D]:          [  0.000000,   0.000000,   5.438919]
    RMS size of the density [Ang]:         1.755860
      Cartesian components [Ang]:        [  0.781586,   0.469107,   1.500702]
  
  Exciton analysis of the difference density matrix
    <r_h> [Ang]:                  [ -0.000000,   0.000000,  -0.480188]
    <r_e> [Ang]:                  [ -0.000000,  -0.000000,  -0.543394]
    |<r_e - r_h>| [Ang]:            0.063206
    Hole size [Ang]:                1.989331
      Cartesian components [Ang]: [  0.908555,   0.779547,   1.588796]
    Electron size [Ang]:            2.323119
      Cartesian components [Ang]: [  1.153350,   0.985101,   1.759614]
--------------------------------------------------------------------------------
  Starting Davidson for singlet states of irrep B1 ... 
--------------------------------------------------------------------------------
   It NVec Conv  Avg. Norm  Max. Norm  Conv. states           Remark
--------------------------------------------------------------------------------
       100    0  1.574e-01  5.386e-01  0.2266 n n n n n n n n Guess.
    1  110    0  1.558e-02  6.870e-02  0.0536 n n n n n n n n 
    2  120    0  5.558e-03  3.494e-02  0.0523 n n n n n n n n 
    3  130    0  1.189e-02  1.175e-01  0.0523 n n n n n n n n 
    4  140    0  6.918e-03  5.905e-02  0.0523 n n n n n n n n 
    5  150    3  1.838e-03  1.649e-02  0.0523 y y y n n n n n 
    6  160    4  4.084e-04  3.771e-03  0.0523 y y y y n n n n 
    7  170    6  7.484e-05  6.826e-04  0.0523 y y y y y y n n 
    8  180    7  1.367e-05  1.252e-04  0.0523 y y y y y y y n 
    9  190    9  2.358e-06  2.194e-05  0.0523 y y y y y y y y 
   10  200   10  3.684e-07  3.372e-06  0.0523 y y y y y y y y Converged.
--------------------------------------------------------------------------------
  Davidson Summary: 
 ------------------------------------------------------------
  State  0: excitation energy =   0.0523 a.u.   (converged)
  State  1: excitation energy =   0.0669 a.u.   (converged)
  State  2: excitation energy =   0.0741 a.u.   (converged)
  State  3: excitation energy =   0.1062 a.u.   (converged)
  State  4: excitation energy =   0.1340 a.u.   (converged)
  State  5: excitation energy =   0.1465 a.u.   (converged)
  State  6: excitation energy =   0.1741 a.u.   (converged)
  State  7: excitation energy =   0.2010 a.u.   (converged)
  State  8: excitation energy =   0.2137 a.u.   (converged)
  State  9: excitation energy =   0.2157 a.u.   (converged)
 ------------------------------------------------------------


--------------------------------------------------------------------------------
                   State-averaged natural transition orbitals
--------------------------------------------------------------------------------
--------------------------------------------------------------------------------

--------------------------------------------------------------------------------
                             Excited State Summary
--------------------------------------------------------------------------------
--------------------------------------------------------------------------------

  Excited state 1 (singlet, B1)                                    [converged]
  ----------------------------------------------------------------------------
  Term symbol:  1 (1) B1                                    R^2 =  6.89265e-10

  Total energy:                                           -153.9161313298 a.u.
  Excitation energy:                                               1.423298 eV

  Osc. strength:                                                      0.006663
  Trans. dip. moment [a.u.]:           [  -0.437139,    0.000000,    0.000000]
  <i|r^2|0> [a.u.]:                    [   0.000000,    0.000000,   -0.000000]

  Dip. moment [a.u.]:                  [  -0.000000,    0.000000,   -3.549690]
  Total dipole [Debye]:                                               9.022413
  <r^2> [a.u.]:                        [  80.053292,   44.298304,  274.570656]
  Total <r^2> [a.u.]:                                               398.922252

  V1^2 = 0.8675, V2^2 = 0.1325

  Important amplitudes:
      occ i      occ j       vir a       vir b          v   
    ---------------------------------------------------------
     4 (B1) A               8 (A1) A                 -0.6302
     4 (B1) A               9 (A1) A                 -0.1332
    ---------------------------------------------------------

  Density matrix analysis:
  ------------------------
  NOs
    Occupation of frontier NOs:
       0.9608   0.9989
    Number of electrons: 26.000000
    Number of unpaired electrons: n_u =  2.74655, n_u,nl =  2.11449
    NO participation ratio (PR_NO):  3.864227
  
  
  Mulliken Population Analysis
  Atom      Charge (e)              h+              e-           Del q
  --------------------------------------------------------------------
   1 C       -0.676038        0.046634       -0.541160       -0.494526
   2 C       -0.676038        0.046634       -0.541160       -0.494526
   3 H        0.130055       -0.007438       -0.041448       -0.048886
   4 H        0.130055       -0.007438       -0.041448       -0.048886
   5 H        0.035894        0.041278       -0.008696        0.032582
   6 H        0.035894        0.041278       -0.008696        0.032582
   7 O       -0.121232        1.394602       -0.465654        0.928948
   8 H        0.141410        0.142066       -0.049354        0.092713
  --------------------------------------------------------------------
  Sum:       -1.000000        1.697617       -1.697617        0.000000
  
  Multipole moment analysis of the density matrix
    Molecular charge:                      -1.000000
    Number of electrons:                   26.000000
      Center of electronic charge [Ang]: [  0.000000,  -0.000000,   0.072247]
    Total nuclear charge:                  25.000000
      Center of nuclear charge [Ang]:    [  0.000000,   0.000000,  -0.000000]
    Dipole moment [D]:                     9.022411
      Cartesian components [D]:          [ -0.000000,   0.000000,  -9.022411]
    RMS size of the density [Ang]:         2.071546
      Cartesian components [Ang]:        [  0.928547,   0.690730,   1.718137]
  
  Exciton analysis of the difference density matrix
    <r_h> [Ang]:                  [ -0.000000,   0.000000,  -1.453008]
    <r_e> [Ang]:                  [  0.000000,   0.000000,   0.320518]
    |<r_e - r_h>| [Ang]:            1.773526
    Hole size [Ang]:                1.828336
      Cartesian components [Ang]: [  0.945150,   0.806723,   1.341157]
    Electron size [Ang]:            4.889521
      Cartesian components [Ang]: [  2.177722,   2.141871,   3.818026]

  Transition density matrix analysis:
  -----------------------------------
  
  CT numbers (Mulliken)
    omega =     0.8526
    <Phe> =    -0.0009
  
  Exciton analysis of the transition density matrix
    Trans. dipole moment [D]:             0.555548
      Cartesian components [D]:         [ -0.555548,   0.000000,   0.000000]
    <r_h> [Ang]:                        [ -0.000000,  -0.000000,  -1.725735]
    <r_e> [Ang]:                        [  0.000000,   0.000000,   1.357127]
    |<r_e - r_h>| [Ang]:                  3.082862
    Hole size [Ang]:                      1.142063
      Cartesian components [Ang]:       [  0.826716,   0.474881,   0.628758]
    Electron size [Ang]:                  5.967378
      Cartesian components [Ang]:       [  2.741428,   2.701572,   4.560229]
    RMS electron-hole separation [Ang]:   6.810333
      Cartesian components [Ang]:       [  2.860741,   2.742932,   5.538332]
    Covariance(r_h, r_e) [Ang^2]:         0.018657
    Correlation coefficient:              0.002738
    Center-of-mass size [Ang]:            3.039376
      Cartesian components [Ang]:       [  1.432998,   1.371525,   2.302877]

  Decomposition into state-averaged NTOs
    H- 0 -> L+ 6:  0.4360 ( 38.0%)
    H- 0 -> L+ 5: -0.3711 ( 27.5%)
    H- 0 -> L+ 0: -0.1875 (  7.0%)
    H- 0 -> L+ 7:  0.1814 (  6.6%)
    H- 0 -> L+ 3:  0.1444 (  4.2%)
    H- 0 -> L+ 1:  0.0970 (  1.9%)
                   omega =  85.3%
  ----------------------------------------------------------------------------


  Excited state 2 (singlet, B1)                                    [converged]
  ----------------------------------------------------------------------------
  Term symbol:  2 (1) B1                                    R^2 =  2.87500e-10

  Total energy:                                           -153.9015169088 a.u.
  Excitation energy:                                               1.820977 eV

  Osc. strength:                                                      0.001632
  Trans. dip. moment [a.u.]:           [  -0.191276,   -0.000000,    0.000000]
  <i|r^2|0> [a.u.]:                    [  -0.000000,    0.000000,    0.000000]

  Dip. moment [a.u.]:                  [  -0.000000,   -0.000000,   -2.935486]
  Total dipole [Debye]:                                               7.461262
  <r^2> [a.u.]:                        [ 118.096679,   80.082288,  218.597793]
  Total <r^2> [a.u.]:                                               416.776760

  V1^2 = 0.8643, V2^2 = 0.1357

  Important amplitudes:
      occ i      occ j       vir a       vir b          v   
    ---------------------------------------------------------
     2 (B2) A               1 (A2) A                  0.6492
     2 (B2) A               2 (A2) A                 -0.0775
    ---------------------------------------------------------

  Density matrix analysis:
  ------------------------
  NOs
    Occupation of frontier NOs:
       0.9600   0.9993
    Number of electrons: 26.000000
    Number of unpaired electrons: n_u =  2.74983, n_u,nl =  2.11665
    NO participation ratio (PR_NO):  3.873786
  
  
  Mulliken Population Analysis
  Atom      Charge (e)              h+              e-           Del q
  --------------------------------------------------------------------
   1 C       -0.676556        0.046778       -0.541822       -0.495044
   2 C       -0.676556        0.046778       -0.541822       -0.495044
   3 H        0.141086       -0.002980       -0.034875       -0.037855
   4 H        0.141086       -0.002980       -0.034875       -0.037855
   5 H        0.035612        0.034787       -0.002487        0.032300
   6 H        0.035612        0.034787       -0.002487        0.032300
   7 O       -0.166071        1.404534       -0.520425        0.884109
   8 H        0.165787        0.142805       -0.025715        0.117089
  --------------------------------------------------------------------
  Sum:       -1.000000        1.704507       -1.704507        0.000000
  
  Multipole moment analysis of the density matrix
    Molecular charge:                      -1.000000
    Number of electrons:                   26.000000
      Center of electronic charge [Ang]: [  0.000000,   0.000000,   0.059746]
    Total nuclear charge:                  25.000000
      Center of nuclear charge [Ang]:    [  0.000000,   0.000000,  -0.000000]
    Dipole moment [D]:                     7.461260
      Cartesian components [D]:          [ -0.000000,  -0.000000,  -7.461260]
    RMS size of the density [Ang]:         2.117842
      Cartesian components [Ang]:        [  1.127803,   0.928715,   1.533232]
  
  Exciton analysis of the difference density matrix
    <r_h> [Ang]:                  [  0.000000,  -0.000000,  -1.485307]
    <r_e> [Ang]:                  [  0.000000,   0.000000,   0.090365]
    |<r_e - r_h>| [Ang]:            1.575672
    Hole size [Ang]:                1.797819
      Cartesian components [Ang]: [  0.864955,   0.899196,   1.294392]
    Electron size [Ang]:            5.181166
      Cartesian components [Ang]: [  3.291168,   3.257038,   2.324734]

  Transition density matrix analysis:
  -----------------------------------
  
  CT numbers (Mulliken)
    omega =     0.8498
    <Phe> =     0.0001
  
  Exciton analysis of the transition density matrix
    Trans. dipole moment [D]:             0.243087
      Cartesian components [D]:         [ -0.243087,  -0.000000,   0.000000]
    <r_h> [Ang]:                        [ -0.000000,  -0.000000,  -1.744399]
    <r_e> [Ang]:                        [  0.000000,   0.000000,   1.027147]
    |<r_e - r_h>| [Ang]:                  2.771546
    Hole size [Ang]:                      1.101051
      Cartesian components [Ang]:       [  0.480083,   0.828610,   0.543360]
    Electron size [Ang]:                  6.435547
      Cartesian components [Ang]:       [  4.226244,   4.202813,   2.427241]
    RMS electron-hole separation [Ang]:   7.092100
      Cartesian components [Ang]:       [  4.253324,   4.282396,   3.724005]
    Covariance(r_h, r_e) [Ang^2]:         0.006082
    Correlation coefficient:              0.000858
    Center-of-mass size [Ang]:            3.264994
      Cartesian components [Ang]:       [  2.126762,   2.142519,   1.243657]

  Decomposition into state-averaged NTOs
    H- 2 -> L+ 4: -0.5641 ( 63.6%)
    H- 2 -> L+ 9: -0.3264 ( 21.3%)
                   omega =  85.0%
  ----------------------------------------------------------------------------


  Excited state 3 (singlet, B1)                                    [converged]
  ----------------------------------------------------------------------------
  Term symbol:  3 (1) B1                                    R^2 =  7.28288e-10

  Total energy:                                           -153.8943714724 a.u.
  Excitation energy:                                               2.015414 eV

  Osc. strength:                                                      0.000029
  Trans. dip. moment [a.u.]:           [   0.024290,    0.000000,   -0.000000]
  <i|r^2|0> [a.u.]:                    [  -0.000000,   -0.000000,   -0.000000]

  Dip. moment [a.u.]:                  [  -0.000000,    0.000000,   -3.161217]
  Total dipole [Debye]:                                               8.035013
  <r^2> [a.u.]:                        [ 143.523474,   44.153229,  221.331959]
  Total <r^2> [a.u.]:                                               409.008661

  V1^2 = 0.8656, V2^2 = 0.1344

  Important amplitudes:
      occ i      occ j       vir a       vir b          v   
    ---------------------------------------------------------
     4 (B1) A               9 (A1) A                 -0.6372
     4 (B1) A               8 (A1) A                  0.1429
    ---------------------------------------------------------

  Density matrix analysis:
  ------------------------
  NOs
    Occupation of frontier NOs:
       0.9604   0.9991
    Number of electrons: 26.000000
    Number of unpaired electrons: n_u =  2.74878, n_u,nl =  2.11559
    NO participation ratio (PR_NO):  3.870872
  
  
  Mulliken Population Analysis
  Atom      Charge (e)              h+              e-           Del q
  --------------------------------------------------------------------
   1 C       -0.676452        0.051264       -0.546205       -0.494940
   2 C       -0.676452        0.051264       -0.546205       -0.494940
   3 H        0.130665       -0.006882       -0.041394       -0.048277
   4 H        0.130665       -0.006882       -0.041394       -0.048277
   5 H        0.036268        0.038965       -0.006008        0.032957
   6 H        0.036268        0.038965       -0.006008        0.032957
   7 O       -0.122771        1.400720       -0.473311        0.927409
   8 H        0.141809        0.139000       -0.045888        0.093112
  --------------------------------------------------------------------
  Sum:       -1.000000        1.706413       -1.706413        0.000000
  
  Multipole moment analysis of the density matrix
    Molecular charge:                      -1.000000
    Number of electrons:                   26.000000
      Center of electronic charge [Ang]: [  0.000000,  -0.000000,   0.064340]
    Total nuclear charge:                  25.000000
      Center of nuclear charge [Ang]:    [  0.000000,   0.000000,  -0.000000]
    Dipole moment [D]:                     8.035011
      Cartesian components [D]:          [ -0.000000,   0.000000,  -8.035011]
    RMS size of the density [Ang]:         2.097860
      Cartesian components [Ang]:        [  1.243300,   0.689598,   1.542621]
  
  Exciton analysis of the difference density matrix
    <r_h> [Ang]:                  [ -0.000000,   0.000000,  -1.454844]
    <r_e> [Ang]:                  [  0.000000,  -0.000000,   0.189069]
    |<r_e - r_h>| [Ang]:            1.643914
    Hole size [Ang]:                1.819828
      Cartesian components [Ang]: [  0.948190,   0.807679,   1.326788]
    Electron size [Ang]:            5.050570
      Cartesian components [Ang]: [  3.891538,   2.131914,   2.412288]

  Transition density matrix analysis:
  -----------------------------------
  
  CT numbers (Mulliken)
    omega =     0.8509
    <Phe> =    -0.0001
  
  Exciton analysis of the transition density matrix
    Trans. dipole moment [D]:             0.030870
      Cartesian components [D]:         [  0.030870,   0.000000,  -0.000000]
    <r_h> [Ang]:                        [ -0.000000,  -0.000000,  -1.724605]
    <r_e> [Ang]:                        [  0.000000,  -0.000000,   1.171907]
    |<r_e - r_h>| [Ang]:                  2.896512
    Hole size [Ang]:                      1.144100
      Cartesian components [Ang]:       [  0.827269,   0.474984,   0.631648]
    Electron size [Ang]:                  6.239678
      Cartesian components [Ang]:       [  5.028507,   2.697890,   2.523705]
    RMS electron-hole separation [Ang]:   6.971973
      Cartesian components [Ang]:       [  5.094439,   2.739304,   3.892468]
    Covariance(r_h, r_e) [Ang^2]:         0.011961
    Correlation coefficient:              0.001676
    Center-of-mass size [Ang]:            3.172793
      Cartesian components [Ang]:       [  2.548883,   1.369731,   1.301403]

  Decomposition into state-averaged NTOs
    H- 0 -> L+ 5: -0.4439 ( 39.4%)
    H- 0 -> L+ 7: -0.3383 ( 22.9%)
    H- 0 -> L+ 6: -0.2417 ( 11.7%)
    H- 0 -> L+ 3: -0.1775 (  6.3%)
    H- 0 -> L+ 1:  0.1286 (  3.3%)
    H- 0 -> L+ 0: -0.0864 (  1.5%)
                   omega =  85.1%
  ----------------------------------------------------------------------------


  Excited state 4 (singlet, B1)                                    [converged]
  ----------------------------------------------------------------------------
  Term symbol:  4 (1) B1                                    R^2 =  5.14978e-09

  Total energy:                                           -153.8622630276 a.u.
  Excitation energy:                                               2.889129 eV

  Osc. strength:                                                      0.022850
  Trans. dip. moment [a.u.]:           [   0.568169,   -0.000000,    0.000000]
  <i|r^2|0> [a.u.]:                    [   0.000000,   -0.000000,   -0.000000]

  Dip. moment [a.u.]:                  [  -0.000000,    0.000000,   -3.132339]
  Total dipole [Debye]:                                               7.961613
  <r^2> [a.u.]:                        [  83.479941,   27.408735,  213.194019]
  Total <r^2> [a.u.]:                                               324.082695

  V1^2 = 0.8708, V2^2 = 0.1292

  Important amplitudes:
      occ i      occ j       vir a       vir b          v   
    ---------------------------------------------------------
     4 (B1) A              10 (A1) A                 -0.6197
     4 (B1) A              11 (A1) A                  0.1472
    ---------------------------------------------------------

  Density matrix analysis:
  ------------------------
  NOs
    Occupation of frontier NOs:
       0.9627   0.9938
    Number of electrons: 26.000000
    Number of unpaired electrons: n_u =  2.74688, n_u,nl =  2.11391
    NO participation ratio (PR_NO):  3.878792
  
  
  Mulliken Population Analysis
  Atom      Charge (e)              h+              e-           Del q
  --------------------------------------------------------------------
   1 C       -0.709924        0.050856       -0.579268       -0.528412
   2 C       -0.709924        0.050856       -0.579268       -0.528412
   3 H        0.148974       -0.004572       -0.025395       -0.029967
   4 H        0.148974       -0.004572       -0.025395       -0.029967
   5 H        0.105378        0.039471        0.062595        0.102066
   6 H        0.105378        0.039471        0.062595        0.102066
   7 O       -0.322418        1.364428       -0.636666        0.727762
   8 H        0.233561        0.135968        0.048896        0.184864
  --------------------------------------------------------------------
  Sum:       -1.000000        1.671905       -1.671905       -0.000000
  
  Multipole moment analysis of the density matrix
    Molecular charge:                      -1.000000
    Number of electrons:                   26.000000
      Center of electronic charge [Ang]: [  0.000000,  -0.000000,   0.063752]
    Total nuclear charge:                  25.000000
      Center of nuclear charge [Ang]:    [  0.000000,   0.000000,  -0.000000]
    Dipole moment [D]:                     7.961610
      Cartesian components [D]:          [ -0.000000,   0.000000,  -7.961610]
    RMS size of the density [Ang]:         1.867194
      Cartesian components [Ang]:        [  0.948212,   0.543324,   1.513970]
  
  Exciton analysis of the difference density matrix
    <r_h> [Ang]:                  [ -0.000000,   0.000000,  -1.442896]
    <r_e> [Ang]:                  [  0.000000,  -0.000000,   0.225808]
    |<r_e - r_h>| [Ang]:            1.668704
    Hole size [Ang]:                1.781568
      Cartesian components [Ang]: [  0.936516,   0.768566,   1.306228]
    Electron size [Ang]:            3.392858
      Cartesian components [Ang]: [  2.315028,   1.326349,   2.095932]

  Transition density matrix analysis:
  -----------------------------------
  
  CT numbers (Mulliken)
    omega =     0.8548
    <Phe> =    -0.0016
  
  Exciton analysis of the transition density matrix
    Trans. dipole moment [D]:             0.722070
      Cartesian components [D]:         [  0.722070,  -0.000000,   0.000000]
    <r_h> [Ang]:                        [ -0.000000,  -0.000000,  -1.713705]
    <r_e> [Ang]:                        [  0.000000,  -0.000000,   1.172387]
    |<r_e - r_h>| [Ang]:                  2.886092
    Hole size [Ang]:                      1.155811
      Cartesian components [Ang]:       [  0.825679,   0.473548,   0.655672]
    Electron size [Ang]:                  3.878319
      Cartesian components [Ang]:       [  2.913803,   1.595384,   2.001464]
    RMS electron-hole separation [Ang]:   4.963718
      Cartesian components [Ang]:       [  3.022678,   1.663935,   3.568366]
    Covariance(r_h, r_e) [Ang^2]:         0.034143
    Correlation coefficient:              0.007617
    Center-of-mass size [Ang]:            2.027655
      Cartesian components [Ang]:       [  1.517185,   0.832214,   1.056861]

  Decomposition into state-averaged NTOs
    H- 0 -> L+ 7:  0.4139 ( 34.3%)
    H- 0 -> L+ 3: -0.3797 ( 28.8%)
    H- 0 -> L+ 1: -0.1966 (  7.7%)
    H- 0 -> L+ 5: -0.1935 (  7.5%)
    H- 0 -> L+ 0:  0.1558 (  4.9%)
    H- 0 -> L+ 6: -0.1050 (  2.2%)
                   omega =  85.5%
  ----------------------------------------------------------------------------


  Excited state 5 (singlet, B1)                                    [converged]
  ----------------------------------------------------------------------------
  Term symbol:  5 (1) B1                                    R^2 =  7.04368e-09

  Total energy:                                           -153.8344448490 a.u.
  Excitation energy:                                               3.646101 eV

  Osc. strength:                                                      0.000158
  Trans. dip. moment [a.u.]:           [   0.042063,    0.000000,    0.000000]
  <i|r^2|0> [a.u.]:                    [  -0.000000,   -0.000000,    0.000000]

  Dip. moment [a.u.]:                  [   0.000000,   -0.000000,   -2.897519]
  Total dipole [Debye]:                                               7.364760
  <r^2> [a.u.]:                        [  75.346990,   36.943840,  205.441843]
  Total <r^2> [a.u.]:                                               317.732672

  V1^2 = 0.8698, V2^2 = 0.1302

  Important amplitudes:
      occ i      occ j       vir a       vir b          v   
    ---------------------------------------------------------
     2 (B2) A               2 (A2) A                  0.6201
     2 (B2) A               3 (A2) A                  0.2011
    ---------------------------------------------------------

  Density matrix analysis:
  ------------------------
  NOs
    Occupation of frontier NOs:
       0.9648   0.9940
    Number of electrons: 26.000000
    Number of unpaired electrons: n_u =  2.73099, n_u,nl =  2.10616
    NO participation ratio (PR_NO):  3.829907
  
  
  Mulliken Population Analysis
  Atom      Charge (e)              h+              e-           Del q
  --------------------------------------------------------------------
   1 C       -0.627146        0.071784       -0.517419       -0.445634
   2 C       -0.627146        0.071784       -0.517419       -0.445634
   3 H        0.122755        0.002115       -0.058301       -0.056186
   4 H        0.122755        0.002115       -0.058301       -0.056186
   5 H        0.005228        0.010483       -0.008567        0.001916
   6 H        0.005228        0.010483       -0.008567        0.001916
   7 O       -0.152114        1.368449       -0.470383        0.898066
   8 H        0.150441        0.123936       -0.022192        0.101744
  --------------------------------------------------------------------
  Sum:       -1.000000        1.661148       -1.661148       -0.000000
  
  Multipole moment analysis of the density matrix
    Molecular charge:                      -1.000000
    Number of electrons:                   26.000000
      Center of electronic charge [Ang]: [ -0.000000,   0.000000,   0.058973]
    Total nuclear charge:                  25.000000
      Center of nuclear charge [Ang]:    [  0.000000,   0.000000,  -0.000000]
    Dipole moment [D]:                     7.364757
      Cartesian components [D]:          [  0.000000,  -0.000000,  -7.364757]
    RMS size of the density [Ang]:         1.848948
      Cartesian components [Ang]:        [  0.900839,   0.630791,   1.486337]
  
  Exciton analysis of the difference density matrix
    <r_h> [Ang]:                  [  0.000000,  -0.000000,  -1.479535]
    <r_e> [Ang]:                  [  0.000000,   0.000000,   0.125171]
    |<r_e - r_h>| [Ang]:            1.604706
    Hole size [Ang]:                1.677947
      Cartesian components [Ang]: [  0.808801,   0.859373,   1.192822]
    Electron size [Ang]:            3.204026
      Cartesian components [Ang]: [  1.947938,   1.876695,   1.717364]

  Transition density matrix analysis:
  -----------------------------------
  
  CT numbers (Mulliken)
    omega =     0.8473
    <Phe> =    -0.0007
  
  Exciton analysis of the transition density matrix
    Trans. dipole moment [D]:             0.053457
      Cartesian components [D]:         [  0.053457,   0.000000,   0.000000]
    <r_h> [Ang]:                        [ -0.000000,  -0.000000,  -1.737139]
    <r_e> [Ang]:                        [  0.000000,   0.000000,   1.027382]
    |<r_e - r_h>| [Ang]:                  2.764521
    Hole size [Ang]:                      1.105705
      Cartesian components [Ang]:       [  0.479618,   0.824242,   0.559621]
    Electron size [Ang]:                  3.620691
      Cartesian components [Ang]:       [  2.397376,   2.343855,   1.366869]
    RMS electron-hole separation [Ang]:   4.686189
      Cartesian components [Ang]:       [  2.444380,   2.482249,   3.134296]
    Covariance(r_h, r_e) [Ang^2]:         0.007098
    Correlation coefficient:              0.001773
    Center-of-mass size [Ang]:            1.893818
      Cartesian components [Ang]:       [  1.222692,   1.243433,   0.738542]

  Decomposition into state-averaged NTOs
    H- 2 -> L+ 9: -0.5621 ( 63.2%)
    H- 2 -> L+ 4:  0.3266 ( 21.3%)
                   omega =  84.7%
  ----------------------------------------------------------------------------


  Excited state 6 (singlet, B1)                                    [converged]
  ----------------------------------------------------------------------------
  Term symbol:  6 (1) B1                                    R^2 =  1.14138e-08

  Total energy:                                           -153.8219531035 a.u.
  Excitation energy:                                               3.986018 eV

  Osc. strength:                                                      0.016492
  Trans. dip. moment [a.u.]:           [  -0.410952,    0.000000,    0.000000]
  <i|r^2|0> [a.u.]:                    [   0.000000,    0.000000,   -0.000000]

  Dip. moment [a.u.]:                  [  -0.000000,    0.000000,   -3.187513]
  Total dipole [Debye]:                                               8.101852
  <r^2> [a.u.]:                        [  70.215911,   33.970049,  243.336870]
  Total <r^2> [a.u.]:                                               347.522830

  V1^2 = 0.8742, V2^2 = 0.1258

  Important amplitudes:
      occ i      occ j       vir a       vir b          v   
    ---------------------------------------------------------
     4 (B1) A              11 (A1) A                 -0.5704
     4 (B1) A              12 (A1) A                  0.2063
    ---------------------------------------------------------

  Density matrix analysis:
  ------------------------
  NOs
    Occupation of frontier NOs:
       0.9648   0.9927
    Number of electrons: 26.000000
    Number of unpaired electrons: n_u =  2.74572, n_u,nl =  2.11358
    NO participation ratio (PR_NO):  3.872387
  
  
  Mulliken Population Analysis
  Atom      Charge (e)              h+              e-           Del q
  --------------------------------------------------------------------
   1 C       -0.781736        0.043935       -0.644159       -0.600224
   2 C       -0.781736        0.043935       -0.644159       -0.600224
   3 H        0.124421       -0.005835       -0.048686       -0.054521
   4 H        0.124421       -0.005835       -0.048686       -0.054521
   5 H        0.080070        0.041104        0.035654        0.076758
   6 H        0.080070        0.041104        0.035654        0.076758
   7 O       -0.114128        1.359499       -0.423447        0.936052
   8 H        0.268618        0.139684        0.080236        0.219921
  --------------------------------------------------------------------
  Sum:       -1.000000        1.657591       -1.657591       -0.000000
  
  Multipole moment analysis of the density matrix
    Molecular charge:                      -1.000000
    Number of electrons:                   26.000000
      Center of electronic charge [Ang]: [  0.000000,  -0.000000,   0.064875]
    Total nuclear charge:                  25.000000
      Center of nuclear charge [Ang]:    [  0.000000,   0.000000,  -0.000000]
    Dipole moment [D]:                     8.101849
      Cartesian components [D]:          [ -0.000000,   0.000000,  -8.101849]
    RMS size of the density [Ang]:         1.933579
      Cartesian components [Ang]:        [  0.869625,   0.604871,   1.617594]
  
  Exciton analysis of the difference density matrix
    <r_h> [Ang]:                  [ -0.000000,  -0.000000,  -1.446372]
    <r_e> [Ang]:                  [  0.000000,  -0.000000,   0.254357]
    |<r_e - r_h>| [Ang]:            1.700728
    Hole size [Ang]:                1.792751
      Cartesian components [Ang]: [  0.926769,   0.776457,   1.323696]
    Electron size [Ang]:            3.944891
      Cartesian components [Ang]: [  1.771755,   1.699981,   3.087574]

  Transition density matrix analysis:
  -----------------------------------
  
  CT numbers (Mulliken)
    omega =     0.8579
    <Phe> =    -0.0031
  
  Exciton analysis of the transition density matrix
    Trans. dipole moment [D]:             0.522268
      Cartesian components [D]:         [ -0.522268,   0.000000,   0.000000]
    <r_h> [Ang]:                        [ -0.000000,  -0.000000,  -1.715676]
    <r_e> [Ang]:                        [  0.000000,  -0.000000,   1.183817]
    |<r_e - r_h>| [Ang]:                  2.899493
    Hole size [Ang]:                      1.152484
      Cartesian components [Ang]:       [  0.824624,   0.474277,   0.650597]
    Electron size [Ang]:                  4.631646
      Cartesian components [Ang]:       [  2.169813,   2.088579,   3.518791]
    RMS electron-hole separation [Ang]:   5.578774
      Cartesian components [Ang]:       [  2.316529,   2.141692,   4.601040]
    Covariance(r_h, r_e) [Ang^2]:         0.032352
    Correlation coefficient:              0.006061
    Center-of-mass size [Ang]:            2.389826
      Cartesian components [Ang]:       [  1.162958,   1.070906,   1.792193]

  Decomposition into state-averaged NTOs
    H- 0 -> L+ 6: -0.3692 ( 27.3%)
    H- 0 -> L+ 7:  0.3220 ( 20.7%)
    H- 0 -> L+ 1:  0.2951 ( 17.4%)
    H- 0 -> L+ 0: -0.2301 ( 10.6%)
    H- 0 -> L+ 3:  0.2182 (  9.5%)
                   omega =  85.8%
  ----------------------------------------------------------------------------


  Excited state 7 (singlet, B1)                                    [converged]
  ----------------------------------------------------------------------------
  Term symbol:  7 (1) B1                                    R^2 =  4.37966e-08

  Total energy:                                           -153.7942990293 a.u.
  Excitation energy:                                               4.738524 eV

  Osc. strength:                                                      0.023112
  Trans. dip. moment [a.u.]:           [  -0.446191,    0.000000,   -0.000000]
  <i|r^2|0> [a.u.]:                    [  -0.000000,    0.000000,    0.000000]

  Dip. moment [a.u.]:                  [  -0.000000,    0.000000,    1.256717]
  Total dipole [Debye]:                                               3.194257
  <r^2> [a.u.]:                        [  77.964819,   28.936914,  225.730153]
  Total <r^2> [a.u.]:                                               332.631886

  V1^2 = 0.8928, V2^2 = 0.1072

  Important amplitudes:
      occ i      occ j       vir a       vir b          v   
    ---------------------------------------------------------
     4 (B1) A              13 (A1) A                 -0.4336
     4 (B1) A              12 (A1) A                  0.4031
    ---------------------------------------------------------

  Density matrix analysis:
  ------------------------
  NOs
    Occupation of frontier NOs:
       0.9660   0.9959
    Number of electrons: 26.000000
    Number of unpaired electrons: n_u =  2.71910, n_u,nl =  2.10295
    NO participation ratio (PR_NO):  3.786641
  
  
  Mulliken Population Analysis
  Atom      Charge (e)              h+              e-           Del q
  --------------------------------------------------------------------
   1 C       -0.307573        0.040538       -0.166599       -0.126061
   2 C       -0.307573        0.040538       -0.166599       -0.126061
   3 H        0.137203       -0.003488       -0.038251       -0.041738
   4 H        0.137203       -0.003488       -0.038251       -0.041738
   5 H        0.022866        0.025938       -0.006384        0.019554
   6 H        0.022866        0.025938       -0.006384        0.019554
   7 O       -1.513582        1.253884       -1.717286       -0.463402
   8 H        0.808589        0.182024        0.577868        0.759892
  --------------------------------------------------------------------
  Sum:       -1.000000        1.561886       -1.561886       -0.000000
  
  Multipole moment analysis of the density matrix
    Molecular charge:                      -1.000000
    Number of electrons:                   26.000000
      Center of electronic charge [Ang]: [  0.000000,  -0.000000,  -0.025578]
    Total nuclear charge:                  25.000000
      Center of nuclear charge [Ang]:    [  0.000000,   0.000000,  -0.000000]
    Dipole moment [D]:                     3.194256
      Cartesian components [D]:          [ -0.000000,   0.000000,   3.194256]
    RMS size of the density [Ang]:         1.892591
      Cartesian components [Ang]:        [  0.916355,   0.558265,   1.559017]
  
  Exciton analysis of the difference density matrix
    <r_h> [Ang]:                  [ -0.000000,  -0.000000,  -1.523551]
    <r_e> [Ang]:                  [  0.000000,  -0.000000,  -1.224344]
    |<r_e - r_h>| [Ang]:            0.299206
    Hole size [Ang]:                1.735521
      Cartesian components [Ang]: [  0.956535,   0.772703,   1.224746]
    Electron size [Ang]:            3.481058
      Cartesian components [Ang]: [  2.173519,   1.456666,   2.296020]

  Transition density matrix analysis:
  -----------------------------------
  
  CT numbers (Mulliken)
    omega =     0.8747
    <Phe> =    -0.0097
  
  Exciton analysis of the transition density matrix
    Trans. dipole moment [D]:             0.567052
      Cartesian components [D]:         [ -0.567052,   0.000000,  -0.000000]
    <r_h> [Ang]:                        [ -0.000000,  -0.000000,  -1.728879]
    <r_e> [Ang]:                        [  0.000000,  -0.000000,  -1.280145]
    |<r_e - r_h>| [Ang]:                  0.448734
    Hole size [Ang]:                      1.129109
      Cartesian components [Ang]:       [  0.820547,   0.471721,   0.615686]
    Electron size [Ang]:                  4.115699
      Cartesian components [Ang]:       [  2.597696,   1.703667,   2.699718]
    RMS electron-hole separation [Ang]:   4.280931
      Cartesian components [Ang]:       [  2.720477,   1.767664,   2.792980]
    Covariance(r_h, r_e) [Ang^2]:         0.044429
    Correlation coefficient:              0.009561
    Center-of-mass size [Ang]:            2.139084
      Cartesian components [Ang]:       [  1.363969,   0.883935,   1.390657]

  Decomposition into state-averaged NTOs
    H- 0 -> L+ 0: -0.5356 ( 57.4%)
    H- 0 -> L+ 3: -0.3240 ( 21.0%)
    H- 0 -> L+ 5:  0.1915 (  7.3%)
                   omega =  87.5%
  ----------------------------------------------------------------------------


  Excited state 8 (singlet, B1)                                    [converged]
  ----------------------------------------------------------------------------
  Term symbol:  8 (1) B1                                    R^2 =  5.19282e-07

  Total energy:                                           -153.7674485719 a.u.
  Excitation energy:                                               5.469162 eV

  Osc. strength:                                                      0.000302
  Trans. dip. moment [a.u.]:           [   0.047487,    0.000000,    0.000000]
  <i|r^2|0> [a.u.]:                    [   0.000000,    0.000000,    0.000000]

  Dip. moment [a.u.]:                  [   0.000000,    0.000000,   -3.610639]
  Total dipole [Debye]:                                               9.177331
  <r^2> [a.u.]:                        [ 137.729701,   46.244424,  227.644103]
  Total <r^2> [a.u.]:                                               411.618227

  V1^2 = 0.8680, V2^2 = 0.1320

  Important amplitudes:
      occ i      occ j       vir a       vir b          v   
    ---------------------------------------------------------
     7 (A1) A               5 (B1) A                  0.5911
     7 (A1) A               6 (B1) A                  0.2647
    ---------------------------------------------------------

  Density matrix analysis:
  ------------------------
  NOs
    Occupation of frontier NOs:
       0.9796   0.9998
    Number of electrons: 26.000000
    Number of unpaired electrons: n_u =  2.80207, n_u,nl =  2.13209
    NO participation ratio (PR_NO):  3.936848
  
  
  Mulliken Population Analysis
  Atom      Charge (e)              h+              e-           Del q
  --------------------------------------------------------------------
   1 C       -0.678835        0.064620       -0.561943       -0.497323
   2 C       -0.678835        0.064620       -0.561943       -0.497323
   3 H        0.146690        0.001459       -0.033711       -0.032251
   4 H        0.146690        0.001459       -0.033711       -0.032251
   5 H        0.047456        0.043739        0.000406        0.044145
   6 H        0.047456        0.043739        0.000406        0.044145
   7 O       -0.363672        1.200931       -0.514423        0.686508
   8 H        0.333049        0.301478       -0.017126        0.284352
  --------------------------------------------------------------------
  Sum:       -1.000000        1.722044       -1.722044       -0.000000
  
  Multipole moment analysis of the density matrix
    Molecular charge:                      -1.000000
    Number of electrons:                   26.000000
      Center of electronic charge [Ang]: [ -0.000000,  -0.000000,   0.073487]
    Total nuclear charge:                  25.000000
      Center of nuclear charge [Ang]:    [  0.000000,   0.000000,  -0.000000]
    Dipole moment [D]:                     9.177328
      Cartesian components [D]:          [  0.000000,   0.000000,  -9.177328]
    RMS size of the density [Ang]:         2.104249
      Cartesian components [Ang]:        [  1.217947,   0.705739,   1.564098]
  
  Exciton analysis of the difference density matrix
    <r_h> [Ang]:                  [  0.000000,  -0.000000,  -1.368500]
    <r_e> [Ang]:                  [ -0.000000,  -0.000000,   0.398598]
    |<r_e - r_h>| [Ang]:            1.767097
    Hole size [Ang]:                1.874612
      Cartesian components [Ang]: [  0.872344,   0.794341,   1.456780]
    Electron size [Ang]:            5.058212
      Cartesian components [Ang]: [  3.732900,   2.197365,   2.612002]

  Transition density matrix analysis:
  -----------------------------------
  
  CT numbers (Mulliken)
    omega =     0.8512
    <Phe> =     0.0001
  
  Exciton analysis of the transition density matrix
    Trans. dipole moment [D]:             0.060350
      Cartesian components [D]:         [  0.060350,   0.000000,   0.000000]
    <r_h> [Ang]:                        [  0.000000,  -0.000000,  -1.704660]
    <r_e> [Ang]:                        [ -0.000000,  -0.000000,   1.472156]
    |<r_e - r_h>| [Ang]:                  3.176815
    Hole size [Ang]:                      1.153265
      Cartesian components [Ang]:       [  0.456623,   0.406195,   0.978019]
    Electron size [Ang]:                  6.226908
      Cartesian components [Ang]:       [  4.832741,   2.795978,   2.757082]
    RMS electron-hole separation [Ang]:   7.080171
      Cartesian components [Ang]:       [  4.853280,   2.825535,   4.311711]
    Covariance(r_h, r_e) [Ang^2]:         0.033865
    Correlation coefficient:              0.004716
    Center-of-mass size [Ang]:            3.169074
      Cartesian components [Ang]:       [  2.427625,   1.412562,   1.467767]

  Decomposition into state-averaged NTOs
    H- 1 -> L+ 8:  0.5038 ( 50.8%)
    H- 1 -> L+ 2:  0.4143 ( 34.3%)
                   omega =  85.1%
  ----------------------------------------------------------------------------


  Excited state 9 (singlet, B1)                                    [converged]
  ----------------------------------------------------------------------------
  Term symbol:  9 (1) B1                                    R^2 =  1.38929e-06

  Total energy:                                           -153.7547470023 a.u.
  Excitation energy:                                               5.814789 eV

  Osc. strength:                                                      0.001646
  Trans. dip. moment [a.u.]:           [  -0.107500,   -0.000000,    0.000000]
  <i|r^2|0> [a.u.]:                    [   0.000000,    0.000000,    0.000000]

  Dip. moment [a.u.]:                  [  -0.000000,    0.000000,   -2.185740]
  Total dipole [Debye]:                                               5.555597
  <r^2> [a.u.]:                        [  70.276985,   34.129097,  208.075977]
  Total <r^2> [a.u.]:                                               312.482060

  V1^2 = 0.8811, V2^2 = 0.1189

  Important amplitudes:
      occ i      occ j       vir a       vir b          v   
    ---------------------------------------------------------
     4 (B1) A              13 (A1) A                 -0.4768
     4 (B1) A              12 (A1) A                 -0.4454
    ---------------------------------------------------------

  Density matrix analysis:
  ------------------------
  NOs
    Occupation of frontier NOs:
       0.9648   0.9960
    Number of electrons: 26.000000
    Number of unpaired electrons: n_u =  2.73559, n_u,nl =  2.10899
    NO participation ratio (PR_NO):  3.833349
  
  
  Mulliken Population Analysis
  Atom      Charge (e)              h+              e-           Del q
  --------------------------------------------------------------------
   1 C       -0.743461        0.057814       -0.619763       -0.561950
   2 C       -0.743461        0.057814       -0.619763       -0.561950
   3 H        0.214808       -0.004080        0.039946        0.035866
   4 H        0.214808       -0.004080        0.039946        0.035866
   5 H        0.067617        0.014362        0.049943        0.064305
   6 H        0.067617        0.014362        0.049943        0.064305
   7 O       -0.251599        1.356119       -0.557538        0.798581
   8 H        0.173673        0.125515       -0.000539        0.124976
  --------------------------------------------------------------------
  Sum:       -1.000000        1.617827       -1.617827       -0.000000
  
  Multipole moment analysis of the density matrix
    Molecular charge:                      -1.000000
    Number of electrons:                   26.000000
      Center of electronic charge [Ang]: [  0.000000,  -0.000000,   0.044486]
    Total nuclear charge:                  25.000000
      Center of nuclear charge [Ang]:    [  0.000000,   0.000000,  -0.000000]
    Dipole moment [D]:                     5.555595
      Cartesian components [D]:          [ -0.000000,   0.000000,  -5.555595]
    RMS size of the density [Ang]:         1.834000
      Cartesian components [Ang]:        [  0.870004,   0.606285,   1.496351]
  
  Exciton analysis of the difference density matrix
    <r_h> [Ang]:                  [  0.000000,  -0.000000,  -1.499104]
    <r_e> [Ang]:                  [  0.000000,  -0.000000,  -0.084246]
    |<r_e - r_h>| [Ang]:            1.414858
    Hole size [Ang]:                1.695150
      Cartesian components [Ang]: [  0.907962,   0.768059,   1.207983]
    Electron size [Ang]:            3.102120
      Cartesian components [Ang]: [  1.780793,   1.720670,   1.868480]

  Transition density matrix analysis:
  -----------------------------------
  
  CT numbers (Mulliken)
    omega =     0.8642
    <Phe> =    -0.0007
  
  Exciton analysis of the transition density matrix
    Trans. dipole moment [D]:             0.136619
      Cartesian components [D]:         [ -0.136619,  -0.000000,   0.000000]
    <r_h> [Ang]:                        [ -0.000000,  -0.000000,  -1.714647]
    <r_e> [Ang]:                        [  0.000000,  -0.000000,   0.648525]
    |<r_e - r_h>| [Ang]:                  2.363172
    Hole size [Ang]:                      1.150778
      Cartesian components [Ang]:       [  0.823552,   0.472115,   0.650508]
    Electron size [Ang]:                  3.515254
      Cartesian components [Ang]:       [  2.149134,   2.094180,   1.831022]
    RMS electron-hole separation [Ang]:   4.384688
      Cartesian components [Ang]:       [  2.299285,   2.145980,   3.055086]
    Covariance(r_h, r_e) [Ang^2]:         0.020195
    Correlation coefficient:              0.004992
    Center-of-mass size [Ang]:            1.852140
      Cartesian components [Ang]:       [  1.151881,   1.073748,   0.975017]

  Decomposition into state-averaged NTOs
    H- 0 -> L+ 1: -0.5272 ( 55.6%)
    H- 0 -> L+ 3:  0.2806 ( 15.8%)
    H- 0 -> L+ 0: -0.1869 (  7.0%)
    H- 0 -> L+ 6: -0.1535 (  4.7%)
    H- 0 -> L+ 5: -0.1268 (  3.2%)
                   omega =  86.4%
  ----------------------------------------------------------------------------


  Excited state 10 (singlet, B1)                                    [converged]
  ----------------------------------------------------------------------------
  Term symbol:  10 (1) B1                                   R^2 =  3.37235e-06

  Total energy:                                           -153.7527493139 a.u.
  Excitation energy:                                               5.869149 eV

  Osc. strength:                                                      0.000896
  Trans. dip. moment [a.u.]:           [   0.078959,   -0.000000,   -0.000000]
  <i|r^2|0> [a.u.]:                    [  -0.000000,   -0.000000,    0.000000]

  Dip. moment [a.u.]:                  [   0.000000,   -0.000000,   -1.791540]
  Total dipole [Debye]:                                               4.553641
  <r^2> [a.u.]:                        [ 122.259509,   40.711696,  259.221175]
  Total <r^2> [a.u.]:                                               422.192379

  V1^2 = 0.8698, V2^2 = 0.1302

  Important amplitudes:
      occ i      occ j       vir a       vir b          v   
    ---------------------------------------------------------
     7 (A1) A               6 (B1) A                  0.5975
     7 (A1) A               5 (B1) A                 -0.2654
    ---------------------------------------------------------

  Density matrix analysis:
  ------------------------
  NOs
    Occupation of frontier NOs:
       0.9791   1.0012
    Number of electrons: 26.000000
    Number of unpaired electrons: n_u =  2.79496, n_u,nl =  2.13024
    NO participation ratio (PR_NO):  3.923555
  
  
  Mulliken Population Analysis
  Atom      Charge (e)              h+              e-           Del q
  --------------------------------------------------------------------
   1 C       -0.668239        0.060306       -0.547034       -0.486727
   2 C       -0.668239        0.060306       -0.547034       -0.486727
   3 H        0.144014       -0.000685       -0.034243       -0.034927
   4 H        0.144014       -0.000685       -0.034243       -0.034927
   5 H        0.038531        0.042153       -0.006934        0.035219
   6 H        0.038531        0.042153       -0.006934        0.035219
   7 O       -0.365376        1.203736       -0.518932        0.684804
   8 H        0.336764        0.305314       -0.017247        0.288067
  --------------------------------------------------------------------
  Sum:       -1.000000        1.712600       -1.712600        0.000000
  
  Multipole moment analysis of the density matrix
    Molecular charge:                      -1.000000
    Number of electrons:                   26.000000
      Center of electronic charge [Ang]: [ -0.000000,   0.000000,   0.036463]
    Total nuclear charge:                  25.000000
      Center of nuclear charge [Ang]:    [  0.000000,   0.000000,  -0.000000]
    Dipole moment [D]:                     4.553640
      Cartesian components [D]:          [  0.000000,  -0.000000,  -4.553640]
    RMS size of the density [Ang]:         2.132093
      Cartesian components [Ang]:        [  1.147508,   0.662177,   1.670499]
  
  Exciton analysis of the difference density matrix
    <r_h> [Ang]:                  [ -0.000000,  -0.000000,  -1.386839]
    <r_e> [Ang]:                  [ -0.000000,   0.000000,  -0.172081]
    |<r_e - r_h>| [Ang]:            1.214758
    Hole size [Ang]:                1.860593
      Cartesian components [Ang]: [  0.861094,   0.792518,   1.446458]
    Electron size [Ang]:            5.249209
      Cartesian components [Ang]: [  3.384988,   1.985952,   3.485978]

  Transition density matrix analysis:
  -----------------------------------
  
  CT numbers (Mulliken)
    omega =     0.8529
    <Phe> =     0.0001
  
  Exciton analysis of the transition density matrix
    Trans. dipole moment [D]:             0.100347
      Cartesian components [D]:         [  0.100347,  -0.000000,  -0.000000]
    <r_h> [Ang]:                        [  0.000000,  -0.000000,  -1.717001]
    <r_e> [Ang]:                        [ -0.000000,   0.000000,   0.483052]
    |<r_e - r_h>| [Ang]:                  2.200054
    Hole size [Ang]:                      1.141072
      Cartesian components [Ang]:       [  0.452089,   0.406227,   0.965733]
    Electron size [Ang]:                  6.607924
      Cartesian components [Ang]:       [  4.360719,   2.503751,   4.287192]
    RMS electron-hole separation [Ang]:   7.051348
      Cartesian components [Ang]:       [  4.383498,   2.536510,   4.906381]
    Covariance(r_h, r_e) [Ang^2]:         0.042713
    Correlation coefficient:              0.005665
    Center-of-mass size [Ang]:            3.356044
      Cartesian components [Ang]:       [  2.192342,   1.268237,   2.201873]

  Decomposition into state-averaged NTOs
    H- 1 -> L+ 2:  0.5063 ( 51.3%)
    H- 1 -> L+ 8: -0.4123 ( 34.0%)
                   omega =  85.3%
  ----------------------------------------------------------------------------


--------------------------------------------------------------------------------
  Time of ADC calculation:  CPU 272.15 s  wall 73.69 s
================================================================================
 
 --------------------------------------------------------------
             Orbital Energies (a.u.) and Symmetries
 --------------------------------------------------------------
 
 Alpha MOs, Restricted
 -- Occupied --                  
-20.213 -11.049 -11.047  -0.930  -0.854  -0.598  -0.473  -0.384
  1 A1    2 A1    1 B1    3 A1    4 A1    2 B1    5 A1    6 A1                 
 -0.328  -0.271  -0.194  -0.129  -0.128
  3 B1    7 A1    1 B2    4 B1    2 B2                                         
 -- Virtual --                   
  0.107   0.121   0.126   0.127   0.136   0.138   0.201   0.206
  5 B1    8 A1    3 B2    1 A2    6 B1    9 A1   10 A1    7 B1                 
  0.247   0.251   0.264   0.270   0.321   0.356   0.384   0.408
  2 A2   11 A1    8 B1    4 B2   12 A1   13 A1    3 A2    9 B1                 
  0.450   0.461   0.471   0.528   0.534   0.578   0.611   0.644
  5 B2   14 A1   10 B1   15 A1   11 B1   16 A1   12 B1   17 A1                 
  0.689   0.815   0.956   0.975   1.048   1.052   1.082   1.130
 13 B1   18 A1   19 A1    6 B2    4 A2   20 A1   21 A1   14 B1                 
  1.177   1.195   1.203   1.216   1.283   1.291   1.330   1.330
 15 B1   16 B1    7 B2   22 A1   23 A1    5 A2   17 B1   24 A1                 
  1.370   1.458   1.467   1.483   1.561   1.642   1.691   1.719
  8 B2   18 B1    9 B2    6 A2   19 B1   25 A1   20 B1   10 B2                 
  1.848   1.927   1.961   2.029   2.121   2.122   2.139   2.184
 26 A1   21 B1   27 A1    7 A2   28 A1   11 B2   22 B1   29 A1                 
  2.212   2.281   2.356   2.393   2.434   2.473   2.551   2.604
 12 B2   30 A1    8 A2   13 B2   23 B1   24 B1   31 A1    9 A2                 
  2.717   2.747   2.847   3.008   3.034   3.085   3.449   3.562
 25 B1   32 A1   26 B1   33 A1   34 A1   35 A1   27 B1   28 B1                 
  3.921   3.945   3.970   4.087   4.536
 14 B2   10 A2   36 A1   29 B1   37 A1                                         
 
 Beta MOs, Restricted
 -- Occupied --                  
-20.213 -11.049 -11.047  -0.930  -0.854  -0.598  -0.473  -0.384
  1 A1    2 A1    1 B1    3 A1    4 A1    2 B1    5 A1    6 A1                 
 -0.328  -0.271  -0.194  -0.129  -0.128
  3 B1    7 A1    1 B2    4 B1    2 B2                                         
 -- Virtual --                   
  0.107   0.121   0.126   0.127   0.136   0.138   0.201   0.206
  5 B1    8 A1    3 B2    1 A2    6 B1    9 A1   10 A1    7 B1                 
  0.247   0.251   0.264   0.270   0.321   0.356   0.384   0.408
  2 A2   11 A1    8 B1    4 B2   12 A1   13 A1    3 A2    9 B1                 
  0.450   0.461   0.471   0.528   0.534   0.578   0.611   0.644
  5 B2   14 A1   10 B1   15 A1   11 B1   16 A1   12 B1   17 A1                 
  0.689   0.815   0.956   0.975   1.048   1.052   1.082   1.130
 13 B1   18 A1   19 A1    6 B2    4 A2   20 A1   21 A1   14 B1                 
  1.177   1.195   1.203   1.216   1.283   1.291   1.330   1.330
 15 B1   16 B1    7 B2   22 A1   23 A1    5 A2   17 B1   24 A1                 
  1.370   1.458   1.467   1.483   1.561   1.642   1.691   1.719
  8 B2   18 B1    9 B2    6 A2   19 B1   25 A1   20 B1   10 B2                 
  1.848   1.927   1.961   2.029   2.121   2.122   2.139   2.184
 26 A1   21 B1   27 A1    7 A2   28 A1   11 B2   22 B1   29 A1                 
  2.212   2.281   2.356   2.393   2.434   2.473   2.551   2.604
 12 B2   30 A1    8 A2   13 B2   23 B1   24 B1   31 A1    9 A2                 
  2.717   2.747   2.847   3.008   3.034   3.085   3.449   3.562
 25 B1   32 A1   26 B1   33 A1   34 A1   35 A1   27 B1   28 B1                 
  3.921   3.945   3.970   4.087   4.536
 14 B2   10 A2   36 A1   29 B1   37 A1                                         
 --------------------------------------------------------------
 
          Ground-State Mulliken Net Atomic Charges

     Atom                 Charge (a.u.)
  ----------------------------------------
      1 C                    -0.175177
      2 C                    -0.175177
      3 H                     0.171557
      4 H                     0.171557
      5 H                    -0.001863
      6 H                    -0.001863
      7 O                    -1.055054
      8 H                     0.066020
  ----------------------------------------
  Sum of atomic charges =    -1.000000

 -----------------------------------------------------------------
                    Cartesian Multipole Moments
 -----------------------------------------------------------------
    Charge (ESU x 10^10)
                -4.8032
    Dipole Moment (Debye)
         X      -0.0000      Y       0.0000      Z       5.2709
       Tot       5.2709
    Quadrupole Moments (Debye-Ang)
        XX     -23.6843     XY       0.0000     YY     -26.5180
        XZ      -0.0000     YZ      -0.0000     ZZ     -32.8408
    Octopole Moments (Debye-Ang^2)
       XXX      -0.0000    XXY       0.0000    XYY       0.0000
       YYY       0.0000    XXZ       0.9954    XYZ       0.0000
       YYZ      -0.0924    XZZ      -0.0000    YZZ       0.0000
       ZZZ       6.0246
    Hexadecapole Moments (Debye-Ang^3)
      XXXX     -88.7297   XXXY      -0.0000   XXYY     -22.1755
      XYYY      -0.0000   YYYY     -41.5970   XXXZ       0.0000
      XXYZ       0.0000   XYYZ       0.0000   YYYZ      -0.0000
      XXZZ     -70.9045   XYZZ      -0.0000   YYZZ     -65.7322
      XZZZ       0.0000   YZZZ      -0.0000   ZZZZ    -292.6569
 -----------------------------------------------------------------
 Total job time:  182.63s(wall), 321.12s(cpu) 
 Wed Mar  2 16:37:44 2022

        *************************************************************
        *                                                           *
        *  Thank you very much for using Q-Chem.  Have a nice day.  *
        *                                                           *
        *************************************************************


