/src/tsommerfeld/qchem/exe/qcprog.exe .input0.763636.24103.qcin.1 /src/jdavis/qchem.scratch/qchem24103/

                  Welcome to Q-Chem
     A Quantum Leap Into The Future Of Chemistry


 Q-Chem 5.4 (devel), Q-Chem, Inc., Pleasanton, CA (2021)

 E. Epifanovsky,  A. T. B. Gilbert,  Xintian Feng,  Joonho Lee,  Yuezhi Mao,  
 N. Mardirossian,  P. Pokhilko,  A. White,  M. Wormit,  M. P. Coons,  
 A. L. Dempwolff,  Zhengting Gan,  D. Hait,  P. R. Horn,  L. D. Jacobson,  
 I. Kaliman,  J. Kussmann,  A. W. Lange,  Ka Un Lao,  D. S. Levine,  Jie Liu,  
 S. C. McKenzie,  A. F. Morrison,  K. Nanda,  F. Plasser,  D. R. Rehn,  
 M. L. Vidal,  Zhi-Qiang You,  Ying Zhu,  B. Alam,  B. Albrecht,  
 A. Aldossary,  E. Alguire,  J. H. Andersen,  D. Barton,  K. Begam,  A. Behn,  
 Y. A. Bernard,  E. J. Berquist,  H. Burton,  A. Carreras,  K. Carter-Fenk,  
 R. Chakraborty,  A. D. Chien,  K. D. Closser,  V. Cofer-Shabica,  
 S. Dasgupta,  Jia Deng,  M. de Wergifosse,  M. Diedenhofen,  Hainam Do,  
 S. Ehlert,  Po-Tung Fang,  S. Fatehi,  Qingguo Feng,  T. Friedhoff,  
 J. Gayvert,  Qinghui Ge,  G. Gidofalvi,  M. Goldey,  J. Gomes,  
 C. Gonzalez-Espinoza,  S. Gulania,  A. Gunina,  M. W. D. Hanson-Heine,  
 P. H. P. Harbach,  A. W. Hauser,  M. F. Herbst,  M. Hernandez Vera,  
 M. Hodecker,  Z. C. Holden,  S. Houck,  Xunkun Huang,  Kerwin Hui,  
 B. C. Huynh,  M. Ivanov,  Hyunjun Ji,  Hanjie Jiang,  B. Kaduk,  S. Kaehler,  
 K. Khistyaev,  Jaehoon Kim,  P. Klunzinger,  Z. Koczor-Benda,  
 Joong Hoon Koh,  D. Kosenkov,  L. Koulias,  T. Kowalczyk,  C. M. Krauter,  
 K. Kue,  A. Kunitsa,  T. Kus,  A. Landau,  K. V. Lawler,  D. Lefrancois,  
 S. Lehtola,  Rain Li,  Yi-Pei Li,  Jiashu Liang,  M. Liebenthal,  
 Hung-Hsuan Lin,  You-Sheng Lin,  Fenglai Liu,  Kuan-Yu Liu,  
 M. Loipersberger,  A. Luenser,  A. Manjanath,  P. Manohar,  E. Mansoor,  
 S. F. Manzer,  Shan-Ping Mao,  A. V. Marenich,  T. Markovich,  S. Mason,  
 S. A. Maurer,  P. F. McLaughlin,  M. F. S. J. Menger,  J.-M. Mewes,  
 S. A. Mewes,  P. Morgante,  J. W. Mullinax,  K. J. Oosterbaan,  G. Paran,  
 Alexander C. Paul,  Suranjan K. Paul,  F. Pavosevic,  Zheng Pei,  S. Prager,  
 E. I. Proynov,  E. Ramos,  B. Rana,  A. E. Rask,  A. Rettig,  R. M. Richard,  
 F. Rob,  E. Rossomme,  T. Scheele,  M. Scheurer,  M. Schneider,  
 N. Sergueev,  S. M. Sharada,  W. Skomorowski,  D. W. Small,  C. J. Stein,  
 Yu-Chuan Su,  E. J. Sundstrom,  Zhen Tao,  J. Thirman,  T. Tsuchimochi,  
 N. M. Tubman,  S. P. Veccham,  O. Vydrov,  J. Wenzel,  J. Witte,  A. Yamada,  
 Kun Yao,  S. Yeganeh,  S. R. Yost,  A. Zech,  Igor Ying Zhang,  Xing Zhang,  
 Yu Zhang,  D. Zuev,  A. Aspuru-Guzik,  A. T. Bell,  N. A. Besley,  
 K. B. Bravaya,  B. R. Brooks,  D. Casanova,  Jeng-Da Chai,  S. Coriani,  
 C. J. Cramer,  A. E. DePrince, III,  R. A. DiStasio Jr.,  A. Dreuw,  
 B. D. Dunietz,  T. R. Furlani,  W. A. Goddard III,  S. Grimme,  
 S. Hammes-Schiffer,  T. Head-Gordon,  W. J. Hehre,  Chao-Ping Hsu,  
 T.-C. Jagau,  Yousung Jung,  A. Klamt,  Jing Kong,  D. S. Lambrecht,  
 WanZhen Liang,  N. J. Mayhall,  C. W. McCurdy,  J. B. Neaton,  
 C. Ochsenfeld,  J. A. Parkhill,  R. Peverati,  V. A. Rassolov,  Yihan Shao,  
 L. V. Slipchenko,  T. Stauch,  R. P. Steele,  J. E. Subotnik,  
 A. J. W. Thom,  A. Tkatchenko,  D. G. Truhlar,  T. Van Voorhis,  
 T. A. Wesolowski,  K. B. Whaley,  H. L. Woodcock III,  P. M. Zimmerman,  
 S. Faraji,  P. M. W. Gill,  M. Head-Gordon,  J. M. Herbert,  A. I. Krylov

 Additional authors for Version 5.4.1: 
 S. Kotaru,  Shaozhi Li,  Xiangyuan Li,  F. Matz,  A. Molle,  Haisheng Ren,  
 Yingli Su,  Hung-Yi Tsai,  C. Utku,  Fang Wang

 Contributors to earlier versions of Q-Chem not listed above: 
 R. D. Adamson,  B. Austin,  R. Baer,  J. Baker,  G. J. O. Beran,  
 K. Brandhorst,  S. T. Brown,  E. F. C. Byrd,  A. K. Chakraborty,  
 G. K. L. Chan,  Chun-Min Chang,  Yunqing Chen,  C.-L. Cheng,  
 Siu Hung Chien,  D. M. Chipman,  D. L. Crittenden,  H. Dachsel,  
 R. J. Doerksen,  A. D. Dutoi,  R. G. Edgar,  J. Fosso-Tande,  
 L. Fusti-Molnar,  D. Ghosh,  A. Ghysels,  A. Golubeva-Zadorozhnaya,  
 J. Gonthier,  M. S. Gordon,  S. R. Gwaltney,  G. Hawkins,  J. E. Herr,  
 A. Heyden,  S. Hirata,  E. G. Hohenstein,  G. Kedziora,  F. J. Keil,  
 C. Kelley,  Jihan Kim,  R. A. King,  R. Z. Khaliullin,  P. P. Korambath,  
 W. Kurlancheek,  A. Laurent,  A. M. Lee,  M. S. Lee,  S. V. Levchenko,  
 Ching Yeh Lin,  D. Liotard,  E. Livshits,  R. C. Lochan,  I. Lotan,  
 L. A. Martinez-Martinez,  P. E. Maslen,  N. Nair,  D. P. O'Neill,  
 D. Neuhauser,  E. Neuscamman,  C. M. Oana,  R. Olivares-Amaya,  R. Olson,  
 T. M. Perrine,  B. Peters,  P. A. Pieniazek,  A. Prociuk,  Y. M. Rhee,  
 J. Ritchie,  M. A. Rohrdanz,  E. Rosta,  N. J. Russ,  H. F. Schaefer III,  
 M. W. Schmidt,  N. E. Schultz,  S. Sharma,  N. Shenvi,  C. D. Sherrill,  
 A. C. Simmonett,  A. Sodt,  T. Stein,  D. Stuck,  K. S. Thanthiriwatte,  
 V. Vanovschi,  L. Vogt,  Tao Wang,  A. Warshel,  M. A. Watson,  
 C. F. Williams,  Q. Wu,  X. Xu,  Jun Yang,  W. Zhang,  Yan Zhao

 Please cite Q-Chem as follows:
 Y. Shao et al., Mol. Phys. 113, 184-215 (2015)
 DOI: 10.1080/00268976.2014.952696

 Q-Chem 5.4.1 for Intel X86 EM64T Linux

 Parts of Q-Chem use Armadillo 9.900.5 (Nocturnal Misbehaviour).
 http://arma.sourceforge.net/

 Q-Chem begins on Wed Mar  2 16:40:45 2022  

 Host: node01
0

     Scratch files written to /src/jdavis/qchem.scratch/qchem24103//
 Processing $rem in /src/tsommerfeld/qchem/config/preferences:
 Processing $rem in /home/jdavis/.qchemrc:

 Checking the input file for inconsistencies... 	...done.

--------------------------------------------------------------
User input:
--------------------------------------------------------------
$molecule
-1 1
C        -0.6645000000    0.0000000000    1.1619088658
C         0.6645000000    0.0000000000    1.1619088658
H        -1.1590800000    0.0000000000    0.1995598658
H         1.1590800000    0.0000000000    0.1995598658
H        -1.1590800000    0.0000000000    2.1242568658
H         1.1590800000    0.0000000000    2.1242568658
O         0.0000000000    0.0000000000   -1.5841414040
H         0.0000000000    0.0000000000   -2.5471307683
$end
$rem
   METHOD adc(2)
   BASIS gen
   PURECART 11
   EE_STATES [0,0,10,0]
   scf_convergence 8
   ADC_DAVIDSON_MAXITER 120
   ADC_DAVIDSON_MAXSUBSPACE 200
   adc_nguess_singles 100
   THRESH 14
   S2THRESH 14
   adc_davidson_conv 5
   adc_davidson_thresh 14
   THREADS 10
   MEM_TOTAL 95000
   STATE_ANALYSIS TRUE
$end
$basis
C 1
S   9   1.00
      6.665000D+03           6.920000D-04
      1.000000D+03           5.329000D-03
      2.280000D+02           2.707700D-02
      6.471000D+01           1.017180D-01
      2.106000D+01           2.747400D-01
      7.495000D+00           4.485640D-01
      2.797000D+00           2.850740D-01
      5.215000D-01           1.520400D-02
      1.596000D-01          -3.191000D-03
S   9   1.00
      6.665000D+03          -1.460000D-04
      1.000000D+03          -1.154000D-03
      2.280000D+02          -5.725000D-03
      6.471000D+01          -2.331200D-02
      2.106000D+01          -6.395500D-02
      7.495000D+00          -1.499810D-01
      2.797000D+00          -1.272620D-01
      5.215000D-01           5.445290D-01
      1.596000D-01           5.804960D-01
S   1   1.00
      1.596000D-01           1.000000D+00
S   1   1.00
      0.0469000              1.0000000
P   4   1.00
      9.439000D+00           3.810900D-02
      2.002000D+00           2.094800D-01
      5.456000D-01           5.085570D-01
      1.517000D-01           4.688420D-01
P   1   1.00
      1.517000D-01           1.000000D+00
P   1   1.00
      0.0330982      1.0000000
P   1   1.00
      0.0165491      1.0000000
D   1   1.00
      5.500000D-01           1.0000000
****
C 2
S   9   1.00
      6.665000D+03           6.920000D-04
      1.000000D+03           5.329000D-03
      2.280000D+02           2.707700D-02
      6.471000D+01           1.017180D-01
      2.106000D+01           2.747400D-01
      7.495000D+00           4.485640D-01
      2.797000D+00           2.850740D-01
      5.215000D-01           1.520400D-02
      1.596000D-01          -3.191000D-03
S   9   1.00
      6.665000D+03          -1.460000D-04
      1.000000D+03          -1.154000D-03
      2.280000D+02          -5.725000D-03
      6.471000D+01          -2.331200D-02
      2.106000D+01          -6.395500D-02
      7.495000D+00          -1.499810D-01
      2.797000D+00          -1.272620D-01
      5.215000D-01           5.445290D-01
      1.596000D-01           5.804960D-01
S   1   1.00
      1.596000D-01           1.000000D+00
S   1   1.00
      0.0469000              1.0000000
P   4   1.00
      9.439000D+00           3.810900D-02
      2.002000D+00           2.094800D-01
      5.456000D-01           5.085570D-01
      1.517000D-01           4.688420D-01
P   1   1.00
      1.517000D-01           1.000000D+00
P   1   1.00
      0.0330982      1.0000000
P   1   1.00
      0.0165491      1.0000000
D   1   1.00
      5.500000D-01           1.0000000
****
H 3
cc-pVDZ
****
H 4
cc-pVDZ
****
H 5
cc-pVDZ
****
H 6
cc-pVDZ
****
O 7
aug-cc-pVDZ
****
H 8
cc-pVDZ
****
$end
--------------------------------------------------------------
 ----------------------------------------------------------------
             Standard Nuclear Orientation (Angstroms)
    I     Atom           X                Y                Z
 ----------------------------------------------------------------
    1      C      -0.6645000000    -0.0000000000     1.0270977517
    2      C       0.6645000000     0.0000000000     1.0270977517
    3      H      -1.1590800000    -0.0000000000     0.0647487517
    4      H       1.1590800000     0.0000000000     0.0647487517
    5      H      -1.1590800000    -0.0000000000     1.9894457517
    6      H       1.1590800000     0.0000000000     1.9894457517
    7      O       0.0000000000    -0.0000000000    -1.7189525181
    8      H       0.0000000000    -0.0000000000    -2.6819418824
 ----------------------------------------------------------------
 Molecular Point Group                 C2v   NOp =  4
 Largest Abelian Subgroup              C2v   NOp =  4
 Nuclear Repulsion Energy =          64.38561153 hartrees
 There are       13 alpha and       13 beta electrons
 Requested basis set is non-standard
 There are 42 shells and 90 basis functions
 Total memory of 95000 MB is distributed as follows: 
   MEM_STATIC is set to 192 MB
   QALLOC/CCMAN JOB total memory use is  94808 MB
 Warning: actual memory use might exceed 95000 MB

 Total QAlloc Memory Limit  95000 MB
 Mega-Array Size       188 MB
 MEM_STATIC part       192 MB

                       Distance Matrix (Angstroms)
             C (  1)   C (  2)   H (  3)   H (  4)   H (  5)   H (  6)
   C (  2)  1.329000
   H (  3)  1.082000  2.061931
   H (  4)  2.061931  1.082000  2.318160
   H (  5)  1.082000  2.061931  1.924697  3.013026
   H (  6)  2.061931  1.082000  3.013026  1.924697  2.318160
   O (  7)  2.825306  2.825306  2.127218  2.127218  3.885316  3.885316
   H (  8)  3.768094  3.768094  2.981237  2.981237  4.813037  4.813037
             O (  7)
   H (  8)  0.962989
 
 A cutoff of  1.0D-14 yielded    903 shell pairs
 There are      4183 function pairs (      4573 Cartesian)
 Smallest overlap matrix eigenvalue = 7.20E-04

 Scale SEOQF with 1.000000e-01/1.000000e-01/1.000000e-01

 Standard Electronic Orientation quadrupole field applied
 Nucleus-field energy     =    -0.0000000051 hartrees
 ================ Generating on-the-fly SAD Guess ================
Attempting to make child job directory: /src/jdavis/qchem.scratch/qchem24103//Frg1/
Attempting to make child job directory: /src/jdavis/qchem.scratch/qchem24103//Frg2/
Attempting to make child job directory: /src/jdavis/qchem.scratch/qchem24103//Frg3/
Creating input file /src/jdavis/qchem.scratch/qchem24103/Frg1.input
using default PutDataFrgm: nothing
calling putenv with: QCSCRATCH=/src/jdavis/qchem.scratch/qchem24103/ 
Spawning Job For Fragment 0
Done Job For Fragment 0
calling putenv with: QCSCRATCH=/src/jdavis/qchem.scratch 
calling putenv with: QCTHREADS=1 
Creating input file /src/jdavis/qchem.scratch/qchem24103/Frg2.input
using default PutDataFrgm: nothing
calling putenv with: QCSCRATCH=/src/jdavis/qchem.scratch/qchem24103/ 
Spawning Job For Fragment 1
Done Job For Fragment 1
calling putenv with: QCSCRATCH=/src/jdavis/qchem.scratch 
calling putenv with: QCTHREADS=1 
Creating input file /src/jdavis/qchem.scratch/qchem24103/Frg3.input
using default PutDataFrgm: nothing
calling putenv with: QCSCRATCH=/src/jdavis/qchem.scratch/qchem24103/ 
Spawning Job For Fragment 2
Done Job For Fragment 2
calling putenv with: QCSCRATCH=/src/jdavis/qchem.scratch 
calling putenv with: QCTHREADS=1 
 Time for running child jobs:  CPU 1.80 s  wall 80.44 s
 ============= Method Specific SAD Guess Constructed =============
 Guess from on-the-fly superposition of atomic densities
 Warning: Energy on first SCF cycle will be non-variational
 A restricted Hartree-Fock SCF calculation will be
 performed using Pulay DIIS extrapolation
 SCF converges when DIIS error is below 1.0E-08
 using 10 threads for integral computing
 -------------------------------------------------------
 OpenMP Integral computing Module                
 Release: version 1.0, May 2013, Q-Chem Inc. Pittsburgh 
 -------------------------------------------------------
 ---------------------------------------
  Cycle       Energy         DIIS Error
 ---------------------------------------
    1    -153.5741457686      5.98E-02
    2    -153.2897002242      1.22E-02
    3    -153.3537089069      1.03E-02
    4    -153.4400797871      7.78E-04
    5    -153.4410425783      2.13E-04
    6    -153.4411180495      4.60E-05
    7    -153.4411234363      1.22E-05
    8    -153.4411240020      3.66E-06
    9    -153.4411240502      7.12E-07
   10    -153.4411240518      1.36E-07
   11    -153.4411240519      4.54E-08
   12    -153.4411240519      1.44E-08
   13    -153.4411240519      2.65E-09 Convergence criterion met
 ---------------------------------------
 SCF time:  CPU 14.54 s  wall 1.46 s
 SCF   energy in the final basis set = -153.44112405
 Total energy in the final basis set = -153.44112405
================================================================================
|                                                                              |
|                                 A D C  M A N                                 |
|                                                                              |
 ------------------------------------------------------------------------------ 
|                                                                              |
| Components:                                                                  |
|                                                                              |
| - libvmm - 1.3-trunk                                                         |
|   Authors:                                                                   |
|   Evgeny Epifanovsky, Ilya Kaliman                                           |
|                                                                              |
| - libtensor - 2.5-trunk                                                      |
|   Authors:                                                                   |
|   Evgeny Epifanovsky, Michael Wormit, Dmitry Zuev, Sam Manzer,               |
|   Ilya Kaliman                                                               |
|                                                                              |
| - libwfa - 1.1-trunk                                                         |
|   Authors:                                                                   |
|   Felix Plasser, Stefanie Mewes (Baeppler), Benjamin Thomitzni,              |
|   Michael Wormit, Feng Chen, Anna I. Krylov, Pavel Pokhilko                  |
|                                                                              |
| - libadc - 1.1-trunk                                                         |
|   Authors:                                                                   |
|   Michael Wormit, Adrian L. Dempwolff, Philipp H. P. Harbach,                |
|   Caroline Krauter, Dirk Rehn, Matthias Schneider, Jan Wenzel                |
|                                                                              |
| - adcman - 2.6-trunk                                                         |
|   Authors:                                                                   |
|   Michael Wormit, Adrian L. Dempwolff, Philipp H. P. Harbach,                |
|   Caroline Krauter, Daniel Lefrancois, Jan-Michael Mewes, Dirk Rehn,         |
|   Matthias Schneider, Jan Wenzel, Andreas Dreuw                              |
|                                                                              |
| Authors of earlier versions of ADCMAN:                                       |
| Andreas Dreuw, Jan Hendrik Starcke, Dirk Rehn, Michael Wormit                |
|                                                                              |
================================================================================

 
 Alpha MOs, Restricted
 -- Occupied --                  
-20.213 -11.049 -11.047  -0.930  -0.854  -0.598  -0.473  -0.384
  1 A1    2 A1    1 B1    3 A1    4 A1    2 B1    5 A1    6 A1                 
 -0.328  -0.271  -0.194  -0.130  -0.128
  3 B1    7 A1    1 B2    4 B1    2 B2                                         
 -- Virtual --                   
  0.113   0.128   0.134   0.137   0.144   0.146   0.212   0.220
  5 B1    8 A1    3 B2    1 A2    9 A1    6 B1   10 A1    7 B1                 
  0.260   0.268   0.282   0.291   0.328   0.357   0.396   0.425
  2 A2   11 A1    8 B1    4 B2   12 A1   13 A1    3 A2    9 B1                 
  0.449   0.470   0.471   0.528   0.539   0.578   0.622   0.653
  5 B2   14 A1   10 B1   15 A1   11 B1   16 A1   12 B1   17 A1                 
  0.686   0.832   0.959   0.996   1.055   1.065   1.082   1.132
 13 B1   18 A1   19 A1    6 B2   20 A1    4 A2   21 A1   14 B1                 
  1.183   1.201   1.203   1.215   1.291   1.294   1.331   1.331
 15 B1   16 B1    7 B2   22 A1    5 A2   23 A1   24 A1   17 B1                 
  1.370   1.467   1.472   1.483   1.561   1.642   1.691   1.719
  8 B2    9 B2   18 B1    6 A2   19 B1   25 A1   20 B1   10 B2                 
  1.850   1.927   1.964   2.032   2.123   2.127   2.139   2.189
 26 A1   21 B1   27 A1    7 A2   11 B2   28 A1   22 B1   29 A1                 
  2.212   2.285   2.356   2.393   2.436   2.473   2.552   2.604
 12 B2   30 A1    8 A2   13 B2   23 B1   24 B1   31 A1    9 A2                 
  2.726   2.749   2.847   3.008   3.036   3.087   3.455   3.562
 25 B1   32 A1   26 B1   33 A1   34 A1   35 A1   27 B1   28 B1                 
  3.921   3.945   3.970   4.087   4.537
 14 B2   10 A2   36 A1   29 B1   37 A1                                         
 
 Beta MOs, Restricted
 -- Occupied --                  
-20.213 -11.049 -11.047  -0.930  -0.854  -0.598  -0.473  -0.384
  1 A1    2 A1    1 B1    3 A1    4 A1    2 B1    5 A1    6 A1                 
 -0.328  -0.271  -0.194  -0.130  -0.128
  3 B1    7 A1    1 B2    4 B1    2 B2                                         
 -- Virtual --                   
  0.113   0.128   0.134   0.137   0.144   0.146   0.212   0.220
  5 B1    8 A1    3 B2    1 A2    9 A1    6 B1   10 A1    7 B1                 
  0.260   0.268   0.282   0.291   0.328   0.357   0.396   0.425
  2 A2   11 A1    8 B1    4 B2   12 A1   13 A1    3 A2    9 B1                 
  0.449   0.470   0.471   0.528   0.539   0.578   0.622   0.653
  5 B2   14 A1   10 B1   15 A1   11 B1   16 A1   12 B1   17 A1                 
  0.686   0.832   0.959   0.996   1.055   1.065   1.082   1.132
 13 B1   18 A1   19 A1    6 B2   20 A1    4 A2   21 A1   14 B1                 
  1.183   1.201   1.203   1.215   1.291   1.294   1.331   1.331
 15 B1   16 B1    7 B2   22 A1    5 A2   23 A1   24 A1   17 B1                 
  1.370   1.467   1.472   1.483   1.561   1.642   1.691   1.719
  8 B2    9 B2   18 B1    6 A2   19 B1   25 A1   20 B1   10 B2                 
  1.850   1.927   1.964   2.032   2.123   2.127   2.139   2.189
 26 A1   21 B1   27 A1    7 A2   11 B2   28 A1   22 B1   29 A1                 
  2.212   2.285   2.356   2.393   2.436   2.473   2.552   2.604
 12 B2   30 A1    8 A2   13 B2   23 B1   24 B1   31 A1    9 A2                 
  2.726   2.749   2.847   3.008   3.036   3.087   3.455   3.562
 25 B1   32 A1   26 B1   33 A1   34 A1   35 A1   27 B1   28 B1                 
  3.921   3.945   3.970   4.087   4.537
 14 B2   10 A2   36 A1   29 B1   37 A1                                         

--------------------------------------------------------------------------------
                                   HF Summary                                   
--------------------------------------------------------------------------------
  Energy:                                                 -153.4411240519 a.u.
  Dip. moment [a.u.]:                  [  -0.000000,    0.000000,    2.074781]
  Total dipole [Debye]:                                               5.273567
  <r^2> [a.u.]:                        [  55.716883,   19.708677,  208.025836]
  Total <r^2> [a.u.]:                                               283.451396
--------------------------------------------------------------------------------

--------------------------------------------------------------------------------
                                 MP(2) Summary                                  
--------------------------------------------------------------------------------
  MP energy contribution:                                   -0.5275966708 a.u.
  Total energy:                                           -153.9687207228 a.u.
  Dip. moment [a.u.]:                  [  -0.000000,    0.000000,    2.141727]
  Total dipole [Debye]:                                               5.443728
  <r^2> [a.u.]:                        [  56.713311,   20.421200,  209.289562]
  Total <r^2> [a.u.]:                                               286.424073

  Density matrix analysis:
  ------------------------
  NOs
    Occupation of frontier NOs:
       0.0446   1.9359
    Number of electrons: 26.000000
    Number of unpaired electrons: n_u =  0.71387, n_u,nl =  0.08511
    NO participation ratio (PR_NO): 22.994950
  
  
  Mulliken Population Analysis
  Atom      Charge (e)              h+              e-           Del q
  --------------------------------------------------------------------
   1 C       -0.184499        0.094842       -0.100720       -0.005878
   2 C       -0.184499        0.094842       -0.100720       -0.005878
   3 H        0.180133        0.017323       -0.010187        0.007136
   4 H        0.180133        0.017323       -0.010187        0.007136
   5 H        0.005946        0.018339       -0.012965        0.005373
   6 H        0.005946        0.018339       -0.012965        0.005373
   7 O       -1.053596        0.277255       -0.273117        0.004138
   8 H        0.050436        0.015555       -0.032955       -0.017400
  --------------------------------------------------------------------
  Sum:       -1.000000        0.553818       -0.553818       -0.000000
  
  Multipole moment analysis of the density matrix
    Molecular charge:                      -1.000000
    Number of electrons:                   26.000000
      Center of electronic charge [Ang]: [  0.000000,  -0.000000,  -0.043591]
    Total nuclear charge:                  25.000000
      Center of nuclear charge [Ang]:    [  0.000000,   0.000000,  -0.000000]
    Dipole moment [D]:                     5.443726
      Cartesian components [D]:          [ -0.000000,   0.000000,   5.443726]
    RMS size of the density [Ang]:         1.755842
      Cartesian components [Ang]:        [  0.781550,   0.468981,   1.500739]
  
  Exciton analysis of the difference density matrix
    <r_h> [Ang]:                  [ -0.000000,  -0.000000,  -0.481038]
    <r_e> [Ang]:                  [  0.000000,  -0.000000,  -0.545006]
    |<r_e - r_h>| [Ang]:            0.063968
    Hole size [Ang]:                1.983700
      Cartesian components [Ang]: [  0.904137,   0.773267,   1.587343]
    Electron size [Ang]:            2.317869
      Cartesian components [Ang]: [  1.149474,   0.978886,   1.758694]
--------------------------------------------------------------------------------
  Starting Davidson for singlet states of irrep B1 ... 
--------------------------------------------------------------------------------
   It NVec Conv  Avg. Norm  Max. Norm  Conv. states           Remark
--------------------------------------------------------------------------------
       100    0  1.580e-01  5.406e-01  0.2309 n n n n n n n n Guess.
    1  110    0  1.587e-02  7.336e-02  0.0581 n n n n n n n n 
    2  120    0  4.823e-03  3.602e-02  0.0568 n n n n n n n n 
    3  130    0  1.602e-02  1.591e-01  0.0568 n n n n n n n n 
    4  140    0  9.516e-03  8.400e-02  0.0568 n n n n n n n n 
    5  150    2  1.899e-03  1.453e-02  0.0568 n y y n n n n n 
    6  160    4  3.699e-04  2.688e-03  0.0568 y y y y n n n n 
    7  170    6  7.382e-05  5.896e-04  0.0568 y y y y y y n n 
    8  180    7  1.177e-05  9.669e-05  0.0568 y y y y y y y n 
    9  190    8  1.969e-06  1.653e-05  0.0568 y y y y y y y y 
   10  200   10  3.070e-07  2.470e-06  0.0568 y y y y y y y y Converged.
--------------------------------------------------------------------------------
  Davidson Summary: 
 ------------------------------------------------------------
  State  0: excitation energy =   0.0568 a.u.   (converged)
  State  1: excitation energy =   0.0729 a.u.   (converged)
  State  2: excitation energy =   0.0785 a.u.   (converged)
  State  3: excitation energy =   0.1121 a.u.   (converged)
  State  4: excitation energy =   0.1397 a.u.   (converged)
  State  5: excitation energy =   0.1595 a.u.   (converged)
  State  6: excitation energy =   0.1768 a.u.   (converged)
  State  7: excitation energy =   0.2048 a.u.   (converged)
  State  8: excitation energy =   0.2218 a.u.   (converged)
  State  9: excitation energy =   0.2230 a.u.   (converged)
 ------------------------------------------------------------


--------------------------------------------------------------------------------
                   State-averaged natural transition orbitals
--------------------------------------------------------------------------------
--------------------------------------------------------------------------------

--------------------------------------------------------------------------------
                             Excited State Summary
--------------------------------------------------------------------------------
--------------------------------------------------------------------------------

  Excited state 1 (singlet, B1)                                    [converged]
  ----------------------------------------------------------------------------
  Term symbol:  1 (1) B1                                    R^2 =  7.71288e-10

  Total energy:                                           -153.9118841910 a.u.
  Excitation energy:                                               1.546601 eV

  Osc. strength:                                                      0.007591
  Trans. dip. moment [a.u.]:           [   0.447596,   -0.000000,    0.000000]
  <i|r^2|0> [a.u.]:                    [   0.000000,   -0.000000,   -0.000000]

  Dip. moment [a.u.]:                  [   0.000000,   -0.000000,   -3.829980]
  Total dipole [Debye]:                                               9.734840
  <r^2> [a.u.]:                        [  77.843087,   42.001358,  267.593623]
  Total <r^2> [a.u.]:                                               387.438068

  V1^2 = 0.8680, V2^2 = 0.1320

  Important amplitudes:
      occ i      occ j       vir a       vir b          v   
    ---------------------------------------------------------
     4 (B1) A               8 (A1) A                  0.6384
     4 (B1) A              12 (A1) A                  0.0872
    ---------------------------------------------------------

  Density matrix analysis:
  ------------------------
  NOs
    Occupation of frontier NOs:
       0.9610   0.9987
    Number of electrons: 26.000000
    Number of unpaired electrons: n_u =  2.74668, n_u,nl =  2.11439
    NO participation ratio (PR_NO):  3.865153
  
  
  Mulliken Population Analysis
  Atom      Charge (e)              h+              e-           Del q
  --------------------------------------------------------------------
   1 C       -0.680640        0.044907       -0.541048       -0.496141
   2 C       -0.680640        0.044907       -0.541048       -0.496141
   3 H        0.130263       -0.006509       -0.043361       -0.049870
   4 H        0.130263       -0.006509       -0.043361       -0.049870
   5 H        0.036042        0.041897       -0.011801        0.030096
   6 H        0.036042        0.041897       -0.011801        0.030096
   7 O       -0.104788        1.396956       -0.448147        0.948809
   8 H        0.133456        0.139463       -0.056443        0.083021
  --------------------------------------------------------------------
  Sum:       -1.000000        1.697008       -1.697008       -0.000000
  
  Multipole moment analysis of the density matrix
    Molecular charge:                      -1.000000
    Number of electrons:                   26.000000
      Center of electronic charge [Ang]: [ -0.000000,   0.000000,   0.077951]
    Total nuclear charge:                  25.000000
      Center of nuclear charge [Ang]:    [  0.000000,   0.000000,  -0.000000]
    Dipole moment [D]:                     9.734837
      Cartesian components [D]:          [  0.000000,  -0.000000,  -9.734837]
    RMS size of the density [Ang]:         2.041264
      Cartesian components [Ang]:        [  0.915639,   0.672583,   1.695876]
  
  Exciton analysis of the difference density matrix
    <r_h> [Ang]:                  [  0.000000,  -0.000000,  -1.447715]
    <r_e> [Ang]:                  [ -0.000000,  -0.000000,   0.414439]
    |<r_e - r_h>| [Ang]:            1.862154
    Hole size [Ang]:                1.827004
      Cartesian components [Ang]: [  0.942923,   0.801320,   1.344146]
    Electron size [Ang]:            4.683022
      Cartesian components [Ang]: [  2.091839,   2.050151,   3.654009]

  Transition density matrix analysis:
  -----------------------------------
  
  CT numbers (Mulliken)
    omega =     0.8530
    <Phe> =    -0.0010
  
  Exciton analysis of the transition density matrix
    Trans. dipole moment [D]:             0.568837
      Cartesian components [D]:         [  0.568837,  -0.000000,   0.000000]
    <r_h> [Ang]:                        [  0.000000,  -0.000000,  -1.725200]
    <r_e> [Ang]:                        [ -0.000000,  -0.000000,   1.509704]
    |<r_e - r_h>| [Ang]:                  3.234904
    Hole size [Ang]:                      1.142785
      Cartesian components [Ang]:       [  0.826434,   0.474458,   0.630758]
    Electron size [Ang]:                  5.653384
      Cartesian components [Ang]:       [  2.626252,   2.580064,   4.290317]
    RMS electron-hole separation [Ang]:   6.609974
      Cartesian components [Ang]:       [  2.750390,   2.623255,   5.407924]
    Covariance(r_h, r_e) [Ang^2]:         0.019779
    Correlation coefficient:              0.003061
    Center-of-mass size [Ang]:            2.885579
      Cartesian components [Ang]:       [  1.378019,   1.311699,   2.169580]

  Decomposition into state-averaged NTOs
    H- 0 -> L+ 6: -0.5040 ( 50.8%)
    H- 0 -> L+ 5:  0.2969 ( 17.6%)
    H- 0 -> L+ 0:  0.1945 (  7.6%)
    H- 0 -> L+ 3: -0.1509 (  4.6%)
    H- 0 -> L+ 8:  0.1167 (  2.7%)
    H- 0 -> L+ 1: -0.0997 (  2.0%)
                   omega =  85.3%
  ----------------------------------------------------------------------------


  Excited state 2 (singlet, B1)                                    [converged]
  ----------------------------------------------------------------------------
  Term symbol:  2 (1) B1                                    R^2 =  3.23112e-10

  Total energy:                                           -153.8958264025 a.u.
  Excitation energy:                                               1.983555 eV

  Osc. strength:                                                      0.001790
  Trans. dip. moment [a.u.]:           [   0.191923,    0.000000,   -0.000000]
  <i|r^2|0> [a.u.]:                    [  -0.000000,    0.000000,    0.000000]

  Dip. moment [a.u.]:                  [   0.000000,   -0.000000,   -2.932821]
  Total dipole [Debye]:                                               7.454488
  <r^2> [a.u.]:                        [ 110.782702,   72.759315,  216.196979]
  Total <r^2> [a.u.]:                                               399.738996

  V1^2 = 0.8653, V2^2 = 0.1347

  Important amplitudes:
      occ i      occ j       vir a       vir b          v   
    ---------------------------------------------------------
     2 (B2) A               1 (A2) A                  0.6488
     2 (B2) A               2 (A2) A                  0.0838
    ---------------------------------------------------------

  Density matrix analysis:
  ------------------------
  NOs
    Occupation of frontier NOs:
       0.9603   0.9991
    Number of electrons: 26.000000
    Number of unpaired electrons: n_u =  2.74952, n_u,nl =  2.11635
    NO participation ratio (PR_NO):  3.873054
  
  
  Mulliken Population Analysis
  Atom      Charge (e)              h+              e-           Del q
  --------------------------------------------------------------------
   1 C       -0.679523        0.045023       -0.540048       -0.495025
   2 C       -0.679523        0.045023       -0.540048       -0.495025
   3 H        0.142429       -0.002101       -0.035602       -0.037703
   4 H        0.142429       -0.002101       -0.035602       -0.037703
   5 H        0.037483        0.033886       -0.002350        0.031536
   6 H        0.037483        0.033886       -0.002350        0.031536
   7 O       -0.167128        1.405476       -0.519008        0.886468
   8 H        0.166350        0.141263       -0.025348        0.115914
  --------------------------------------------------------------------
  Sum:       -1.000000        1.700355       -1.700355       -0.000000
  
  Multipole moment analysis of the density matrix
    Molecular charge:                      -1.000000
    Number of electrons:                   26.000000
      Center of electronic charge [Ang]: [ -0.000000,   0.000000,   0.059692]
    Total nuclear charge:                  25.000000
      Center of nuclear charge [Ang]:    [  0.000000,   0.000000,  -0.000000]
    Dipole moment [D]:                     7.454486
      Cartesian components [D]:          [  0.000000,  -0.000000,  -7.454486]
    RMS size of the density [Ang]:         2.074068
      Cartesian components [Ang]:        [  1.092321,   0.885235,   1.524778]
  
  Exciton analysis of the difference density matrix
    <r_h> [Ang]:                  [ -0.000000,  -0.000000,  -1.487735]
    <r_e> [Ang]:                  [ -0.000000,   0.000000,   0.091544]
    |<r_e - r_h>| [Ang]:            1.579279
    Hole size [Ang]:                1.789748
      Cartesian components [Ang]: [  0.861133,   0.894536,   1.288974]
    Electron size [Ang]:            4.906099
      Cartesian components [Ang]: [  3.105824,   3.069148,   2.236962]

  Transition density matrix analysis:
  -----------------------------------
  
  CT numbers (Mulliken)
    omega =     0.8506
    <Phe> =     0.0001
  
  Exciton analysis of the transition density matrix
    Trans. dipole moment [D]:             0.243910
      Cartesian components [D]:         [  0.243910,   0.000000,   0.000000]
    <r_h> [Ang]:                        [  0.000000,   0.000000,  -1.744500]
    <r_e> [Ang]:                        [ -0.000000,   0.000000,   1.027125]
    |<r_e - r_h>| [Ang]:                  2.771625
    Hole size [Ang]:                      1.100274
      Cartesian components [Ang]:       [  0.479706,   0.827885,   0.543224]
    Electron size [Ang]:                  6.052823
      Cartesian components [Ang]:       [  3.976675,   3.951460,   2.282253]
    RMS electron-hole separation [Ang]:   6.746540
      Cartesian components [Ang]:       [  4.005380,   4.035721,   3.631210]
    Covariance(r_h, r_e) [Ang^2]:         0.006686
    Correlation coefficient:              0.001004
    Center-of-mass size [Ang]:            3.076550
      Cartesian components [Ang]:       [  2.002814,   2.019394,   1.173005]

  Decomposition into state-averaged NTOs
    H- 2 -> L+ 4: -0.6329 ( 80.1%)
    H- 2 -> L+ 9:  0.1568 (  4.9%)
                   omega =  85.1%
  ----------------------------------------------------------------------------


  Excited state 3 (singlet, B1)                                    [converged]
  ----------------------------------------------------------------------------
  Term symbol:  3 (1) B1                                    R^2 =  6.40654e-10

  Total energy:                                           -153.8902328050 a.u.
  Excitation energy:                                               2.135765 eV

  Osc. strength:                                                      0.000643
  Trans. dip. moment [a.u.]:           [  -0.110835,   -0.000000,    0.000000]
  <i|r^2|0> [a.u.]:                    [   0.000000,    0.000000,    0.000000]

  Dip. moment [a.u.]:                  [  -0.000000,   -0.000000,   -3.171408]
  Total dipole [Debye]:                                               8.060916
  <r^2> [a.u.]:                        [ 138.994896,   40.342400,  217.699802]
  Total <r^2> [a.u.]:                                               397.037099

  V1^2 = 0.8658, V2^2 = 0.1342

  Important amplitudes:
      occ i      occ j       vir a       vir b          v   
    ---------------------------------------------------------
     4 (B1) A               9 (A1) A                  0.6484
     4 (B1) A               8 (A1) A                 -0.0854
    ---------------------------------------------------------

  Density matrix analysis:
  ------------------------
  NOs
    Occupation of frontier NOs:
       0.9604   0.9991
    Number of electrons: 26.000000
    Number of unpaired electrons: n_u =  2.74900, n_u,nl =  2.11556
    NO participation ratio (PR_NO):  3.871481
  
  
  Mulliken Population Analysis
  Atom      Charge (e)              h+              e-           Del q
  --------------------------------------------------------------------
   1 C       -0.683075        0.049677       -0.548254       -0.498577
   2 C       -0.683075        0.049677       -0.548254       -0.498577
   3 H        0.134549       -0.005616       -0.039967       -0.045584
   4 H        0.134549       -0.005616       -0.039967       -0.045584
   5 H        0.041147        0.038735       -0.003534        0.035201
   6 H        0.041147        0.038735       -0.003534        0.035201
   7 O       -0.131671        1.402502       -0.480577        0.921925
   8 H        0.146429        0.138076       -0.042083        0.095993
  --------------------------------------------------------------------
  Sum:       -1.000000        1.706169       -1.706169       -0.000000
  
  Multipole moment analysis of the density matrix
    Molecular charge:                      -1.000000
    Number of electrons:                   26.000000
      Center of electronic charge [Ang]: [  0.000000,   0.000000,   0.064548]
    Total nuclear charge:                  25.000000
      Center of nuclear charge [Ang]:    [  0.000000,   0.000000,  -0.000000]
    Dipole moment [D]:                     8.060914
      Cartesian components [D]:          [ -0.000000,  -0.000000,  -8.060914]
    RMS size of the density [Ang]:         2.066895
      Cartesian components [Ang]:        [  1.223528,   0.659167,   1.529880]
  
  Exciton analysis of the difference density matrix
    <r_h> [Ang]:                  [  0.000000,  -0.000000,  -1.455061]
    <r_e> [Ang]:                  [  0.000000,   0.000000,   0.192835]
    |<r_e - r_h>| [Ang]:            1.647897
    Hole size [Ang]:                1.816450
      Cartesian components [Ang]: [  0.947158,   0.804032,   1.325110]
    Electron size [Ang]:            4.851196
      Cartesian components [Ang]: [  3.794963,   1.978908,   2.283918]

  Transition density matrix analysis:
  -----------------------------------
  
  CT numbers (Mulliken)
    omega =     0.8512
    <Phe> =     0.0000
  
  Exciton analysis of the transition density matrix
    Trans. dipole moment [D]:             0.140857
      Cartesian components [D]:         [ -0.140857,  -0.000000,   0.000000]
    <r_h> [Ang]:                        [  0.000000,  -0.000000,  -1.724622]
    <r_e> [Ang]:                        [  0.000000,   0.000000,   1.180465]
    |<r_e - r_h>| [Ang]:                  2.905086
    Hole size [Ang]:                      1.144149
      Cartesian components [Ang]:       [  0.827056,   0.474636,   0.632279]
    Electron size [Ang]:                  5.964403
      Cartesian components [Ang]:       [  4.902496,   2.492759,   2.307767]
    RMS electron-hole separation [Ang]:   6.730425
      Cartesian components [Ang]:       [  4.969679,   2.537501,   3.763243]
    Covariance(r_h, r_e) [Ang^2]:         0.012046
    Correlation coefficient:              0.001765
    Center-of-mass size [Ang]:            3.037568
      Cartesian components [Ang]:       [  2.486929,   1.268793,   1.196731]

  Decomposition into state-averaged NTOs
    H- 0 -> L+ 5:  0.5193 ( 53.9%)
    H- 0 -> L+ 6:  0.2402 ( 11.5%)
    H- 0 -> L+ 3:  0.2176 (  9.5%)
    H- 0 -> L+ 8: -0.1916 (  7.3%)
    H- 0 -> L+ 1: -0.0993 (  2.0%)
                   omega =  85.1%
  ----------------------------------------------------------------------------


  Excited state 4 (singlet, B1)                                    [converged]
  ----------------------------------------------------------------------------
  Term symbol:  4 (1) B1                                    R^2 =  4.83356e-09

  Total energy:                                           -153.8566376989 a.u.
  Excitation energy:                                               3.049934 eV

  Osc. strength:                                                      0.027108
  Trans. dip. moment [a.u.]:           [  -0.602311,    0.000000,    0.000000]
  <i|r^2|0> [a.u.]:                    [  -0.000000,    0.000000,   -0.000000]

  Dip. moment [a.u.]:                  [   0.000000,   -0.000000,   -2.800619]
  Total dipole [Debye]:                                               7.118464
  <r^2> [a.u.]:                        [  76.875145,   28.152021,  214.157358]
  Total <r^2> [a.u.]:                                               319.184525

  V1^2 = 0.8726, V2^2 = 0.1274

  Important amplitudes:
      occ i      occ j       vir a       vir b          v   
    ---------------------------------------------------------
     4 (B1) A              10 (A1) A                  0.6110
     4 (B1) A              12 (A1) A                 -0.1740
    ---------------------------------------------------------

  Density matrix analysis:
  ------------------------
  NOs
    Occupation of frontier NOs:
       0.9632   0.9928
    Number of electrons: 26.000000
    Number of unpaired electrons: n_u =  2.74625, n_u,nl =  2.11351
    NO participation ratio (PR_NO):  3.879396
  
  
  Mulliken Population Analysis
  Atom      Charge (e)              h+              e-           Del q
  --------------------------------------------------------------------
   1 C       -0.711812        0.048756       -0.576069       -0.527313
   2 C       -0.711812        0.048756       -0.576069       -0.527313
   3 H        0.148693       -0.004068       -0.027372       -0.031440
   4 H        0.148693       -0.004068       -0.027372       -0.031440
   5 H        0.113714        0.037009        0.070759        0.107768
   6 H        0.113714        0.037009        0.070759        0.107768
   7 O       -0.367159        1.358175       -0.671738        0.686437
   8 H        0.265969        0.136973        0.078560        0.215533
  --------------------------------------------------------------------
  Sum:       -1.000000        1.658541       -1.658541       -0.000000
  
  Multipole moment analysis of the density matrix
    Molecular charge:                      -1.000000
    Number of electrons:                   26.000000
      Center of electronic charge [Ang]: [ -0.000000,   0.000000,   0.057001]
    Total nuclear charge:                  25.000000
      Center of nuclear charge [Ang]:    [  0.000000,   0.000000,  -0.000000]
    Dipole moment [D]:                     7.118462
      Cartesian components [D]:          [  0.000000,  -0.000000,  -7.118462]
    RMS size of the density [Ang]:         1.853233
      Cartesian components [Ang]:        [  0.909929,   0.550642,   1.517661]
  
  Exciton analysis of the difference density matrix
    <r_h> [Ang]:                  [  0.000000,  -0.000000,  -1.450249]
    <r_e> [Ang]:                  [ -0.000000,   0.000000,   0.126665]
    |<r_e - r_h>| [Ang]:            1.576914
    Hole size [Ang]:                1.767695
      Cartesian components [Ang]: [  0.930917,   0.761147,   1.295683]
    Electron size [Ang]:            3.277683
      Cartesian components [Ang]: [  2.066576,   1.372814,   2.141927]

  Transition density matrix analysis:
  -----------------------------------
  
  CT numbers (Mulliken)
    omega =     0.8562
    <Phe> =    -0.0025
  
  Exciton analysis of the transition density matrix
    Trans. dipole moment [D]:             0.765461
      Cartesian components [D]:         [ -0.765461,   0.000000,   0.000000]
    <r_h> [Ang]:                        [  0.000000,  -0.000000,  -1.713353]
    <r_e> [Ang]:                        [ -0.000000,   0.000000,   0.987318]
    |<r_e - r_h>| [Ang]:                  2.700671
    Hole size [Ang]:                      1.155705
      Cartesian components [Ang]:       [  0.825032,   0.473012,   0.656685]
    Electron size [Ang]:                  3.745158
      Cartesian components [Ang]:       [  2.572355,   1.657080,   2.159463]
    RMS electron-hole separation [Ang]:   4.751573
      Cartesian components [Ang]:       [  2.695466,   1.722941,   3.513315]
    Covariance(r_h, r_e) [Ang^2]:         0.039020
    Correlation coefficient:              0.009015
    Center-of-mass size [Ang]:            1.964682
      Cartesian components [Ang]:       [  1.353684,   0.861798,   1.133498]

  Decomposition into state-averaged NTOs
    H- 0 -> L+ 8:  0.4553 ( 41.5%)
    H- 0 -> L+ 3:  0.3196 ( 20.4%)
    H- 0 -> L+ 1:  0.2434 ( 11.8%)
    H- 0 -> L+ 0: -0.2045 (  8.4%)
    H- 0 -> L+ 5:  0.1243 (  3.1%)
                   omega =  85.6%
  ----------------------------------------------------------------------------


  Excited state 5 (singlet, B1)                                    [converged]
  ----------------------------------------------------------------------------
  Term symbol:  5 (1) B1                                    R^2 =  5.57100e-09

  Total energy:                                           -153.8290304030 a.u.
  Excitation energy:                                               3.801167 eV

  Osc. strength:                                                      0.000010
  Trans. dip. moment [a.u.]:           [  -0.010513,   -0.000000,    0.000000]
  <i|r^2|0> [a.u.]:                    [   0.000000,    0.000000,    0.000000]

  Dip. moment [a.u.]:                  [  -0.000000,    0.000000,   -2.893750]
  Total dipole [Debye]:                                               7.355180
  <r^2> [a.u.]:                        [  72.296154,   33.776772,  204.519930]
  Total <r^2> [a.u.]:                                               310.592856

  V1^2 = 0.8693, V2^2 = 0.1307

  Important amplitudes:
      occ i      occ j       vir a       vir b          v   
    ---------------------------------------------------------
     2 (B2) A               2 (A2) A                 -0.6193
     2 (B2) A               3 (A2) A                  0.2015
    ---------------------------------------------------------

  Density matrix analysis:
  ------------------------
  NOs
    Occupation of frontier NOs:
       0.9640   0.9950
    Number of electrons: 26.000000
    Number of unpaired electrons: n_u =  2.72562, n_u,nl =  2.10385
    NO participation ratio (PR_NO):  3.815084
  
  
  Mulliken Population Analysis
  Atom      Charge (e)              h+              e-           Del q
  --------------------------------------------------------------------
   1 C       -0.621712        0.081842       -0.519056       -0.437213
   2 C       -0.621712        0.081842       -0.519056       -0.437213
   3 H        0.120485        0.003449       -0.063097       -0.059648
   4 H        0.120485        0.003449       -0.063097       -0.059648
   5 H        0.002017        0.009365       -0.013294       -0.003929
   6 H        0.002017        0.009365       -0.013294       -0.003929
   7 O       -0.151758        1.366376       -0.464537        0.901839
   8 H        0.150178        0.121551       -0.021809        0.099742
  --------------------------------------------------------------------
  Sum:       -1.000000        1.677238       -1.677238       -0.000000
  
  Multipole moment analysis of the density matrix
    Molecular charge:                      -1.000000
    Number of electrons:                   26.000000
      Center of electronic charge [Ang]: [  0.000000,  -0.000000,   0.058896]
    Total nuclear charge:                  25.000000
      Center of nuclear charge [Ang]:    [  0.000000,   0.000000,  -0.000000]
    Dipole moment [D]:                     7.355177
      Cartesian components [D]:          [ -0.000000,   0.000000,  -7.355177]
    RMS size of the density [Ang]:         1.828037
      Cartesian components [Ang]:        [  0.882413,   0.603147,   1.482996]
  
  Exciton analysis of the difference density matrix
    <r_h> [Ang]:                  [ -0.000000,   0.000000,  -1.444460]
    <r_e> [Ang]:                  [ -0.000000,  -0.000000,   0.144259]
    |<r_e - r_h>| [Ang]:            1.588719
    Hole size [Ang]:                1.691639
      Cartesian components [Ang]: [  0.806241,   0.854630,   1.217056]
    Electron size [Ang]:            2.993739
      Cartesian components [Ang]: [  1.803249,   1.720527,   1.658479]

  Transition density matrix analysis:
  -----------------------------------
  
  CT numbers (Mulliken)
    omega =     0.8453
    <Phe> =    -0.0008
  
  Exciton analysis of the transition density matrix
    Trans. dipole moment [D]:             0.013361
      Cartesian components [D]:         [ -0.013361,  -0.000000,   0.000000]
    <r_h> [Ang]:                        [  0.000000,   0.000000,  -1.737529]
    <r_e> [Ang]:                        [ -0.000000,  -0.000000,   1.026483]
    |<r_e - r_h>| [Ang]:                  2.764012
    Hole size [Ang]:                      1.104160
      Cartesian components [Ang]:       [  0.478579,   0.823744,   0.558191]
    Electron size [Ang]:                  3.316973
      Cartesian components [Ang]:       [  2.204081,   2.142171,   1.247174]
    RMS electron-hole separation [Ang]:   4.455070
      Cartesian components [Ang]:       [  2.254909,   2.292705,   3.083267]
    Covariance(r_h, r_e) [Ang^2]:         0.006799
    Correlation coefficient:              0.001856
    Center-of-mass size [Ang]:            1.748934
      Cartesian components [Ang]:       [  1.127986,   1.148739,   0.683240]

  Decomposition into state-averaged NTOs
    H- 2 -> L+ 9:  0.6305 ( 79.5%)
    H- 2 -> L+ 4:  0.1571 (  4.9%)
                   omega =  84.5%
  ----------------------------------------------------------------------------


  Excited state 6 (singlet, B1)                                    [converged]
  ----------------------------------------------------------------------------
  Term symbol:  6 (1) B1                                    R^2 =  1.32081e-08

  Total energy:                                           -153.8092510808 a.u.
  Excitation energy:                                               4.339390 eV

  Osc. strength:                                                      0.019781
  Trans. dip. moment [a.u.]:           [   0.431356,   -0.000000,   -0.000000]
  <i|r^2|0> [a.u.]:                    [  -0.000000,    0.000000,    0.000000]

  Dip. moment [a.u.]:                  [   0.000000,    0.000000,   -2.796792]
  Total dipole [Debye]:                                               7.108737
  <r^2> [a.u.]:                        [  68.658749,   33.094733,  243.420351]
  Total <r^2> [a.u.]:                                               345.173833

  V1^2 = 0.8771, V2^2 = 0.1229

  Important amplitudes:
      occ i      occ j       vir a       vir b          v   
    ---------------------------------------------------------
     4 (B1) A              11 (A1) A                  0.5157
     4 (B1) A              12 (A1) A                  0.2862
    ---------------------------------------------------------

  Density matrix analysis:
  ------------------------
  NOs
    Occupation of frontier NOs:
       0.9644   0.9930
    Number of electrons: 26.000000
    Number of unpaired electrons: n_u =  2.74116, n_u,nl =  2.11163
    NO participation ratio (PR_NO):  3.860863
  
  
  Mulliken Population Analysis
  Atom      Charge (e)              h+              e-           Del q
  --------------------------------------------------------------------
   1 C       -0.753976        0.042685       -0.612163       -0.569478
   2 C       -0.753976        0.042685       -0.612163       -0.569478
   3 H        0.114436       -0.005292       -0.060404       -0.065696
   4 H        0.114436       -0.005292       -0.060404       -0.065696
   5 H        0.093657        0.039127        0.048584        0.087711
   6 H        0.093657        0.039127        0.048584        0.087711
   7 O       -0.312734        1.337204       -0.596341        0.740863
   8 H        0.404500        0.149754        0.204310        0.354064
  --------------------------------------------------------------------
  Sum:       -1.000000        1.639997       -1.639997       -0.000000
  
  Multipole moment analysis of the density matrix
    Molecular charge:                      -1.000000
    Number of electrons:                   26.000000
      Center of electronic charge [Ang]: [ -0.000000,  -0.000000,   0.056923]
    Total nuclear charge:                  25.000000
      Center of nuclear charge [Ang]:    [  0.000000,   0.000000,  -0.000000]
    Dipole moment [D]:                     7.108735
      Cartesian components [D]:          [  0.000000,   0.000000,  -7.108735]
    RMS size of the density [Ang]:         1.927277
      Cartesian components [Ang]:        [  0.859929,   0.597027,   1.618171]
  
  Exciton analysis of the difference density matrix
    <r_h> [Ang]:                  [  0.000000,  -0.000000,  -1.453422]
    <r_e> [Ang]:                  [ -0.000000,  -0.000000,   0.140088]
    |<r_e - r_h>| [Ang]:            1.593510
    Hole size [Ang]:                1.787681
      Cartesian components [Ang]: [  0.925562,   0.773575,   1.319362]
    Electron size [Ang]:            3.914090
      Cartesian components [Ang]: [  1.701864,   1.662052,   3.108270]

  Transition density matrix analysis:
  -----------------------------------
  
  CT numbers (Mulliken)
    omega =     0.8604
    <Phe> =    -0.0049
  
  Exciton analysis of the transition density matrix
    Trans. dipole moment [D]:             0.548199
      Cartesian components [D]:         [  0.548199,  -0.000000,  -0.000000]
    <r_h> [Ang]:                        [  0.000000,  -0.000000,  -1.716383]
    <r_e> [Ang]:                        [ -0.000000,  -0.000000,   0.951884]
    |<r_e - r_h>| [Ang]:                  2.668267
    Hole size [Ang]:                      1.150719
      Cartesian components [Ang]:       [  0.824007,   0.473123,   0.649093]
    Electron size [Ang]:                  4.609177
      Cartesian components [Ang]:       [  2.062571,   2.024915,   3.590269]
    RMS electron-hole separation [Ang]:   5.441570
      Cartesian components [Ang]:       [  2.216633,   2.079346,   4.513706]
    Covariance(r_h, r_e) [Ang^2]:         0.038813
    Correlation coefficient:              0.007318
    Center-of-mass size [Ang]:            2.379406
      Cartesian components [Ang]:       [  1.112756,   1.039781,   1.828169]

  Decomposition into state-averaged NTOs
    H- 0 -> L+ 8:  0.3984 ( 31.7%)
    H- 0 -> L+ 0:  0.3119 ( 19.5%)
    H- 0 -> L+ 6:  0.2942 ( 17.3%)
    H- 0 -> L+ 1: -0.2538 ( 12.9%)
    H- 0 -> L+ 3: -0.1484 (  4.4%)
                   omega =  86.0%
  ----------------------------------------------------------------------------


  Excited state 7 (singlet, B1)                                    [converged]
  ----------------------------------------------------------------------------
  Term symbol:  7 (1) B1                                    R^2 =  4.31836e-08

  Total energy:                                           -153.7918973387 a.u.
  Excitation energy:                                               4.811609 eV

  Osc. strength:                                                      0.014407
  Trans. dip. moment [a.u.]:           [   0.349594,   -0.000000,    0.000000]
  <i|r^2|0> [a.u.]:                    [   0.000000,    0.000000,    0.000000]

  Dip. moment [a.u.]:                  [   0.000000,   -0.000000,    0.754662]
  Total dipole [Debye]:                                               1.918159
  <r^2> [a.u.]:                        [  74.856850,   28.093443,  222.583649]
  Total <r^2> [a.u.]:                                               325.533942

  V1^2 = 0.8901, V2^2 = 0.1099

  Important amplitudes:
      occ i      occ j       vir a       vir b          v   
    ---------------------------------------------------------
     4 (B1) A              13 (A1) A                  0.3853
     4 (B1) A              12 (A1) A                  0.3852
    ---------------------------------------------------------

  Density matrix analysis:
  ------------------------
  NOs
    Occupation of frontier NOs:
       0.9656   0.9956
    Number of electrons: 26.000000
    Number of unpaired electrons: n_u =  2.72321, n_u,nl =  2.10426
    NO participation ratio (PR_NO):  3.799733
  
  
  Mulliken Population Analysis
  Atom      Charge (e)              h+              e-           Del q
  --------------------------------------------------------------------
   1 C       -0.346692        0.040941       -0.203135       -0.162193
   2 C       -0.346692        0.040941       -0.203135       -0.162193
   3 H        0.173470       -0.001575       -0.005088       -0.006662
   4 H        0.173470       -0.001575       -0.005088       -0.006662
   5 H        0.022891        0.026714       -0.009770        0.016944
   6 H        0.022891        0.026714       -0.009770        0.016944
   7 O       -1.384403        1.268863       -1.599670       -0.330807
   8 H        0.685066        0.174045        0.460585        0.634630
  --------------------------------------------------------------------
  Sum:       -1.000000        1.575071       -1.575071       -0.000000
  
  Multipole moment analysis of the density matrix
    Molecular charge:                      -1.000000
    Number of electrons:                   26.000000
      Center of electronic charge [Ang]: [ -0.000000,   0.000000,  -0.015360]
    Total nuclear charge:                  25.000000
      Center of nuclear charge [Ang]:    [  0.000000,   0.000000,  -0.000000]
    Dipole moment [D]:                     1.918159
      Cartesian components [D]:          [  0.000000,  -0.000000,   1.918159]
    RMS size of the density [Ang]:         1.872397
      Cartesian components [Ang]:        [  0.897905,   0.550069,   1.548245]
  
  Exciton analysis of the difference density matrix
    <r_h> [Ang]:                  [  0.000000,  -0.000000,  -1.511168]
    <r_e> [Ang]:                  [ -0.000000,  -0.000000,  -1.045155]
    |<r_e - r_h>| [Ang]:            0.466013
    Hole size [Ang]:                1.729165
      Cartesian components [Ang]: [  0.944327,   0.766074,   1.229386]
    Electron size [Ang]:            3.336848
      Cartesian components [Ang]: [  2.029151,   1.396747,   2.250821]

  Transition density matrix analysis:
  -----------------------------------
  
  CT numbers (Mulliken)
    omega =     0.8723
    <Phe> =    -0.0072
  
  Exciton analysis of the transition density matrix
    Trans. dipole moment [D]:             0.444290
      Cartesian components [D]:         [  0.444290,  -0.000000,   0.000000]
    <r_h> [Ang]:                        [  0.000000,  -0.000000,  -1.727476]
    <r_e> [Ang]:                        [ -0.000000,  -0.000000,  -0.996455]
    |<r_e - r_h>| [Ang]:                  0.731022
    Hole size [Ang]:                      1.131923
      Cartesian components [Ang]:       [  0.820991,   0.471463,   0.620440]
    Electron size [Ang]:                  3.957701
      Cartesian components [Ang]:       [  2.433371,   1.639079,   2.656223]
    RMS electron-hole separation [Ang]:   4.169686
      Cartesian components [Ang]:       [  2.563793,   1.705445,   2.811530]
    Covariance(r_h, r_e) [Ang^2]:         0.046379
    Correlation coefficient:              0.010353
    Center-of-mass size [Ang]:            2.063819
      Cartesian components [Ang]:       [  1.286235,   0.852815,   1.370276]

  Decomposition into state-averaged NTOs
    H- 0 -> L+ 0:  0.4930 ( 48.6%)
    H- 0 -> L+ 3:  0.3467 ( 24.0%)
    H- 0 -> L+ 1:  0.1792 (  6.4%)
    H- 0 -> L+ 5: -0.1676 (  5.6%)
    H- 0 -> L+ 8: -0.0825 (  1.4%)
    H- 0 -> L+ 6: -0.0724 (  1.0%)
                   omega =  87.2%
  ----------------------------------------------------------------------------


  Excited state 8 (singlet, B1)                                    [converged]
  ----------------------------------------------------------------------------
  Term symbol:  8 (1) B1                                    R^2 =  3.22168e-07

  Total energy:                                           -153.7639011326 a.u.
  Excitation energy:                                               5.573424 eV

  Osc. strength:                                                      0.000354
  Trans. dip. moment [a.u.]:           [   0.050896,   -0.000000,   -0.000000]
  <i|r^2|0> [a.u.]:                    [   0.000000,    0.000000,   -0.000000]

  Dip. moment [a.u.]:                  [   0.000000,    0.000000,   -3.677747]
  Total dipole [Debye]:                                               9.347902
  <r^2> [a.u.]:                        [ 129.521275,   43.849461,  225.405712]
  Total <r^2> [a.u.]:                                               398.776448

  V1^2 = 0.8686, V2^2 = 0.1314

  Important amplitudes:
      occ i      occ j       vir a       vir b          v   
    ---------------------------------------------------------
     7 (A1) A               5 (B1) A                  0.5980
     7 (A1) A               6 (B1) A                 -0.2511
    ---------------------------------------------------------

  Density matrix analysis:
  ------------------------
  NOs
    Occupation of frontier NOs:
       0.9797   0.9997
    Number of electrons: 26.000000
    Number of unpaired electrons: n_u =  2.80202, n_u,nl =  2.13178
    NO participation ratio (PR_NO):  3.936729
  
  
  Mulliken Population Analysis
  Atom      Charge (e)              h+              e-           Del q
  --------------------------------------------------------------------
   1 C       -0.683655        0.062918       -0.562075       -0.499157
   2 C       -0.683655        0.062918       -0.562075       -0.499157
   3 H        0.147880        0.002146       -0.034399       -0.032252
   4 H        0.147880        0.002146       -0.034399       -0.032252
   5 H        0.049795        0.043631        0.000218        0.043849
   6 H        0.049795        0.043631        0.000218        0.043849
   7 O       -0.361418        1.202339       -0.510161        0.692178
   8 H        0.333378        0.299942       -0.017000        0.282942
  --------------------------------------------------------------------
  Sum:       -1.000000        1.719671       -1.719671        0.000000
  
  Multipole moment analysis of the density matrix
    Molecular charge:                      -1.000000
    Number of electrons:                   26.000000
      Center of electronic charge [Ang]: [ -0.000000,  -0.000000,   0.074853]
    Total nuclear charge:                  25.000000
      Center of nuclear charge [Ang]:    [  0.000000,   0.000000,  -0.000000]
    Dipole moment [D]:                     9.347899
      Cartesian components [D]:          [  0.000000,   0.000000,  -9.347899]
    RMS size of the density [Ang]:         2.071075
      Cartesian components [Ang]:        [  1.181095,   0.687221,   1.556307]
  
  Exciton analysis of the difference density matrix
    <r_h> [Ang]:                  [ -0.000000,  -0.000000,  -1.366688]
    <r_e> [Ang]:                  [ -0.000000,  -0.000000,   0.424080]
    |<r_e - r_h>| [Ang]:            1.790768
    Hole size [Ang]:                1.870498
      Cartesian components [Ang]: [  0.868950,   0.788432,   1.456731]
    Electron size [Ang]:            4.845827
      Cartesian components [Ang]: [  3.551198,   2.106335,   2.536609]

  Transition density matrix analysis:
  -----------------------------------
  
  CT numbers (Mulliken)
    omega =     0.8518
    <Phe> =     0.0001
  
  Exciton analysis of the transition density matrix
    Trans. dipole moment [D]:             0.064682
      Cartesian components [D]:         [  0.064682,  -0.000000,  -0.000000]
    <r_h> [Ang]:                        [  0.000000,  -0.000000,  -1.702764]
    <r_e> [Ang]:                        [ -0.000000,  -0.000000,   1.511016]
    |<r_e - r_h>| [Ang]:                  3.213780
    Hole size [Ang]:                      1.155271
      Cartesian components [Ang]:       [  0.457187,   0.406003,   0.980201]
    Electron size [Ang]:                  5.921353
      Cartesian components [Ang]:       [  4.589285,   2.673536,   2.617841]
    RMS electron-hole separation [Ang]:   6.830604
      Cartesian components [Ang]:       [  4.610852,   2.704420,   4.252448]
    Covariance(r_h, r_e) [Ang^2]:         0.034154
    Correlation coefficient:              0.004993
    Center-of-mass size [Ang]:            3.019329
      Cartesian components [Ang]:       [  2.306576,   1.351978,   1.402930]

  Decomposition into state-averaged NTOs
    H- 1 -> L+ 7: -0.5112 ( 52.3%)
    H- 1 -> L+ 2: -0.4054 ( 32.9%)
                   omega =  85.2%
  ----------------------------------------------------------------------------


  Excited state 9 (singlet, B1)                                    [converged]
  ----------------------------------------------------------------------------
  Term symbol:  9 (1) B1                                    R^2 =  2.47007e-06

  Total energy:                                           -153.7469696346 a.u.
  Excitation energy:                                               6.034154 eV

  Osc. strength:                                                      0.001137
  Trans. dip. moment [a.u.]:           [  -0.087702,    0.000000,    0.000000]
  <i|r^2|0> [a.u.]:                    [  -0.000000,    0.000000,    0.000000]

  Dip. moment [a.u.]:                  [  -0.000000,    0.000000,   -1.753110]
  Total dipole [Debye]:                                               4.455961
  <r^2> [a.u.]:                        [ 115.623943,   38.490543,  252.126627]
  Total <r^2> [a.u.]:                                               406.241113

  V1^2 = 0.8710, V2^2 = 0.1290

  Important amplitudes:
      occ i      occ j       vir a       vir b          v   
    ---------------------------------------------------------
     7 (A1) A               6 (B1) A                  0.6043
     7 (A1) A               5 (B1) A                  0.2511
    ---------------------------------------------------------

  Density matrix analysis:
  ------------------------
  NOs
    Occupation of frontier NOs:
       0.9796   1.0010
    Number of electrons: 26.000000
    Number of unpaired electrons: n_u =  2.79472, n_u,nl =  2.12960
    NO participation ratio (PR_NO):  3.920705
  
  
  Mulliken Population Analysis
  Atom      Charge (e)              h+              e-           Del q
  --------------------------------------------------------------------
   1 C       -0.670916        0.057770       -0.544188       -0.486417
   2 C       -0.670916        0.057770       -0.544188       -0.486417
   3 H        0.144318       -0.000329       -0.035485       -0.035814
   4 H        0.144318       -0.000329       -0.035485       -0.035814
   5 H        0.038797        0.041704       -0.008853        0.032850
   6 H        0.038797        0.041704       -0.008853        0.032850
   7 O       -0.361616        1.205122       -0.513142        0.691981
   8 H        0.337217        0.303893       -0.017112        0.286781
  --------------------------------------------------------------------
  Sum:       -1.000000        1.707307       -1.707307       -0.000000
  
  Multipole moment analysis of the density matrix
    Molecular charge:                      -1.000000
    Number of electrons:                   26.000000
      Center of electronic charge [Ang]: [  0.000000,  -0.000000,   0.035681]
    Total nuclear charge:                  25.000000
      Center of nuclear charge [Ang]:    [  0.000000,   0.000000,  -0.000000]
    Dipole moment [D]:                     4.455960
      Cartesian components [D]:          [ -0.000000,   0.000000,  -4.455960]
    RMS size of the density [Ang]:         2.091429
      Cartesian components [Ang]:        [  1.115934,   0.643860,   1.647487]
  
  Exciton analysis of the difference density matrix
    <r_h> [Ang]:                  [ -0.000000,  -0.000000,  -1.386232]
    <r_e> [Ang]:                  [  0.000000,  -0.000000,  -0.179034]
    |<r_e - r_h>| [Ang]:            1.207199
    Hole size [Ang]:                1.857134
      Cartesian components [Ang]: [  0.857440,   0.786675,   1.447372]
    Electron size [Ang]:            4.999065
      Cartesian components [Ang]: [  3.224529,   1.892762,   3.318209]

  Transition density matrix analysis:
  -----------------------------------
  
  CT numbers (Mulliken)
    omega =     0.8540
    <Phe> =    -0.0000
  
  Exciton analysis of the transition density matrix
    Trans. dipole moment [D]:             0.111458
      Cartesian components [D]:         [ -0.111458,   0.000000,   0.000000]
    <r_h> [Ang]:                        [  0.000000,  -0.000000,  -1.716659]
    <r_e> [Ang]:                        [  0.000000,  -0.000000,   0.461471]
    |<r_e - r_h>| [Ang]:                  2.178130
    Hole size [Ang]:                      1.141369
      Cartesian components [Ang]:       [  0.452223,   0.406039,   0.966101]
    Electron size [Ang]:                  6.261770
      Cartesian components [Ang]:       [  4.142078,   2.376121,   4.050555]
    RMS electron-hole separation [Ang]:   6.720585
      Cartesian components [Ang]:       [  4.166117,   2.410585,   4.690289]
    Covariance(r_h, r_e) [Ang^2]:         0.045240
    Correlation coefficient:              0.006330
    Center-of-mass size [Ang]:            3.186023
      Cartesian components [Ang]:       [  2.083633,   1.205272,   2.087232]

  Decomposition into state-averaged NTOs
    H- 1 -> L+ 2:  0.5140 ( 52.8%)
    H- 1 -> L+ 7: -0.4031 ( 32.5%)
                   omega =  85.4%
  ----------------------------------------------------------------------------


  Excited state 10 (singlet, B1)                                    [converged]
  ----------------------------------------------------------------------------
  Term symbol:  10 (1) B1                                   R^2 =  1.79464e-06

  Total energy:                                           -153.7456879826 a.u.
  Excitation energy:                                               6.069030 eV

  Osc. strength:                                                      0.001666
  Trans. dip. moment [a.u.]:           [   0.105843,    0.000000,    0.000000]
  <i|r^2|0> [a.u.]:                    [  -0.000000,   -0.000000,   -0.000000]

  Dip. moment [a.u.]:                  [  -0.000000,   -0.000000,   -2.492078]
  Total dipole [Debye]:                                               6.334232
  <r^2> [a.u.]:                        [  72.653700,   33.424271,  206.968332]
  Total <r^2> [a.u.]:                                               313.046303

  V1^2 = 0.8795, V2^2 = 0.1205

  Important amplitudes:
      occ i      occ j       vir a       vir b          v   
    ---------------------------------------------------------
     4 (B1) A              13 (A1) A                  0.5092
     4 (B1) A              12 (A1) A                 -0.4040
    ---------------------------------------------------------

  Density matrix analysis:
  ------------------------
  NOs
    Occupation of frontier NOs:
       0.9648   0.9955
    Number of electrons: 26.000000
    Number of unpaired electrons: n_u =  2.73877, n_u,nl =  2.11010
    NO participation ratio (PR_NO):  3.843536
  
  
  Mulliken Population Analysis
  Atom      Charge (e)              h+              e-           Del q
  --------------------------------------------------------------------
   1 C       -0.760027        0.057018       -0.632547       -0.575529
   2 C       -0.760027        0.057018       -0.632547       -0.575529
   3 H        0.195196       -0.003803        0.018867        0.015064
   4 H        0.195196       -0.003803        0.018867        0.015064
   5 H        0.060801        0.015244        0.039611        0.054855
   6 H        0.060801        0.015244        0.039611        0.054855
   7 O       -0.149151        1.367404       -0.462958        0.904446
   8 H        0.157211        0.122916       -0.016140        0.106775
  --------------------------------------------------------------------
  Sum:       -1.000000        1.627237       -1.627237       -0.000000
  
  Multipole moment analysis of the density matrix
    Molecular charge:                      -1.000000
    Number of electrons:                   26.000000
      Center of electronic charge [Ang]: [  0.000000,   0.000000,   0.050721]
    Total nuclear charge:                  25.000000
      Center of nuclear charge [Ang]:    [  0.000000,   0.000000,  -0.000000]
    Dipole moment [D]:                     6.334230
      Cartesian components [D]:          [ -0.000000,  -0.000000,  -6.334230]
    RMS size of the density [Ang]:         1.835494
      Cartesian components [Ang]:        [  0.884593,   0.599992,   1.492161]
  
  Exciton analysis of the difference density matrix
    <r_h> [Ang]:                  [ -0.000000,  -0.000000,  -1.493504]
    <r_e> [Ang]:                  [ -0.000000,  -0.000000,   0.013409]
    |<r_e - r_h>| [Ang]:            1.506913
    Hole size [Ang]:                1.698892
      Cartesian components [Ang]: [  0.906705,   0.764601,   1.216349]
    Electron size [Ang]:            3.114159
      Cartesian components [Ang]: [  1.888192,   1.679968,   1.819457]

  Transition density matrix analysis:
  -----------------------------------
  
  CT numbers (Mulliken)
    omega =     0.8627
    <Phe> =    -0.0004
  
  Exciton analysis of the transition density matrix
    Trans. dipole moment [D]:             0.134513
      Cartesian components [D]:         [  0.134513,   0.000000,   0.000000]
    <r_h> [Ang]:                        [  0.000000,  -0.000000,  -1.713571]
    <r_e> [Ang]:                        [ -0.000000,   0.000000,   0.824178]
    |<r_e - r_h>| [Ang]:                  2.537749
    Hole size [Ang]:                      1.152930
      Cartesian components [Ang]:       [  0.823701,   0.471886,   0.654285]
    Electron size [Ang]:                  3.502485
      Cartesian components [Ang]:       [  2.299300,   2.049154,   1.667809]
    RMS electron-hole separation [Ang]:   4.472122
      Cartesian components [Ang]:       [  2.439353,   2.102032,   3.103368]
    Covariance(r_h, r_e) [Ang^2]:         0.018472
    Correlation coefficient:              0.004574
    Center-of-mass size [Ang]:            1.846185
      Cartesian components [Ang]:       [  1.222711,   1.051770,   0.898419]

  Decomposition into state-averaged NTOs
    H- 0 -> L+ 1:  0.5072 ( 51.4%)
    H- 0 -> L+ 3: -0.3370 ( 22.7%)
    H- 0 -> L+ 5:  0.1533 (  4.7%)
    H- 0 -> L+ 6:  0.1395 (  3.9%)
    H- 0 -> L+ 0:  0.1311 (  3.4%)
                   omega =  86.3%
  ----------------------------------------------------------------------------


--------------------------------------------------------------------------------
  Time of ADC calculation:  CPU 267.20 s  wall 72.43 s
================================================================================
 
 --------------------------------------------------------------
             Orbital Energies (a.u.) and Symmetries
 --------------------------------------------------------------
 
 Alpha MOs, Restricted
 -- Occupied --                  
-20.213 -11.049 -11.047  -0.930  -0.854  -0.598  -0.473  -0.384
  1 A1    2 A1    1 B1    3 A1    4 A1    2 B1    5 A1    6 A1                 
 -0.328  -0.271  -0.194  -0.130  -0.128
  3 B1    7 A1    1 B2    4 B1    2 B2                                         
 -- Virtual --                   
  0.113   0.128   0.134   0.137   0.144   0.146   0.212   0.220
  5 B1    8 A1    3 B2    1 A2    9 A1    6 B1   10 A1    7 B1                 
  0.260   0.268   0.282   0.291   0.328   0.357   0.396   0.425
  2 A2   11 A1    8 B1    4 B2   12 A1   13 A1    3 A2    9 B1                 
  0.449   0.470   0.471   0.528   0.539   0.578   0.622   0.653
  5 B2   14 A1   10 B1   15 A1   11 B1   16 A1   12 B1   17 A1                 
  0.686   0.832   0.959   0.996   1.055   1.065   1.082   1.132
 13 B1   18 A1   19 A1    6 B2   20 A1    4 A2   21 A1   14 B1                 
  1.183   1.201   1.203   1.215   1.291   1.294   1.331   1.331
 15 B1   16 B1    7 B2   22 A1    5 A2   23 A1   24 A1   17 B1                 
  1.370   1.467   1.472   1.483   1.561   1.642   1.691   1.719
  8 B2    9 B2   18 B1    6 A2   19 B1   25 A1   20 B1   10 B2                 
  1.850   1.927   1.964   2.032   2.123   2.127   2.139   2.189
 26 A1   21 B1   27 A1    7 A2   11 B2   28 A1   22 B1   29 A1                 
  2.212   2.285   2.356   2.393   2.436   2.473   2.552   2.604
 12 B2   30 A1    8 A2   13 B2   23 B1   24 B1   31 A1    9 A2                 
  2.726   2.749   2.847   3.008   3.036   3.087   3.455   3.562
 25 B1   32 A1   26 B1   33 A1   34 A1   35 A1   27 B1   28 B1                 
  3.921   3.945   3.970   4.087   4.537
 14 B2   10 A2   36 A1   29 B1   37 A1                                         
 
 Beta MOs, Restricted
 -- Occupied --                  
-20.213 -11.049 -11.047  -0.930  -0.854  -0.598  -0.473  -0.384
  1 A1    2 A1    1 B1    3 A1    4 A1    2 B1    5 A1    6 A1                 
 -0.328  -0.271  -0.194  -0.130  -0.128
  3 B1    7 A1    1 B2    4 B1    2 B2                                         
 -- Virtual --                   
  0.113   0.128   0.134   0.137   0.144   0.146   0.212   0.220
  5 B1    8 A1    3 B2    1 A2    9 A1    6 B1   10 A1    7 B1                 
  0.260   0.268   0.282   0.291   0.328   0.357   0.396   0.425
  2 A2   11 A1    8 B1    4 B2   12 A1   13 A1    3 A2    9 B1                 
  0.449   0.470   0.471   0.528   0.539   0.578   0.622   0.653
  5 B2   14 A1   10 B1   15 A1   11 B1   16 A1   12 B1   17 A1                 
  0.686   0.832   0.959   0.996   1.055   1.065   1.082   1.132
 13 B1   18 A1   19 A1    6 B2   20 A1    4 A2   21 A1   14 B1                 
  1.183   1.201   1.203   1.215   1.291   1.294   1.331   1.331
 15 B1   16 B1    7 B2   22 A1    5 A2   23 A1   24 A1   17 B1                 
  1.370   1.467   1.472   1.483   1.561   1.642   1.691   1.719
  8 B2    9 B2   18 B1    6 A2   19 B1   25 A1   20 B1   10 B2                 
  1.850   1.927   1.964   2.032   2.123   2.127   2.139   2.189
 26 A1   21 B1   27 A1    7 A2   11 B2   28 A1   22 B1   29 A1                 
  2.212   2.285   2.356   2.393   2.436   2.473   2.552   2.604
 12 B2   30 A1    8 A2   13 B2   23 B1   24 B1   31 A1    9 A2                 
  2.726   2.749   2.847   3.008   3.036   3.087   3.455   3.562
 25 B1   32 A1   26 B1   33 A1   34 A1   35 A1   27 B1   28 B1                 
  3.921   3.945   3.970   4.087   4.537
 14 B2   10 A2   36 A1   29 B1   37 A1                                         
 --------------------------------------------------------------
 
          Ground-State Mulliken Net Atomic Charges

     Atom                 Charge (a.u.)
  ----------------------------------------
      1 C                    -0.178620
      2 C                    -0.178620
      3 H                     0.172996
      4 H                     0.172996
      5 H                     0.000573
      6 H                     0.000573
      7 O                    -1.057734
      8 H                     0.067836
  ----------------------------------------
  Sum of atomic charges =    -1.000000

 -----------------------------------------------------------------
                    Cartesian Multipole Moments
 -----------------------------------------------------------------
    Charge (ESU x 10^10)
                -4.8032
    Dipole Moment (Debye)
         X       0.0000      Y       0.0000      Z       5.2736
       Tot       5.2736
    Quadrupole Moments (Debye-Ang)
        XX     -23.6785     XY       0.0000     YY     -26.5088
        XZ       0.0000     YZ       0.0000     ZZ     -32.8474
    Octopole Moments (Debye-Ang^2)
       XXX      -0.0000    XXY       0.0000    XYY       0.0000
       YYY      -0.0000    XXZ       1.0171    XYZ      -0.0000
       YYZ      -0.0673    XZZ       0.0000    YZZ       0.0000
       ZZZ       6.1097
    Hexadecapole Moments (Debye-Ang^3)
      XXXX     -88.3555   XXXY      -0.0000   XXYY     -21.9251
      XYYY       0.0000   YYYY     -40.4416   XXXZ      -0.0000
      XXYZ       0.0000   XYYZ       0.0000   YYYZ       0.0000
      XXZZ     -70.7720   XYZZ       0.0000   YYZZ     -65.4933
      XZZZ       0.0000   YZZZ      -0.0000   ZZZZ    -292.4221
 -----------------------------------------------------------------
 Total job time:  181.21s(wall), 315.74s(cpu) 
 Wed Mar  2 16:43:47 2022

        *************************************************************
        *                                                           *
        *  Thank you very much for using Q-Chem.  Have a nice day.  *
        *                                                           *
        *************************************************************


