/src/tsommerfeld/qchem/exe/qcprog.exe .input0.721212.24026.qcin.1 /src/jdavis/qchem.scratch/qchem24026/

                  Welcome to Q-Chem
     A Quantum Leap Into The Future Of Chemistry


 Q-Chem 5.4 (devel), Q-Chem, Inc., Pleasanton, CA (2021)

 E. Epifanovsky,  A. T. B. Gilbert,  Xintian Feng,  Joonho Lee,  Yuezhi Mao,  
 N. Mardirossian,  P. Pokhilko,  A. White,  M. Wormit,  M. P. Coons,  
 A. L. Dempwolff,  Zhengting Gan,  D. Hait,  P. R. Horn,  L. D. Jacobson,  
 I. Kaliman,  J. Kussmann,  A. W. Lange,  Ka Un Lao,  D. S. Levine,  Jie Liu,  
 S. C. McKenzie,  A. F. Morrison,  K. Nanda,  F. Plasser,  D. R. Rehn,  
 M. L. Vidal,  Zhi-Qiang You,  Ying Zhu,  B. Alam,  B. Albrecht,  
 A. Aldossary,  E. Alguire,  J. H. Andersen,  D. Barton,  K. Begam,  A. Behn,  
 Y. A. Bernard,  E. J. Berquist,  H. Burton,  A. Carreras,  K. Carter-Fenk,  
 R. Chakraborty,  A. D. Chien,  K. D. Closser,  V. Cofer-Shabica,  
 S. Dasgupta,  Jia Deng,  M. de Wergifosse,  M. Diedenhofen,  Hainam Do,  
 S. Ehlert,  Po-Tung Fang,  S. Fatehi,  Qingguo Feng,  T. Friedhoff,  
 J. Gayvert,  Qinghui Ge,  G. Gidofalvi,  M. Goldey,  J. Gomes,  
 C. Gonzalez-Espinoza,  S. Gulania,  A. Gunina,  M. W. D. Hanson-Heine,  
 P. H. P. Harbach,  A. W. Hauser,  M. F. Herbst,  M. Hernandez Vera,  
 M. Hodecker,  Z. C. Holden,  S. Houck,  Xunkun Huang,  Kerwin Hui,  
 B. C. Huynh,  M. Ivanov,  Hyunjun Ji,  Hanjie Jiang,  B. Kaduk,  S. Kaehler,  
 K. Khistyaev,  Jaehoon Kim,  P. Klunzinger,  Z. Koczor-Benda,  
 Joong Hoon Koh,  D. Kosenkov,  L. Koulias,  T. Kowalczyk,  C. M. Krauter,  
 K. Kue,  A. Kunitsa,  T. Kus,  A. Landau,  K. V. Lawler,  D. Lefrancois,  
 S. Lehtola,  Rain Li,  Yi-Pei Li,  Jiashu Liang,  M. Liebenthal,  
 Hung-Hsuan Lin,  You-Sheng Lin,  Fenglai Liu,  Kuan-Yu Liu,  
 M. Loipersberger,  A. Luenser,  A. Manjanath,  P. Manohar,  E. Mansoor,  
 S. F. Manzer,  Shan-Ping Mao,  A. V. Marenich,  T. Markovich,  S. Mason,  
 S. A. Maurer,  P. F. McLaughlin,  M. F. S. J. Menger,  J.-M. Mewes,  
 S. A. Mewes,  P. Morgante,  J. W. Mullinax,  K. J. Oosterbaan,  G. Paran,  
 Alexander C. Paul,  Suranjan K. Paul,  F. Pavosevic,  Zheng Pei,  S. Prager,  
 E. I. Proynov,  E. Ramos,  B. Rana,  A. E. Rask,  A. Rettig,  R. M. Richard,  
 F. Rob,  E. Rossomme,  T. Scheele,  M. Scheurer,  M. Schneider,  
 N. Sergueev,  S. M. Sharada,  W. Skomorowski,  D. W. Small,  C. J. Stein,  
 Yu-Chuan Su,  E. J. Sundstrom,  Zhen Tao,  J. Thirman,  T. Tsuchimochi,  
 N. M. Tubman,  S. P. Veccham,  O. Vydrov,  J. Wenzel,  J. Witte,  A. Yamada,  
 Kun Yao,  S. Yeganeh,  S. R. Yost,  A. Zech,  Igor Ying Zhang,  Xing Zhang,  
 Yu Zhang,  D. Zuev,  A. Aspuru-Guzik,  A. T. Bell,  N. A. Besley,  
 K. B. Bravaya,  B. R. Brooks,  D. Casanova,  Jeng-Da Chai,  S. Coriani,  
 C. J. Cramer,  A. E. DePrince, III,  R. A. DiStasio Jr.,  A. Dreuw,  
 B. D. Dunietz,  T. R. Furlani,  W. A. Goddard III,  S. Grimme,  
 S. Hammes-Schiffer,  T. Head-Gordon,  W. J. Hehre,  Chao-Ping Hsu,  
 T.-C. Jagau,  Yousung Jung,  A. Klamt,  Jing Kong,  D. S. Lambrecht,  
 WanZhen Liang,  N. J. Mayhall,  C. W. McCurdy,  J. B. Neaton,  
 C. Ochsenfeld,  J. A. Parkhill,  R. Peverati,  V. A. Rassolov,  Yihan Shao,  
 L. V. Slipchenko,  T. Stauch,  R. P. Steele,  J. E. Subotnik,  
 A. J. W. Thom,  A. Tkatchenko,  D. G. Truhlar,  T. Van Voorhis,  
 T. A. Wesolowski,  K. B. Whaley,  H. L. Woodcock III,  P. M. Zimmerman,  
 S. Faraji,  P. M. W. Gill,  M. Head-Gordon,  J. M. Herbert,  A. I. Krylov

 Additional authors for Version 5.4.1: 
 S. Kotaru,  Shaozhi Li,  Xiangyuan Li,  F. Matz,  A. Molle,  Haisheng Ren,  
 Yingli Su,  Hung-Yi Tsai,  C. Utku,  Fang Wang

 Contributors to earlier versions of Q-Chem not listed above: 
 R. D. Adamson,  B. Austin,  R. Baer,  J. Baker,  G. J. O. Beran,  
 K. Brandhorst,  S. T. Brown,  E. F. C. Byrd,  A. K. Chakraborty,  
 G. K. L. Chan,  Chun-Min Chang,  Yunqing Chen,  C.-L. Cheng,  
 Siu Hung Chien,  D. M. Chipman,  D. L. Crittenden,  H. Dachsel,  
 R. J. Doerksen,  A. D. Dutoi,  R. G. Edgar,  J. Fosso-Tande,  
 L. Fusti-Molnar,  D. Ghosh,  A. Ghysels,  A. Golubeva-Zadorozhnaya,  
 J. Gonthier,  M. S. Gordon,  S. R. Gwaltney,  G. Hawkins,  J. E. Herr,  
 A. Heyden,  S. Hirata,  E. G. Hohenstein,  G. Kedziora,  F. J. Keil,  
 C. Kelley,  Jihan Kim,  R. A. King,  R. Z. Khaliullin,  P. P. Korambath,  
 W. Kurlancheek,  A. Laurent,  A. M. Lee,  M. S. Lee,  S. V. Levchenko,  
 Ching Yeh Lin,  D. Liotard,  E. Livshits,  R. C. Lochan,  I. Lotan,  
 L. A. Martinez-Martinez,  P. E. Maslen,  N. Nair,  D. P. O'Neill,  
 D. Neuhauser,  E. Neuscamman,  C. M. Oana,  R. Olivares-Amaya,  R. Olson,  
 T. M. Perrine,  B. Peters,  P. A. Pieniazek,  A. Prociuk,  Y. M. Rhee,  
 J. Ritchie,  M. A. Rohrdanz,  E. Rosta,  N. J. Russ,  H. F. Schaefer III,  
 M. W. Schmidt,  N. E. Schultz,  S. Sharma,  N. Shenvi,  C. D. Sherrill,  
 A. C. Simmonett,  A. Sodt,  T. Stein,  D. Stuck,  K. S. Thanthiriwatte,  
 V. Vanovschi,  L. Vogt,  Tao Wang,  A. Warshel,  M. A. Watson,  
 C. F. Williams,  Q. Wu,  X. Xu,  Jun Yang,  W. Zhang,  Yan Zhao

 Please cite Q-Chem as follows:
 Y. Shao et al., Mol. Phys. 113, 184-215 (2015)
 DOI: 10.1080/00268976.2014.952696

 Q-Chem 5.4.1 for Intel X86 EM64T Linux

 Parts of Q-Chem use Armadillo 9.900.5 (Nocturnal Misbehaviour).
 http://arma.sourceforge.net/

 Q-Chem begins on Wed Mar  2 16:37:44 2022  

 Host: node01
0

     Scratch files written to /src/jdavis/qchem.scratch/qchem24026//
 Processing $rem in /src/tsommerfeld/qchem/config/preferences:
 Processing $rem in /home/jdavis/.qchemrc:

 Checking the input file for inconsistencies... 	...done.

--------------------------------------------------------------
User input:
--------------------------------------------------------------
$molecule
-1 1
C        -0.6645000000    0.0000000000    1.1619088658
C         0.6645000000    0.0000000000    1.1619088658
H        -1.1590800000    0.0000000000    0.1995598658
H         1.1590800000    0.0000000000    0.1995598658
H        -1.1590800000    0.0000000000    2.1242568658
H         1.1590800000    0.0000000000    2.1242568658
O         0.0000000000    0.0000000000   -1.5841414040
H         0.0000000000    0.0000000000   -2.5471307683
$end
$rem
   METHOD adc(2)
   BASIS gen
   PURECART 11
   EE_STATES [0,0,10,0]
   scf_convergence 8
   ADC_DAVIDSON_MAXITER 120
   ADC_DAVIDSON_MAXSUBSPACE 200
   adc_nguess_singles 100
   THRESH 14
   S2THRESH 14
   adc_davidson_conv 5
   adc_davidson_thresh 14
   THREADS 10
   MEM_TOTAL 95000
   STATE_ANALYSIS TRUE
$end
$basis
C 1
S   9   1.00
      6.665000D+03           6.920000D-04
      1.000000D+03           5.329000D-03
      2.280000D+02           2.707700D-02
      6.471000D+01           1.017180D-01
      2.106000D+01           2.747400D-01
      7.495000D+00           4.485640D-01
      2.797000D+00           2.850740D-01
      5.215000D-01           1.520400D-02
      1.596000D-01          -3.191000D-03
S   9   1.00
      6.665000D+03          -1.460000D-04
      1.000000D+03          -1.154000D-03
      2.280000D+02          -5.725000D-03
      6.471000D+01          -2.331200D-02
      2.106000D+01          -6.395500D-02
      7.495000D+00          -1.499810D-01
      2.797000D+00          -1.272620D-01
      5.215000D-01           5.445290D-01
      1.596000D-01           5.804960D-01
S   1   1.00
      1.596000D-01           1.000000D+00
S   1   1.00
      0.0469000              1.0000000
P   4   1.00
      9.439000D+00           3.810900D-02
      2.002000D+00           2.094800D-01
      5.456000D-01           5.085570D-01
      1.517000D-01           4.688420D-01
P   1   1.00
      1.517000D-01           1.000000D+00
P   1   1.00
      0.0312594      1.0000000
P   1   1.00
      0.0156297      1.0000000
D   1   1.00
      5.500000D-01           1.0000000
****
C 2
S   9   1.00
      6.665000D+03           6.920000D-04
      1.000000D+03           5.329000D-03
      2.280000D+02           2.707700D-02
      6.471000D+01           1.017180D-01
      2.106000D+01           2.747400D-01
      7.495000D+00           4.485640D-01
      2.797000D+00           2.850740D-01
      5.215000D-01           1.520400D-02
      1.596000D-01          -3.191000D-03
S   9   1.00
      6.665000D+03          -1.460000D-04
      1.000000D+03          -1.154000D-03
      2.280000D+02          -5.725000D-03
      6.471000D+01          -2.331200D-02
      2.106000D+01          -6.395500D-02
      7.495000D+00          -1.499810D-01
      2.797000D+00          -1.272620D-01
      5.215000D-01           5.445290D-01
      1.596000D-01           5.804960D-01
S   1   1.00
      1.596000D-01           1.000000D+00
S   1   1.00
      0.0469000              1.0000000
P   4   1.00
      9.439000D+00           3.810900D-02
      2.002000D+00           2.094800D-01
      5.456000D-01           5.085570D-01
      1.517000D-01           4.688420D-01
P   1   1.00
      1.517000D-01           1.000000D+00
P   1   1.00
      0.0312594      1.0000000
P   1   1.00
      0.0156297      1.0000000
D   1   1.00
      5.500000D-01           1.0000000
****
H 3
cc-pVDZ
****
H 4
cc-pVDZ
****
H 5
cc-pVDZ
****
H 6
cc-pVDZ
****
O 7
aug-cc-pVDZ
****
H 8
cc-pVDZ
****
$end
--------------------------------------------------------------
 ----------------------------------------------------------------
             Standard Nuclear Orientation (Angstroms)
    I     Atom           X                Y                Z
 ----------------------------------------------------------------
    1      C      -0.6645000000    -0.0000000000     1.0270977517
    2      C       0.6645000000     0.0000000000     1.0270977517
    3      H      -1.1590800000    -0.0000000000     0.0647487517
    4      H       1.1590800000     0.0000000000     0.0647487517
    5      H      -1.1590800000    -0.0000000000     1.9894457517
    6      H       1.1590800000     0.0000000000     1.9894457517
    7      O       0.0000000000    -0.0000000000    -1.7189525181
    8      H       0.0000000000    -0.0000000000    -2.6819418824
 ----------------------------------------------------------------
 Molecular Point Group                 C2v   NOp =  4
 Largest Abelian Subgroup              C2v   NOp =  4
 Nuclear Repulsion Energy =          64.38561153 hartrees
 There are       13 alpha and       13 beta electrons
 Requested basis set is non-standard
 There are 42 shells and 90 basis functions
 Total memory of 95000 MB is distributed as follows: 
   MEM_STATIC is set to 192 MB
   QALLOC/CCMAN JOB total memory use is  94808 MB
 Warning: actual memory use might exceed 95000 MB

 Total QAlloc Memory Limit  95000 MB
 Mega-Array Size       188 MB
 MEM_STATIC part       192 MB

                       Distance Matrix (Angstroms)
             C (  1)   C (  2)   H (  3)   H (  4)   H (  5)   H (  6)
   C (  2)  1.329000
   H (  3)  1.082000  2.061931
   H (  4)  2.061931  1.082000  2.318160
   H (  5)  1.082000  2.061931  1.924697  3.013026
   H (  6)  2.061931  1.082000  3.013026  1.924697  2.318160
   O (  7)  2.825306  2.825306  2.127218  2.127218  3.885316  3.885316
   H (  8)  3.768094  3.768094  2.981237  2.981237  4.813037  4.813037
             O (  7)
   H (  8)  0.962989
 
 A cutoff of  1.0D-14 yielded    903 shell pairs
 There are      4183 function pairs (      4573 Cartesian)
 Smallest overlap matrix eigenvalue = 9.18E-04

 Scale SEOQF with 1.000000e-01/1.000000e-01/1.000000e-01

 Standard Electronic Orientation quadrupole field applied
 Nucleus-field energy     =    -0.0000000051 hartrees
 ================ Generating on-the-fly SAD Guess ================
Attempting to make child job directory: /src/jdavis/qchem.scratch/qchem24026//Frg1/
Attempting to make child job directory: /src/jdavis/qchem.scratch/qchem24026//Frg2/
Attempting to make child job directory: /src/jdavis/qchem.scratch/qchem24026//Frg3/
Creating input file /src/jdavis/qchem.scratch/qchem24026/Frg1.input
using default PutDataFrgm: nothing
calling putenv with: QCSCRATCH=/src/jdavis/qchem.scratch/qchem24026/ 
Spawning Job For Fragment 0
Done Job For Fragment 0
calling putenv with: QCSCRATCH=/src/jdavis/qchem.scratch 
calling putenv with: QCTHREADS=1 
Creating input file /src/jdavis/qchem.scratch/qchem24026/Frg2.input
using default PutDataFrgm: nothing
calling putenv with: QCSCRATCH=/src/jdavis/qchem.scratch/qchem24026/ 
Spawning Job For Fragment 1
Done Job For Fragment 1
calling putenv with: QCSCRATCH=/src/jdavis/qchem.scratch 
calling putenv with: QCTHREADS=1 
Creating input file /src/jdavis/qchem.scratch/qchem24026/Frg3.input
using default PutDataFrgm: nothing
calling putenv with: QCSCRATCH=/src/jdavis/qchem.scratch/qchem24026/ 
Spawning Job For Fragment 2
Done Job For Fragment 2
calling putenv with: QCSCRATCH=/src/jdavis/qchem.scratch 
calling putenv with: QCTHREADS=1 
 Time for running child jobs:  CPU 1.77 s  wall 80.39 s
 ============= Method Specific SAD Guess Constructed =============
 Guess from on-the-fly superposition of atomic densities
 Warning: Energy on first SCF cycle will be non-variational
 A restricted Hartree-Fock SCF calculation will be
 performed using Pulay DIIS extrapolation
 SCF converges when DIIS error is below 1.0E-08
 using 10 threads for integral computing
 -------------------------------------------------------
 OpenMP Integral computing Module                
 Release: version 1.0, May 2013, Q-Chem Inc. Pittsburgh 
 -------------------------------------------------------
 ---------------------------------------
  Cycle       Energy         DIIS Error
 ---------------------------------------
    1    -153.5741652073      5.98E-02
    2    -153.2896669370      1.22E-02
    3    -153.3535122982      1.04E-02
    4    -153.4400305548      7.79E-04
    5    -153.4409967947      2.13E-04
    6    -153.4410723125      4.58E-05
    7    -153.4410776656      1.21E-05
    8    -153.4410782245      3.64E-06
    9    -153.4410782722      7.06E-07
   10    -153.4410782738      1.35E-07
   11    -153.4410782739      4.55E-08
   12    -153.4410782739      1.44E-08
   13    -153.4410782739      2.62E-09 Convergence criterion met
 ---------------------------------------
 SCF time:  CPU 15.04 s  wall 1.51 s
 SCF   energy in the final basis set = -153.44107827
 Total energy in the final basis set = -153.44107827
================================================================================
|                                                                              |
|                                 A D C  M A N                                 |
|                                                                              |
 ------------------------------------------------------------------------------ 
|                                                                              |
| Components:                                                                  |
|                                                                              |
| - libvmm - 1.3-trunk                                                         |
|   Authors:                                                                   |
|   Evgeny Epifanovsky, Ilya Kaliman                                           |
|                                                                              |
| - libtensor - 2.5-trunk                                                      |
|   Authors:                                                                   |
|   Evgeny Epifanovsky, Michael Wormit, Dmitry Zuev, Sam Manzer,               |
|   Ilya Kaliman                                                               |
|                                                                              |
| - libwfa - 1.1-trunk                                                         |
|   Authors:                                                                   |
|   Felix Plasser, Stefanie Mewes (Baeppler), Benjamin Thomitzni,              |
|   Michael Wormit, Feng Chen, Anna I. Krylov, Pavel Pokhilko                  |
|                                                                              |
| - libadc - 1.1-trunk                                                         |
|   Authors:                                                                   |
|   Michael Wormit, Adrian L. Dempwolff, Philipp H. P. Harbach,                |
|   Caroline Krauter, Dirk Rehn, Matthias Schneider, Jan Wenzel                |
|                                                                              |
| - adcman - 2.6-trunk                                                         |
|   Authors:                                                                   |
|   Michael Wormit, Adrian L. Dempwolff, Philipp H. P. Harbach,                |
|   Caroline Krauter, Daniel Lefrancois, Jan-Michael Mewes, Dirk Rehn,         |
|   Matthias Schneider, Jan Wenzel, Andreas Dreuw                              |
|                                                                              |
| Authors of earlier versions of ADCMAN:                                       |
| Andreas Dreuw, Jan Hendrik Starcke, Dirk Rehn, Michael Wormit                |
|                                                                              |
================================================================================

 
 Alpha MOs, Restricted
 -- Occupied --                  
-20.213 -11.049 -11.047  -0.930  -0.854  -0.598  -0.473  -0.384
  1 A1    2 A1    1 B1    3 A1    4 A1    2 B1    5 A1    6 A1                 
 -0.328  -0.271  -0.194  -0.129  -0.128
  3 B1    7 A1    1 B2    4 B1    2 B2                                         
 -- Virtual --                   
  0.110   0.125   0.130   0.132   0.141   0.141   0.206   0.213
  5 B1    8 A1    3 B2    1 A2    6 B1    9 A1   10 A1    7 B1                 
  0.254   0.260   0.273   0.280   0.325   0.356   0.390   0.417
  2 A2   11 A1    8 B1    4 B2   12 A1   13 A1    3 A2    9 B1                 
  0.450   0.465   0.471   0.528   0.537   0.578   0.616   0.649
  5 B2   14 A1   10 B1   15 A1   11 B1   16 A1   12 B1   17 A1                 
  0.688   0.823   0.958   0.986   1.054   1.056   1.082   1.131
 13 B1   18 A1   19 A1    6 B2   20 A1    4 A2   21 A1   14 B1                 
  1.181   1.198   1.203   1.215   1.288   1.291   1.331   1.331
 15 B1   16 B1    7 B2   22 A1   23 A1    5 A2   17 B1   24 A1                 
  1.370   1.464   1.467   1.483   1.561   1.642   1.691   1.719
  8 B2   18 B1    9 B2    6 A2   19 B1   25 A1   20 B1   10 B2                 
  1.849   1.927   1.962   2.030   2.123   2.124   2.139   2.187
 26 A1   21 B1   27 A1    7 A2   11 B2   28 A1   22 B1   29 A1                 
  2.212   2.283   2.356   2.393   2.435   2.473   2.552   2.604
 12 B2   30 A1    8 A2   13 B2   23 B1   24 B1   31 A1    9 A2                 
  2.721   2.748   2.847   3.008   3.035   3.086   3.452   3.562
 25 B1   32 A1   26 B1   33 A1   34 A1   35 A1   27 B1   28 B1                 
  3.921   3.945   3.970   4.087   4.536
 14 B2   10 A2   36 A1   29 B1   37 A1                                         
 
 Beta MOs, Restricted
 -- Occupied --                  
-20.213 -11.049 -11.047  -0.930  -0.854  -0.598  -0.473  -0.384
  1 A1    2 A1    1 B1    3 A1    4 A1    2 B1    5 A1    6 A1                 
 -0.328  -0.271  -0.194  -0.129  -0.128
  3 B1    7 A1    1 B2    4 B1    2 B2                                         
 -- Virtual --                   
  0.110   0.125   0.130   0.132   0.141   0.141   0.206   0.213
  5 B1    8 A1    3 B2    1 A2    6 B1    9 A1   10 A1    7 B1                 
  0.254   0.260   0.273   0.280   0.325   0.356   0.390   0.417
  2 A2   11 A1    8 B1    4 B2   12 A1   13 A1    3 A2    9 B1                 
  0.450   0.465   0.471   0.528   0.537   0.578   0.616   0.649
  5 B2   14 A1   10 B1   15 A1   11 B1   16 A1   12 B1   17 A1                 
  0.688   0.823   0.958   0.986   1.054   1.056   1.082   1.131
 13 B1   18 A1   19 A1    6 B2   20 A1    4 A2   21 A1   14 B1                 
  1.181   1.198   1.203   1.215   1.288   1.291   1.331   1.331
 15 B1   16 B1    7 B2   22 A1   23 A1    5 A2   17 B1   24 A1                 
  1.370   1.464   1.467   1.483   1.561   1.642   1.691   1.719
  8 B2   18 B1    9 B2    6 A2   19 B1   25 A1   20 B1   10 B2                 
  1.849   1.927   1.962   2.030   2.123   2.124   2.139   2.187
 26 A1   21 B1   27 A1    7 A2   11 B2   28 A1   22 B1   29 A1                 
  2.212   2.283   2.356   2.393   2.435   2.473   2.552   2.604
 12 B2   30 A1    8 A2   13 B2   23 B1   24 B1   31 A1    9 A2                 
  2.721   2.748   2.847   3.008   3.035   3.086   3.452   3.562
 25 B1   32 A1   26 B1   33 A1   34 A1   35 A1   27 B1   28 B1                 
  3.921   3.945   3.970   4.087   4.536
 14 B2   10 A2   36 A1   29 B1   37 A1                                         

--------------------------------------------------------------------------------
                                   HF Summary                                   
--------------------------------------------------------------------------------
  Energy:                                                 -153.4410782739 a.u.
  Dip. moment [a.u.]:                  [   0.000000,    0.000000,    2.074232]
  Total dipole [Debye]:                                               5.272174
  <r^2> [a.u.]:                        [  55.718933,   19.711821,  208.023484]
  Total <r^2> [a.u.]:                                               283.454237
--------------------------------------------------------------------------------

--------------------------------------------------------------------------------
                                 MP(2) Summary                                  
--------------------------------------------------------------------------------
  MP energy contribution:                                   -0.5275103034 a.u.
  Total energy:                                           -153.9685885773 a.u.
  Dip. moment [a.u.]:                  [   0.000000,    0.000000,    2.140778]
  Total dipole [Debye]:                                               5.441316
  <r^2> [a.u.]:                        [  56.715961,   20.426470,  209.284705]
  Total <r^2> [a.u.]:                                               286.427135

  Density matrix analysis:
  ------------------------
  NOs
    Occupation of frontier NOs:
       0.0446   1.9359
    Number of electrons: 26.000000
    Number of unpaired electrons: n_u =  0.71367, n_u,nl =  0.08507
    NO participation ratio (PR_NO): 22.993738
  
  
  Mulliken Population Analysis
  Atom      Charge (e)              h+              e-           Del q
  --------------------------------------------------------------------
   1 C       -0.183060        0.094882       -0.100994       -0.006112
   2 C       -0.183060        0.094882       -0.100994       -0.006112
   3 H        0.179590        0.017269       -0.009989        0.007280
   4 H        0.179590        0.017269       -0.009989        0.007280
   5 H        0.004636        0.018328       -0.013054        0.005274
   6 H        0.004636        0.018328       -0.013054        0.005274
   7 O       -1.051898        0.277000       -0.272515        0.004486
   8 H        0.049567        0.015633       -0.033003       -0.017369
  --------------------------------------------------------------------
  Sum:       -1.000000        0.553591       -0.553591       -0.000000
  
  Multipole moment analysis of the density matrix
    Molecular charge:                      -1.000000
    Number of electrons:                   26.000000
      Center of electronic charge [Ang]: [ -0.000000,  -0.000000,  -0.043571]
    Total nuclear charge:                  25.000000
      Center of nuclear charge [Ang]:    [  0.000000,   0.000000,  -0.000000]
    Dipole moment [D]:                     5.441314
      Cartesian components [D]:          [  0.000000,   0.000000,   5.441314]
    RMS size of the density [Ang]:         1.755852
      Cartesian components [Ang]:        [  0.781569,   0.469041,   1.500722]
  
  Exciton analysis of the difference density matrix
    <r_h> [Ang]:                  [  0.000000,  -0.000000,  -0.480640]
    <r_e> [Ang]:                  [ -0.000000,  -0.000000,  -0.544251]
    |<r_e - r_h>| [Ang]:            0.063611
    Hole size [Ang]:                1.986662
      Cartesian components [Ang]: [  0.906527,   0.776481,   1.588116]
    Electron size [Ang]:            2.320656
      Cartesian components [Ang]: [  1.151576,   0.982049,   1.759232]
--------------------------------------------------------------------------------
  Starting Davidson for singlet states of irrep B1 ... 
--------------------------------------------------------------------------------
   It NVec Conv  Avg. Norm  Max. Norm  Conv. states           Remark
--------------------------------------------------------------------------------
       100    0  1.577e-01  5.397e-01  0.2287 n n n n n n n n Guess.
    1  110    0  1.572e-02  7.119e-02  0.0558 n n n n n n n n 
    2  120    0  4.989e-03  3.576e-02  0.0546 n n n n n n n n 
    3  130    0  1.440e-02  1.428e-01  0.0546 n n n n n n n n 
    4  140    0  7.422e-03  5.788e-02  0.0546 n n n n n n n n 
    5  150    3  1.755e-03  1.415e-02  0.0546 y y y n n n n n 
    6  160    4  3.812e-04  3.297e-03  0.0546 y y y y n n n n 
    7  170    6  7.003e-05  6.145e-04  0.0546 y y y y y y n n 
    8  180    7  1.246e-05  1.120e-04  0.0546 y y y y y y y n 
    9  190    9  2.166e-06  1.949e-05  0.0546 y y y y y y y y 
   10  200   10  3.282e-07  2.864e-06  0.0546 y y y y y y y y Converged.
--------------------------------------------------------------------------------
  Davidson Summary: 
 ------------------------------------------------------------
  State  0: excitation energy =   0.0546 a.u.   (converged)
  State  1: excitation energy =   0.0699 a.u.   (converged)
  State  2: excitation energy =   0.0764 a.u.   (converged)
  State  3: excitation energy =   0.1092 a.u.   (converged)
  State  4: excitation energy =   0.1370 a.u.   (converged)
  State  5: excitation energy =   0.1532 a.u.   (converged)
  State  6: excitation energy =   0.1754 a.u.   (converged)
  State  7: excitation energy =   0.2029 a.u.   (converged)
  State  8: excitation energy =   0.2183 a.u.   (converged)
  State  9: excitation energy =   0.2187 a.u.   (converged)
 ------------------------------------------------------------


--------------------------------------------------------------------------------
                   State-averaged natural transition orbitals
--------------------------------------------------------------------------------
--------------------------------------------------------------------------------

--------------------------------------------------------------------------------
                             Excited State Summary
--------------------------------------------------------------------------------
--------------------------------------------------------------------------------

  Excited state 1 (singlet, B1)                                    [converged]
  ----------------------------------------------------------------------------
  Term symbol:  1 (1) B1                                    R^2 =  7.20905e-10

  Total energy:                                           -153.9140180890 a.u.
  Excitation energy:                                               1.484939 eV

  Osc. strength:                                                      0.007153
  Trans. dip. moment [a.u.]:           [  -0.443419,   -0.000000,   -0.000000]
  <i|r^2|0> [a.u.]:                    [  -0.000000,   -0.000000,   -0.000000]

  Dip. moment [a.u.]:                  [   0.000000,    0.000000,   -3.687747]
  Total dipole [Debye]:                                               9.373321
  <r^2> [a.u.]:                        [  78.884049,   43.090220,  270.885772]
  Total <r^2> [a.u.]:                                               392.860041

  V1^2 = 0.8678, V2^2 = 0.1322

  Important amplitudes:
      occ i      occ j       vir a       vir b          v   
    ---------------------------------------------------------
     4 (B1) A               8 (A1) A                 -0.6346
     4 (B1) A               9 (A1) A                 -0.1083
    ---------------------------------------------------------

  Density matrix analysis:
  ------------------------
  NOs
    Occupation of frontier NOs:
       0.9609   0.9988
    Number of electrons: 26.000000
    Number of unpaired electrons: n_u =  2.74660, n_u,nl =  2.11443
    NO participation ratio (PR_NO):  3.864652
  
  
  Mulliken Population Analysis
  Atom      Charge (e)              h+              e-           Del q
  --------------------------------------------------------------------
   1 C       -0.678483        0.045744       -0.541168       -0.495423
   2 C       -0.678483        0.045744       -0.541168       -0.495423
   3 H        0.130238       -0.006995       -0.042357       -0.049352
   4 H        0.130238       -0.006995       -0.042357       -0.049352
   5 H        0.036037        0.041563       -0.010163        0.031401
   6 H        0.036037        0.041563       -0.010163        0.031401
   7 O       -0.112957        1.395800       -0.456859        0.938941
   8 H        0.137375        0.140770       -0.052962        0.087808
  --------------------------------------------------------------------
  Sum:       -1.000000        1.697195       -1.697195       -0.000000
  
  Multipole moment analysis of the density matrix
    Molecular charge:                      -1.000000
    Number of electrons:                   26.000000
      Center of electronic charge [Ang]: [ -0.000000,  -0.000000,   0.075057]
    Total nuclear charge:                  25.000000
      Center of nuclear charge [Ang]:    [  0.000000,   0.000000,  -0.000000]
    Dipole moment [D]:                     9.373318
      Cartesian components [D]:          [  0.000000,   0.000000,  -9.373318]
    RMS size of the density [Ang]:         2.055626
      Cartesian components [Ang]:        [  0.921741,   0.681246,   1.706428]
  
  Exciton analysis of the difference density matrix
    <r_h> [Ang]:                  [ -0.000000,  -0.000000,  -1.450492]
    <r_e> [Ang]:                  [ -0.000000,  -0.000000,   0.366813]
    |<r_e - r_h>| [Ang]:            1.817306
    Hole size [Ang]:                1.827505
      Cartesian components [Ang]: [  0.944017,   0.803878,   1.342530]
    Electron size [Ang]:            4.782262
      Cartesian components [Ang]: [  2.132789,   2.094188,   3.733045]

  Transition density matrix analysis:
  -----------------------------------
  
  CT numbers (Mulliken)
    omega =     0.8528
    <Phe> =    -0.0009
  
  Exciton analysis of the transition density matrix
    Trans. dipole moment [D]:             0.563529
      Cartesian components [D]:         [ -0.563529,  -0.000000,  -0.000000]
    <r_h> [Ang]:                        [ -0.000000,  -0.000000,  -1.725501]
    <r_e> [Ang]:                        [ -0.000000,  -0.000000,   1.432113]
    |<r_e - r_h>| [Ang]:                  3.157614
    Hole size [Ang]:                      1.142424
      Cartesian components [Ang]:       [  0.826584,   0.474682,   0.629738]
    Electron size [Ang]:                  5.805587
      Cartesian components [Ang]:       [  2.681098,   2.638341,   4.422185]
    RMS electron-hole separation [Ang]:   6.703880
      Cartesian components [Ang]:       [  2.802892,   2.680637,   5.468088]
    Covariance(r_h, r_e) [Ang^2]:         0.019250
    Correlation coefficient:              0.002902
    Center-of-mass size [Ang]:            2.960088
      Cartesian components [Ang]:       [  1.404176,   1.340384,   2.234677]

  Decomposition into state-averaged NTOs
    H- 0 -> L+ 6:  0.4715 ( 44.5%)
    H- 0 -> L+ 5: -0.3419 ( 23.4%)
    H- 0 -> L+ 0: -0.1914 (  7.3%)
    H- 0 -> L+ 3:  0.1470 (  4.3%)
    H- 0 -> L+ 7: -0.1382 (  3.8%)
    H- 0 -> L+ 1:  0.0983 (  1.9%)
                   omega =  85.3%
  ----------------------------------------------------------------------------


  Excited state 2 (singlet, B1)                                    [converged]
  ----------------------------------------------------------------------------
  Term symbol:  2 (1) B1                                    R^2 =  2.79532e-10

  Total energy:                                           -153.8986467326 a.u.
  Excitation energy:                                               1.903214 eV

  Osc. strength:                                                      0.001712
  Trans. dip. moment [a.u.]:           [  -0.191589,    0.000000,   -0.000000]
  <i|r^2|0> [a.u.]:                    [   0.000000,   -0.000000,   -0.000000]

  Dip. moment [a.u.]:                  [   0.000000,    0.000000,   -2.934219]
  Total dipole [Debye]:                                               7.458041
  <r^2> [a.u.]:                        [ 114.239261,   76.221395,  217.330501]
  Total <r^2> [a.u.]:                                               407.791157

  V1^2 = 0.8648, V2^2 = 0.1352

  Important amplitudes:
      occ i      occ j       vir a       vir b          v   
    ---------------------------------------------------------
     2 (B2) A               1 (A2) A                 -0.6491
     2 (B2) A               2 (A2) A                 -0.0804
    ---------------------------------------------------------

  Density matrix analysis:
  ------------------------
  NOs
    Occupation of frontier NOs:
       0.9601   0.9992
    Number of electrons: 26.000000
    Number of unpaired electrons: n_u =  2.74966, n_u,nl =  2.11649
    NO participation ratio (PR_NO):  3.873359
  
  
  Mulliken Population Analysis
  Atom      Charge (e)              h+              e-           Del q
  --------------------------------------------------------------------
   1 C       -0.678100        0.045917       -0.540956       -0.495039
   2 C       -0.678100        0.045917       -0.540956       -0.495039
   3 H        0.141800       -0.002565       -0.035226       -0.037790
   4 H        0.141800       -0.002565       -0.035226       -0.037790
   5 H        0.036558        0.034345       -0.002423        0.031922
   6 H        0.036558        0.034345       -0.002423        0.031922
   7 O       -0.166592        1.405047       -0.519740        0.885306
   8 H        0.166075        0.142040       -0.025532        0.116509
  --------------------------------------------------------------------
  Sum:       -1.000000        1.702482       -1.702482        0.000000
  
  Multipole moment analysis of the density matrix
    Molecular charge:                      -1.000000
    Number of electrons:                   26.000000
      Center of electronic charge [Ang]: [ -0.000000,  -0.000000,   0.059720]
    Total nuclear charge:                  25.000000
      Center of nuclear charge [Ang]:    [  0.000000,   0.000000,  -0.000000]
    Dipole moment [D]:                     7.458039
      Cartesian components [D]:          [  0.000000,   0.000000,  -7.458039]
    RMS size of the density [Ang]:         2.094869
      Cartesian components [Ang]:        [  1.109231,   0.906052,   1.528775]
  
  Exciton analysis of the difference density matrix
    <r_h> [Ang]:                  [  0.000000,  -0.000000,  -1.486463]
    <r_e> [Ang]:                  [ -0.000000,  -0.000000,   0.090982]
    |<r_e - r_h>| [Ang]:            1.577445
    Hole size [Ang]:                1.793844
      Cartesian components [Ang]: [  0.863069,   0.896784,   1.291807]
    Electron size [Ang]:            5.037998
      Cartesian components [Ang]: [  3.194756,   3.159353,   2.278915]

  Transition density matrix analysis:
  -----------------------------------
  
  CT numbers (Mulliken)
    omega =     0.8502
    <Phe> =     0.0001
  
  Exciton analysis of the transition density matrix
    Trans. dipole moment [D]:             0.243485
      Cartesian components [D]:         [ -0.243485,   0.000000,  -0.000000]
    <r_h> [Ang]:                        [  0.000000,  -0.000000,  -1.744478]
    <r_e> [Ang]:                        [ -0.000000,  -0.000000,   1.027131]
    |<r_e - r_h>| [Ang]:                  2.771609
    Hole size [Ang]:                      1.100667
      Cartesian components [Ang]:       [  0.479892,   0.828261,   0.543282]
    Electron size [Ang]:                  6.236662
      Cartesian components [Ang]:       [  4.096515,   4.072228,   2.351908]
    RMS electron-hole separation [Ang]:   6.912055
      Cartesian components [Ang]:       [  4.124418,   4.154183,   3.675384]
    Covariance(r_h, r_e) [Ang^2]:         0.006363
    Correlation coefficient:              0.000927
    Center-of-mass size [Ang]:            3.167023
      Cartesian components [Ang]:       [  2.062320,   2.078514,   1.206919]

  Decomposition into state-averaged NTOs
    H- 2 -> L+ 4: -0.6097 ( 74.3%)
    H- 2 -> L+ 9: -0.2307 ( 10.6%)
                   omega =  85.0%
  ----------------------------------------------------------------------------


  Excited state 3 (singlet, B1)                                    [converged]
  ----------------------------------------------------------------------------
  Term symbol:  3 (1) B1                                    R^2 =  6.99083e-10

  Total energy:                                           -153.8922191027 a.u.
  Excitation energy:                                               2.078119 eV

  Osc. strength:                                                      0.000235
  Trans. dip. moment [a.u.]:           [   0.067975,   -0.000000,   -0.000000]
  <i|r^2|0> [a.u.]:                    [  -0.000000,   -0.000000,   -0.000000]

  Dip. moment [a.u.]:                  [  -0.000000,   -0.000000,   -3.166941]
  Total dipole [Debye]:                                               8.049562
  <r^2> [a.u.]:                        [ 141.288308,   42.189059,  219.417456]
  Total <r^2> [a.u.]:                                               402.894824

  V1^2 = 0.8657, V2^2 = 0.1343

  Important amplitudes:
      occ i      occ j       vir a       vir b          v   
    ---------------------------------------------------------
     4 (B1) A               9 (A1) A                 -0.6434
     4 (B1) A               8 (A1) A                  0.1159
    ---------------------------------------------------------

  Density matrix analysis:
  ------------------------
  NOs
    Occupation of frontier NOs:
       0.9604   0.9992
    Number of electrons: 26.000000
    Number of unpaired electrons: n_u =  2.74887, n_u,nl =  2.11557
    NO participation ratio (PR_NO):  3.871066
  
  
  Mulliken Population Analysis
  Atom      Charge (e)              h+              e-           Del q
  --------------------------------------------------------------------
   1 C       -0.679859        0.050489       -0.547288       -0.496799
   2 C       -0.679859        0.050489       -0.547288       -0.496799
   3 H        0.132567       -0.006281       -0.040742       -0.047023
   4 H        0.132567       -0.006281       -0.040742       -0.047023
   5 H        0.038570        0.038837       -0.004903        0.033934
   6 H        0.038570        0.038837       -0.004903        0.033934
   7 O       -0.126254        1.401767       -0.476123        0.925644
   8 H        0.143697        0.138529       -0.044398        0.094131
  --------------------------------------------------------------------
  Sum:       -1.000000        1.706385       -1.706385        0.000000
  
  Multipole moment analysis of the density matrix
    Molecular charge:                      -1.000000
    Number of electrons:                   26.000000
      Center of electronic charge [Ang]: [  0.000000,   0.000000,   0.064457]
    Total nuclear charge:                  25.000000
      Center of nuclear charge [Ang]:    [  0.000000,   0.000000,  -0.000000]
    Dipole moment [D]:                     8.049560
      Cartesian components [D]:          [ -0.000000,  -0.000000,  -8.049560]
    RMS size of the density [Ang]:         2.082103
      Cartesian components [Ang]:        [  1.233581,   0.674085,   1.535918]
  
  Exciton analysis of the difference density matrix
    <r_h> [Ang]:                  [ -0.000000,  -0.000000,  -1.454976]
    <r_e> [Ang]:                  [  0.000000,   0.000000,   0.191032]
    |<r_e - r_h>| [Ang]:            1.646008
    Hole size [Ang]:                1.818095
      Cartesian components [Ang]: [  0.947594,   0.805775,   1.325995]
    Electron size [Ang]:            4.949648
      Cartesian components [Ang]: [  3.844059,   2.054422,   2.345544]

  Transition density matrix analysis:
  -----------------------------------
  
  CT numbers (Mulliken)
    omega =     0.8511
    <Phe> =    -0.0000
  
  Exciton analysis of the transition density matrix
    Trans. dipole moment [D]:             0.086388
      Cartesian components [D]:         [  0.086388,  -0.000000,  -0.000000]
    <r_h> [Ang]:                        [ -0.000000,  -0.000000,  -1.724657]
    <r_e> [Ang]:                        [  0.000000,   0.000000,   1.176513]
    |<r_e - r_h>| [Ang]:                  2.901171
    Hole size [Ang]:                      1.144123
      Cartesian components [Ang]:       [  0.827183,   0.474820,   0.631927]
    Electron size [Ang]:                  6.100640
      Cartesian components [Ang]:       [  4.966730,   2.594218,   2.412350]
    RMS electron-hole separation [Ang]:   6.849804
      Cartesian components [Ang]:       [  5.033274,   2.637251,   3.825033]
    Covariance(r_h, r_e) [Ang^2]:         0.011899
    Correlation coefficient:              0.001705
    Center-of-mass size [Ang]:            3.104457
      Cartesian components [Ang]:       [  2.518503,   1.318688,   1.247341]

  Decomposition into state-averaged NTOs
    H- 0 -> L+ 5: -0.4810 ( 46.3%)
    H- 0 -> L+ 6: -0.2653 ( 14.1%)
    H- 0 -> L+ 7:  0.2556 ( 13.1%)
    H- 0 -> L+ 3: -0.1985 (  7.9%)
    H- 0 -> L+ 1:  0.1145 (  2.6%)
    H- 0 -> L+ 0: -0.0767 (  1.2%)
                   omega =  85.1%
  ----------------------------------------------------------------------------


  Excited state 4 (singlet, B1)                                    [converged]
  ----------------------------------------------------------------------------
  Term symbol:  4 (1) B1                                    R^2 =  5.35445e-09

  Total energy:                                           -153.8594181012 a.u.
  Excitation energy:                                               2.970680 eV

  Osc. strength:                                                      0.025047
  Trans. dip. moment [a.u.]:           [   0.586644,    0.000000,   -0.000000]
  <i|r^2|0> [a.u.]:                    [   0.000000,   -0.000000,   -0.000000]

  Dip. moment [a.u.]:                  [   0.000000,   -0.000000,   -2.983372]
  Total dipole [Debye]:                                               7.582977
  <r^2> [a.u.]:                        [  79.914646,   27.739673,  213.683576]
  Total <r^2> [a.u.]:                                               321.337895

  V1^2 = 0.8717, V2^2 = 0.1283

  Important amplitudes:
      occ i      occ j       vir a       vir b          v   
    ---------------------------------------------------------
     4 (B1) A              10 (A1) A                 -0.6156
     4 (B1) A              12 (A1) A                  0.1585
    ---------------------------------------------------------

  Density matrix analysis:
  ------------------------
  NOs
    Occupation of frontier NOs:
       0.9630   0.9933
    Number of electrons: 26.000000
    Number of unpaired electrons: n_u =  2.74666, n_u,nl =  2.11374
    NO participation ratio (PR_NO):  3.879470
  
  
  Mulliken Population Analysis
  Atom      Charge (e)              h+              e-           Del q
  --------------------------------------------------------------------
   1 C       -0.711452        0.049863       -0.578255       -0.528392
   2 C       -0.711452        0.049863       -0.578255       -0.528392
   3 H        0.149116       -0.004325       -0.026149       -0.030474
   4 H        0.149116       -0.004325       -0.026149       -0.030474
   5 H        0.110377        0.038342        0.067399        0.105741
   6 H        0.110377        0.038342        0.067399        0.105741
   7 O       -0.344800        1.361386       -0.654288        0.707098
   8 H        0.248719        0.136340        0.062812        0.199152
  --------------------------------------------------------------------
  Sum:       -1.000000        1.665485       -1.665485       -0.000000
  
  Multipole moment analysis of the density matrix
    Molecular charge:                      -1.000000
    Number of electrons:                   26.000000
      Center of electronic charge [Ang]: [ -0.000000,   0.000000,   0.060720]
    Total nuclear charge:                  25.000000
      Center of nuclear charge [Ang]:    [  0.000000,   0.000000,  -0.000000]
    Dipole moment [D]:                     7.582974
      Cartesian components [D]:          [  0.000000,  -0.000000,  -7.582974]
    RMS size of the density [Ang]:         1.859362
      Cartesian components [Ang]:        [  0.927743,   0.546594,   1.515835]
  
  Exciton analysis of the difference density matrix
    <r_h> [Ang]:                  [ -0.000000,  -0.000000,  -1.446031]
    <r_e> [Ang]:                  [ -0.000000,  -0.000000,   0.182073]
    |<r_e - r_h>| [Ang]:            1.628104
    Hole size [Ang]:                1.774799
      Cartesian components [Ang]: [  0.933730,   0.764534,   1.301364]
    Electron size [Ang]:            3.328293
      Cartesian components [Ang]: [  2.184581,   1.346895,   2.119201]

  Transition density matrix analysis:
  -----------------------------------
  
  CT numbers (Mulliken)
    omega =     0.8554
    <Phe> =    -0.0020
  
  Exciton analysis of the transition density matrix
    Trans. dipole moment [D]:             0.745550
      Cartesian components [D]:         [  0.745550,   0.000000,  -0.000000]
    <r_h> [Ang]:                        [ -0.000000,  -0.000000,  -1.713422]
    <r_e> [Ang]:                        [ -0.000000,   0.000000,   1.089403]
    |<r_e - r_h>| [Ang]:                  2.802825
    Hole size [Ang]:                      1.155958
      Cartesian components [Ang]:       [  0.825378,   0.473289,   0.656497]
    Electron size [Ang]:                  3.799786
      Cartesian components [Ang]:       [  2.734959,   1.622985,   2.079494]
    RMS electron-hole separation [Ang]:   4.853587
      Cartesian components [Ang]:       [  2.850852,   1.690298,   3.545821]
    Covariance(r_h, r_e) [Ang^2]:         0.036566
    Correlation coefficient:              0.008325
    Center-of-mass size [Ang]:            1.990461
      Cartesian components [Ang]:       [  1.431358,   0.845437,   1.094708]

  Decomposition into state-averaged NTOs
    H- 0 -> L+ 7: -0.4445 ( 39.5%)
    H- 0 -> L+ 3: -0.3499 ( 24.5%)
    H- 0 -> L+ 1: -0.2204 (  9.7%)
    H- 0 -> L+ 0:  0.1801 (  6.5%)
    H- 0 -> L+ 5: -0.1600 (  5.1%)
                   omega =  85.5%
  ----------------------------------------------------------------------------


  Excited state 5 (singlet, B1)                                    [converged]
  ----------------------------------------------------------------------------
  Term symbol:  5 (1) B1                                    R^2 =  6.16716e-09

  Total energy:                                           -153.8316163062 a.u.
  Excitation energy:                                               3.727205 eV

  Osc. strength:                                                      0.000059
  Trans. dip. moment [a.u.]:           [   0.025384,    0.000000,    0.000000]
  <i|r^2|0> [a.u.]:                    [   0.000000,   -0.000000,    0.000000]

  Dip. moment [a.u.]:                  [   0.000000,   -0.000000,   -2.895410]
  Total dipole [Debye]:                                               7.359400
  <r^2> [a.u.]:                        [  73.646937,   35.181163,  204.918572]
  Total <r^2> [a.u.]:                                               313.746672

  V1^2 = 0.8696, V2^2 = 0.1304

  Important amplitudes:
      occ i      occ j       vir a       vir b          v   
    ---------------------------------------------------------
     2 (B2) A               2 (A2) A                  0.6194
     2 (B2) A               3 (A2) A                 -0.2026
    ---------------------------------------------------------

  Density matrix analysis:
  ------------------------
  NOs
    Occupation of frontier NOs:
       0.9642   0.9947
    Number of electrons: 26.000000
    Number of unpaired electrons: n_u =  2.72783, n_u,nl =  2.10481
    NO participation ratio (PR_NO):  3.821237
  
  
  Mulliken Population Analysis
  Atom      Charge (e)              h+              e-           Del q
  --------------------------------------------------------------------
   1 C       -0.624200        0.077073       -0.518213       -0.441140
   2 C       -0.624200        0.077073       -0.518213       -0.441140
   3 H        0.121566        0.002805       -0.060828       -0.058024
   4 H        0.121566        0.002805       -0.060828       -0.058024
   5 H        0.003460        0.009823       -0.010999       -0.001176
   6 H        0.003460        0.009823       -0.010999       -0.001176
   7 O       -0.151872        1.367351       -0.467325        0.900026
   8 H        0.150220        0.122640       -0.021987        0.100653
  --------------------------------------------------------------------
  Sum:       -1.000000        1.669393       -1.669393        0.000000
  
  Multipole moment analysis of the density matrix
    Molecular charge:                      -1.000000
    Number of electrons:                   26.000000
      Center of electronic charge [Ang]: [ -0.000000,   0.000000,   0.058930]
    Total nuclear charge:                  25.000000
      Center of nuclear charge [Ang]:    [  0.000000,   0.000000,  -0.000000]
    Dipole moment [D]:                     7.359398
      Cartesian components [D]:          [  0.000000,  -0.000000,  -7.359398]
    RMS size of the density [Ang]:         1.837303
      Cartesian components [Ang]:        [  0.890619,   0.615559,   1.484442]
  
  Exciton analysis of the difference density matrix
    <r_h> [Ang]:                  [  0.000000,  -0.000000,  -1.461352]
    <r_e> [Ang]:                  [ -0.000000,   0.000000,   0.135058]
    |<r_e - r_h>| [Ang]:            1.596410
    Hole size [Ang]:                1.685009
      Cartesian components [Ang]: [  0.807387,   0.857071,   1.205327]
    Electron size [Ang]:            3.088562
      Cartesian components [Ang]: [  1.868668,   1.791525,   1.684557]

  Transition density matrix analysis:
  -----------------------------------
  
  CT numbers (Mulliken)
    omega =     0.8463
    <Phe> =    -0.0007
  
  Exciton analysis of the transition density matrix
    Trans. dipole moment [D]:             0.032260
      Cartesian components [D]:         [  0.032260,   0.000000,   0.000000]
    <r_h> [Ang]:                        [  0.000000,  -0.000000,  -1.737338]
    <r_e> [Ang]:                        [ -0.000000,   0.000000,   1.026861]
    |<r_e - r_h>| [Ang]:                  2.764198
    Hole size [Ang]:                      1.104942
      Cartesian components [Ang]:       [  0.479004,   0.824039,   0.558938]
    Electron size [Ang]:                  3.454897
      Cartesian components [Ang]:       [  2.291917,   2.233992,   1.301042]
    RMS electron-hole separation [Ang]:   4.558963
      Cartesian components [Ang]:       [  2.340922,   2.378774,   3.105747]
    Covariance(r_h, r_e) [Ang^2]:         0.006927
    Correlation coefficient:              0.001814
    Center-of-mass size [Ang]:            1.814598
      Cartesian components [Ang]:       [  1.170976,   1.191738,   0.708055]

  Decomposition into state-averaged NTOs
    H- 2 -> L+ 9: -0.6076 ( 73.8%)
    H- 2 -> L+ 4:  0.2310 ( 10.7%)
                   omega =  84.6%
  ----------------------------------------------------------------------------


  Excited state 6 (singlet, B1)                                    [converged]
  ----------------------------------------------------------------------------
  Term symbol:  6 (1) B1                                    R^2 =  1.24442e-08

  Total energy:                                           -153.8153854218 a.u.
  Excitation energy:                                               4.168870 eV

  Osc. strength:                                                      0.017642
  Trans. dip. moment [a.u.]:           [   0.415610,    0.000000,    0.000000]
  <i|r^2|0> [a.u.]:                    [  -0.000000,   -0.000000,    0.000000]

  Dip. moment [a.u.]:                  [   0.000000,    0.000000,   -3.082788]
  Total dipole [Debye]:                                               7.835666
  <r^2> [a.u.]:                        [  69.348979,   33.517404,  242.992544]
  Total <r^2> [a.u.]:                                               345.858927

  V1^2 = 0.8752, V2^2 = 0.1248

  Important amplitudes:
      occ i      occ j       vir a       vir b          v   
    ---------------------------------------------------------
     4 (B1) A              11 (A1) A                  0.5518
     4 (B1) A              12 (A1) A                  0.2370
    ---------------------------------------------------------

  Density matrix analysis:
  ------------------------
  NOs
    Occupation of frontier NOs:
       0.9643   0.9930
    Number of electrons: 26.000000
    Number of unpaired electrons: n_u =  2.74366, n_u,nl =  2.11270
    NO participation ratio (PR_NO):  3.867449
  
  
  Mulliken Population Analysis
  Atom      Charge (e)              h+              e-           Del q
  --------------------------------------------------------------------
   1 C       -0.779129        0.043285       -0.639354       -0.596069
   2 C       -0.779129        0.043285       -0.639354       -0.596069
   3 H        0.120832       -0.005555       -0.053202       -0.058757
   4 H        0.120832       -0.005555       -0.053202       -0.058757
   5 H        0.086339        0.040367        0.041336        0.081703
   6 H        0.086339        0.040367        0.041336        0.081703
   7 O       -0.173683        1.352069       -0.473855        0.878215
   8 H        0.317599        0.143022        0.125010        0.268032
  --------------------------------------------------------------------
  Sum:       -1.000000        1.651286       -1.651286        0.000000
  
  Multipole moment analysis of the density matrix
    Molecular charge:                      -1.000000
    Number of electrons:                   26.000000
      Center of electronic charge [Ang]: [ -0.000000,  -0.000000,   0.062744]
    Total nuclear charge:                  25.000000
      Center of nuclear charge [Ang]:    [  0.000000,   0.000000,  -0.000000]
    Dipole moment [D]:                     7.835664
      Cartesian components [D]:          [  0.000000,   0.000000,  -7.835664]
    RMS size of the density [Ang]:         1.929009
      Cartesian components [Ang]:        [  0.864240,   0.600827,   1.616531]
  
  Exciton analysis of the difference density matrix
    <r_h> [Ang]:                  [ -0.000000,  -0.000000,  -1.448550]
    <r_e> [Ang]:                  [ -0.000000,  -0.000000,   0.225413]
    |<r_e - r_h>| [Ang]:            1.673963
    Hole size [Ang]:                1.789932
      Cartesian components [Ang]: [  0.925608,   0.774392,   1.321902]
    Electron size [Ang]:            3.915343
      Cartesian components [Ang]: [  1.731786,   1.679188,   3.084016]

  Transition density matrix analysis:
  -----------------------------------
  
  CT numbers (Mulliken)
    omega =     0.8588
    <Phe> =    -0.0037
  
  Exciton analysis of the transition density matrix
    Trans. dipole moment [D]:             0.528188
      Cartesian components [D]:         [  0.528188,   0.000000,   0.000000]
    <r_h> [Ang]:                        [ -0.000000,  -0.000000,  -1.715584]
    <r_e> [Ang]:                        [ -0.000000,  -0.000000,   1.120621]
    |<r_e - r_h>| [Ang]:                  2.836205
    Hole size [Ang]:                      1.152372
      Cartesian components [Ang]:       [  0.824495,   0.473650,   0.651018]
    Electron size [Ang]:                  4.594902
      Cartesian components [Ang]:       [  2.111407,   2.056495,   3.525041]
    RMS electron-hole separation [Ang]:   5.515073
      Cartesian components [Ang]:       [  2.262033,   2.110249,   4.565751]
    Covariance(r_h, r_e) [Ang^2]:         0.034559
    Correlation coefficient:              0.006527
    Center-of-mass size [Ang]:            2.372246
      Cartesian components [Ang]:       [  1.135658,   1.055211,   1.795651]

  Decomposition into state-averaged NTOs
    H- 0 -> L+ 7:  0.3732 ( 27.8%)
    H- 0 -> L+ 6:  0.3237 ( 20.9%)
    H- 0 -> L+ 1: -0.2819 ( 15.9%)
    H- 0 -> L+ 0:  0.2600 ( 13.5%)
    H- 0 -> L+ 3: -0.1928 (  7.4%)
                   omega =  85.9%
  ----------------------------------------------------------------------------


  Excited state 7 (singlet, B1)                                    [converged]
  ----------------------------------------------------------------------------
  Term symbol:  7 (1) B1                                    R^2 =  3.70077e-08

  Total energy:                                           -153.7931629776 a.u.
  Excitation energy:                                               4.773573 eV

  Osc. strength:                                                      0.019422
  Trans. dip. moment [a.u.]:           [   0.407521,    0.000000,   -0.000000]
  <i|r^2|0> [a.u.]:                    [   0.000000,   -0.000000,   -0.000000]

  Dip. moment [a.u.]:                  [  -0.000000,   -0.000000,    1.130955]
  Total dipole [Debye]:                                               2.874600
  <r^2> [a.u.]:                        [  76.334535,   28.430709,  224.489026]
  Total <r^2> [a.u.]:                                               329.254269

  V1^2 = 0.8921, V2^2 = 0.1079

  Important amplitudes:
      occ i      occ j       vir a       vir b          v   
    ---------------------------------------------------------
     4 (B1) A              13 (A1) A                  0.4183
     4 (B1) A              12 (A1) A                  0.3961
    ---------------------------------------------------------

  Density matrix analysis:
  ------------------------
  NOs
    Occupation of frontier NOs:
       0.9658   0.9959
    Number of electrons: 26.000000
    Number of unpaired electrons: n_u =  2.72017, n_u,nl =  2.10323
    NO participation ratio (PR_NO):  3.789742
  
  
  Mulliken Population Analysis
  Atom      Charge (e)              h+              e-           Del q
  --------------------------------------------------------------------
   1 C       -0.312694        0.040288       -0.169921       -0.129634
   2 C       -0.312694        0.040288       -0.169921       -0.129634
   3 H        0.154017       -0.002539       -0.023033       -0.025572
   4 H        0.154017       -0.002539       -0.023033       -0.025572
   5 H        0.022537        0.026045       -0.008144        0.017901
   6 H        0.022537        0.026045       -0.008144        0.017901
   7 O       -1.497495        1.258044       -1.703642       -0.445598
   8 H        0.769774        0.179783        0.540425        0.720208
  --------------------------------------------------------------------
  Sum:       -1.000000        1.565413       -1.565413        0.000000
  
  Multipole moment analysis of the density matrix
    Molecular charge:                      -1.000000
    Number of electrons:                   26.000000
      Center of electronic charge [Ang]: [  0.000000,   0.000000,  -0.023018]
    Total nuclear charge:                  25.000000
      Center of nuclear charge [Ang]:    [  0.000000,   0.000000,  -0.000000]
    Dipole moment [D]:                     2.874600
      Cartesian components [D]:          [ -0.000000,  -0.000000,   2.874600]
    RMS size of the density [Ang]:         1.882989
      Cartesian components [Ang]:        [  0.906724,   0.553361,   1.554764]
  
  Exciton analysis of the difference density matrix
    <r_h> [Ang]:                  [ -0.000000,  -0.000000,  -1.520406]
    <r_e> [Ang]:                  [ -0.000000,  -0.000000,  -1.179042]
    |<r_e - r_h>| [Ang]:            0.341364
    Hole size [Ang]:                1.731043
      Cartesian components [Ang]: [  0.951557,   0.769632,   1.224220]
    Electron size [Ang]:            3.402811
      Cartesian components [Ang]: [  2.101172,   1.422733,   2.267163]

  Transition density matrix analysis:
  -----------------------------------
  
  CT numbers (Mulliken)
    omega =     0.8740
    <Phe> =    -0.0088
  
  Exciton analysis of the transition density matrix
    Trans. dipole moment [D]:             0.517908
      Cartesian components [D]:         [  0.517908,   0.000000,  -0.000000]
    <r_h> [Ang]:                        [ -0.000000,  -0.000000,  -1.728798]
    <r_e> [Ang]:                        [ -0.000000,  -0.000000,  -1.208737]
    |<r_e - r_h>| [Ang]:                  0.520060
    Hole size [Ang]:                      1.129541
      Cartesian components [Ang]:       [  0.820629,   0.471563,   0.616490]
    Electron size [Ang]:                  4.025190
      Cartesian components [Ang]:       [  2.512272,   1.664214,   2.668527]
    RMS electron-hole separation [Ang]:   4.202288
      Cartesian components [Ang]:       [  2.638886,   1.729638,   2.775581]
    Covariance(r_h, r_e) [Ang^2]:         0.044629
    Correlation coefficient:              0.009816
    Center-of-mass size [Ang]:            2.095667
      Cartesian components [Ang]:       [  1.323458,   0.864914,   1.375573]

  Decomposition into state-averaged NTOs
    H- 0 -> L+ 0:  0.5240 ( 54.9%)
    H- 0 -> L+ 3:  0.3331 ( 22.2%)
    H- 0 -> L+ 5: -0.1785 (  6.4%)
    H- 0 -> L+ 1:  0.1137 (  2.6%)
                   omega =  87.4%
  ----------------------------------------------------------------------------


  Excited state 8 (singlet, B1)                                    [converged]
  ----------------------------------------------------------------------------
  Term symbol:  8 (1) B1                                    R^2 =  4.20162e-07

  Total energy:                                           -153.7656901306 a.u.
  Excitation energy:                                               5.521148 eV

  Osc. strength:                                                      0.000330
  Trans. dip. moment [a.u.]:           [   0.049383,    0.000000,   -0.000000]
  <i|r^2|0> [a.u.]:                    [   0.000000,    0.000000,   -0.000000]

  Dip. moment [a.u.]:                  [   0.000000,   -0.000000,   -3.646076]
  Total dipole [Debye]:                                               9.267404
  <r^2> [a.u.]:                        [ 133.468246,   44.982689,  226.477428]
  Total <r^2> [a.u.]:                                               404.928363

  V1^2 = 0.8683, V2^2 = 0.1317

  Important amplitudes:
      occ i      occ j       vir a       vir b          v   
    ---------------------------------------------------------
     7 (A1) A               5 (B1) A                  0.5949
     7 (A1) A               6 (B1) A                 -0.2572
    ---------------------------------------------------------

  Density matrix analysis:
  ------------------------
  NOs
    Occupation of frontier NOs:
       0.9797   0.9997
    Number of electrons: 26.000000
    Number of unpaired electrons: n_u =  2.80205, n_u,nl =  2.13194
    NO participation ratio (PR_NO):  3.936783
  
  
  Mulliken Population Analysis
  Atom      Charge (e)              h+              e-           Del q
  --------------------------------------------------------------------
   1 C       -0.681347        0.063774       -0.562062       -0.498287
   2 C       -0.681347        0.063774       -0.562062       -0.498287
   3 H        0.147381        0.001793       -0.034002       -0.032209
   4 H        0.147381        0.001793       -0.034002       -0.032209
   5 H        0.048724        0.043680        0.000409        0.044089
   6 H        0.048724        0.043680        0.000409        0.044089
   7 O       -0.362740        1.201641       -0.512483        0.689158
   8 H        0.333225        0.300721       -0.017062        0.283658
  --------------------------------------------------------------------
  Sum:       -1.000000        1.720855       -1.720855       -0.000000
  
  Multipole moment analysis of the density matrix
    Molecular charge:                      -1.000000
    Number of electrons:                   26.000000
      Center of electronic charge [Ang]: [ -0.000000,   0.000000,   0.074208]
    Total nuclear charge:                  25.000000
      Center of nuclear charge [Ang]:    [  0.000000,   0.000000,  -0.000000]
    Dipole moment [D]:                     9.267401
      Cartesian components [D]:          [  0.000000,  -0.000000,  -9.267401]
    RMS size of the density [Ang]:         2.087032
      Cartesian components [Ang]:        [  1.198957,   0.696045,   1.560041]
  
  Exciton analysis of the difference density matrix
    <r_h> [Ang]:                  [  0.000000,  -0.000000,  -1.367595]
    <r_e> [Ang]:                  [ -0.000000,   0.000000,   0.411911]
    |<r_e - r_h>| [Ang]:            1.779505
    Hole size [Ang]:                1.872466
      Cartesian components [Ang]: [  0.870603,   0.791199,   1.456772]
    Electron size [Ang]:            4.948742
      Cartesian components [Ang]: [  3.639721,   2.149870,   2.573041]

  Transition density matrix analysis:
  -----------------------------------
  
  CT numbers (Mulliken)
    omega =     0.8515
    <Phe> =     0.0001
  
  Exciton analysis of the transition density matrix
    Trans. dipole moment [D]:             0.062759
      Cartesian components [D]:         [  0.062759,   0.000000,  -0.000000]
    <r_h> [Ang]:                        [ -0.000000,  -0.000000,  -1.703715]
    <r_e> [Ang]:                        [ -0.000000,   0.000000,   1.492534]
    |<r_e - r_h>| [Ang]:                  3.196249
    Hole size [Ang]:                      1.154235
      Cartesian components [Ang]:       [  0.456892,   0.406089,   0.979081]
    Electron size [Ang]:                  6.069630
      Cartesian components [Ang]:       [  4.707908,   2.732143,   2.685406]
    RMS electron-hole separation [Ang]:   6.951303
      Cartesian components [Ang]:       [  4.728962,   2.762377,   4.280983]
    Covariance(r_h, r_e) [Ang^2]:         0.034031
    Correlation coefficient:              0.004858
    Center-of-mass size [Ang]:            3.091955
      Cartesian components [Ang]:       [  2.365545,   1.380970,   1.434329]

  Decomposition into state-averaged NTOs
    H- 1 -> L+ 8: -0.5079 ( 51.6%)
    H- 1 -> L+ 2:  0.4094 ( 33.5%)
                   omega =  85.1%
  ----------------------------------------------------------------------------


  Excited state 9 (singlet, B1)                                    [converged]
  ----------------------------------------------------------------------------
  Term symbol:  9 (1) B1                                    R^2 =  1.54607e-06

  Total energy:                                           -153.7503289097 a.u.
  Excitation energy:                                               5.939148 eV

  Osc. strength:                                                      0.001496
  Trans. dip. moment [a.u.]:           [   0.101411,   -0.000000,   -0.000000]
  <i|r^2|0> [a.u.]:                    [  -0.000000,    0.000000,   -0.000000]

  Dip. moment [a.u.]:                  [   0.000000,    0.000000,   -2.358022]
  Total dipole [Debye]:                                               5.993496
  <r^2> [a.u.]:                        [  71.593591,   33.849607,  207.484638]
  Total <r^2> [a.u.]:                                               312.927835

  V1^2 = 0.8802, V2^2 = 0.1198

  Important amplitudes:
      occ i      occ j       vir a       vir b          v   
    ---------------------------------------------------------
     4 (B1) A              13 (A1) A                  0.4877
     4 (B1) A              12 (A1) A                 -0.4311
    ---------------------------------------------------------

  Density matrix analysis:
  ------------------------
  NOs
    Occupation of frontier NOs:
       0.9652   0.9954
    Number of electrons: 26.000000
    Number of unpaired electrons: n_u =  2.73796, n_u,nl =  2.10978
    NO participation ratio (PR_NO):  3.840569
  
  
  Mulliken Population Analysis
  Atom      Charge (e)              h+              e-           Del q
  --------------------------------------------------------------------
   1 C       -0.755562        0.057460       -0.629962       -0.572502
   2 C       -0.755562        0.057460       -0.629962       -0.572502
   3 H        0.204941       -0.003986        0.029338        0.025351
   4 H        0.204941       -0.003986        0.029338        0.025351
   5 H        0.064679        0.014830        0.045213        0.060043
   6 H        0.064679        0.014830        0.045213        0.060043
   7 O       -0.191215        1.362343       -0.501661        0.860683
   8 H        0.163098        0.124018       -0.010486        0.113532
  --------------------------------------------------------------------
  Sum:       -1.000000        1.622968       -1.622968       -0.000000
  
  Multipole moment analysis of the density matrix
    Molecular charge:                      -1.000000
    Number of electrons:                   26.000000
      Center of electronic charge [Ang]: [ -0.000000,  -0.000000,   0.047993]
    Total nuclear charge:                  25.000000
      Center of nuclear charge [Ang]:    [  0.000000,   0.000000,  -0.000000]
    Dipole moment [D]:                     5.993494
      Cartesian components [D]:          [  0.000000,   0.000000,  -5.993494]
    RMS size of the density [Ang]:         1.835220
      Cartesian components [Ang]:        [  0.878115,   0.603797,   1.494113]
  
  Exciton analysis of the difference density matrix
    <r_h> [Ang]:                  [ -0.000000,  -0.000000,  -1.495843]
    <r_e> [Ang]:                  [  0.000000,  -0.000000,  -0.028986]
    |<r_e - r_h>| [Ang]:            1.466857
    Hole size [Ang]:                1.697505
      Cartesian components [Ang]: [  0.907255,   0.766396,   1.212869]
    Electron size [Ang]:            3.112987
      Cartesian components [Ang]: [  1.841226,   1.703938,   1.843142]

  Transition density matrix analysis:
  -----------------------------------
  
  CT numbers (Mulliken)
    omega =     0.8634
    <Phe> =    -0.0006
  
  Exciton analysis of the transition density matrix
    Trans. dipole moment [D]:             0.128880
      Cartesian components [D]:         [  0.128880,  -0.000000,  -0.000000]
    <r_h> [Ang]:                        [ -0.000000,  -0.000000,  -1.714058]
    <r_e> [Ang]:                        [ -0.000000,  -0.000000,   0.747137]
    |<r_e - r_h>| [Ang]:                  2.461195
    Hole size [Ang]:                      1.151968
      Cartesian components [Ang]:       [  0.823559,   0.472004,   0.652682]
    Electron size [Ang]:                  3.514070
      Cartesian components [Ang]:       [  2.233309,   2.076824,   1.745801]
    RMS electron-hole separation [Ang]:   4.438164
      Cartesian components [Ang]:       [  2.378164,   2.129026,   3.083648]
    Covariance(r_h, r_e) [Ang^2]:         0.017946
    Correlation coefficient:              0.004433
    Center-of-mass size [Ang]:            1.851459
      Cartesian components [Ang]:       [  1.191235,   1.065272,   0.934910]

  Decomposition into state-averaged NTOs
    H- 0 -> L+ 1:  0.5186 ( 53.8%)
    H- 0 -> L+ 3: -0.3103 ( 19.3%)
    H- 0 -> L+ 0:  0.1562 (  4.9%)
    H- 0 -> L+ 6:  0.1494 (  4.5%)
    H- 0 -> L+ 5:  0.1385 (  3.8%)
                   omega =  86.3%
  ----------------------------------------------------------------------------


  Excited state 10 (singlet, B1)                                    [converged]
  ----------------------------------------------------------------------------
  Term symbol:  10 (1) B1                                   R^2 =  2.86449e-06

  Total energy:                                           -153.7498517103 a.u.
  Excitation energy:                                               5.952133 eV

  Osc. strength:                                                      0.001102
  Trans. dip. moment [a.u.]:           [   0.086949,    0.000000,   -0.000000]
  <i|r^2|0> [a.u.]:                    [   0.000000,   -0.000000,   -0.000000]

  Dip. moment [a.u.]:                  [  -0.000000,   -0.000000,   -1.768663]
  Total dipole [Debye]:                                               4.495493
  <r^2> [a.u.]:                        [ 118.718402,   39.529932,  255.442083]
  Total <r^2> [a.u.]:                                               413.690418

  V1^2 = 0.8704, V2^2 = 0.1296

  Important amplitudes:
      occ i      occ j       vir a       vir b          v   
    ---------------------------------------------------------
     7 (A1) A               6 (B1) A                 -0.6012
     7 (A1) A               5 (B1) A                 -0.2575
    ---------------------------------------------------------

  Density matrix analysis:
  ------------------------
  NOs
    Occupation of frontier NOs:
       0.9797   1.0008
    Number of electrons: 26.000000
    Number of unpaired electrons: n_u =  2.79620, n_u,nl =  2.13014
    NO participation ratio (PR_NO):  3.923198
  
  
  Mulliken Population Analysis
  Atom      Charge (e)              h+              e-           Del q
  --------------------------------------------------------------------
   1 C       -0.669622        0.059015       -0.545577       -0.486562
   2 C       -0.669622        0.059015       -0.545577       -0.486562
   3 H        0.144283       -0.000523       -0.034783       -0.035307
   4 H        0.144283       -0.000523       -0.034783       -0.035307
   5 H        0.038724        0.041935       -0.007846        0.034088
   6 H        0.038724        0.041935       -0.007846        0.034088
   7 O       -0.363710        1.204343       -0.516156        0.688187
   8 H        0.336940        0.304548       -0.017175        0.287373
  --------------------------------------------------------------------
  Sum:       -1.000000        1.709745       -1.709745       -0.000000
  
  Multipole moment analysis of the density matrix
    Molecular charge:                      -1.000000
    Number of electrons:                   26.000000
      Center of electronic charge [Ang]: [  0.000000,   0.000000,   0.035998]
    Total nuclear charge:                  25.000000
      Center of nuclear charge [Ang]:    [  0.000000,   0.000000,  -0.000000]
    Dipole moment [D]:                     4.495492
      Cartesian components [D]:          [ -0.000000,  -0.000000,  -4.495492]
    RMS size of the density [Ang]:         2.110518
      Cartesian components [Ang]:        [  1.130768,   0.652495,   1.658282]
  
  Exciton analysis of the difference density matrix
    <r_h> [Ang]:                  [  0.000000,  -0.000000,  -1.386643]
    <r_e> [Ang]:                  [  0.000000,  -0.000000,  -0.176645]
    |<r_e - r_h>| [Ang]:            1.209998
    Hole size [Ang]:                1.858669
      Cartesian components [Ang]: [  0.859223,   0.789372,   1.446817]
    Electron size [Ang]:            5.117606
      Cartesian components [Ang]: [  3.300494,   1.936994,   3.397747]

  Transition density matrix analysis:
  -----------------------------------
  
  CT numbers (Mulliken)
    omega =     0.8535
    <Phe> =     0.0001
  
  Exciton analysis of the transition density matrix
    Trans. dipole moment [D]:             0.110502
      Cartesian components [D]:         [  0.110502,   0.000000,  -0.000000]
    <r_h> [Ang]:                        [ -0.000000,  -0.000000,  -1.716845]
    <r_e> [Ang]:                        [  0.000000,   0.000000,   0.470305]
    |<r_e - r_h>| [Ang]:                  2.187150
    Hole size [Ang]:                      1.141206
      Cartesian components [Ang]:       [  0.452328,   0.406151,   0.965812]
    Electron size [Ang]:                  6.425825
      Cartesian components [Ang]:       [  4.245439,   2.436661,   4.162950]
    RMS electron-hole separation [Ang]:   6.876555
      Cartesian components [Ang]:       [  4.268638,   2.470297,   4.792011]
    Covariance(r_h, r_e) [Ang^2]:         0.045094
    Correlation coefficient:              0.006149
    Center-of-mass size [Ang]:            3.266641
      Cartesian components [Ang]:       [  2.135148,   1.235130,   2.141620]

  Decomposition into state-averaged NTOs
    H- 1 -> L+ 2:  0.5104 ( 52.1%)
    H- 1 -> L+ 8:  0.4072 ( 33.2%)
                   omega =  85.3%
  ----------------------------------------------------------------------------


--------------------------------------------------------------------------------
  Time of ADC calculation:  CPU 268.21 s  wall 72.46 s
================================================================================
 
 --------------------------------------------------------------
             Orbital Energies (a.u.) and Symmetries
 --------------------------------------------------------------
 
 Alpha MOs, Restricted
 -- Occupied --                  
-20.213 -11.049 -11.047  -0.930  -0.854  -0.598  -0.473  -0.384
  1 A1    2 A1    1 B1    3 A1    4 A1    2 B1    5 A1    6 A1                 
 -0.328  -0.271  -0.194  -0.129  -0.128
  3 B1    7 A1    1 B2    4 B1    2 B2                                         
 -- Virtual --                   
  0.110   0.125   0.130   0.132   0.141   0.141   0.206   0.213
  5 B1    8 A1    3 B2    1 A2    6 B1    9 A1   10 A1    7 B1                 
  0.254   0.260   0.273   0.280   0.325   0.356   0.390   0.417
  2 A2   11 A1    8 B1    4 B2   12 A1   13 A1    3 A2    9 B1                 
  0.450   0.465   0.471   0.528   0.537   0.578   0.616   0.649
  5 B2   14 A1   10 B1   15 A1   11 B1   16 A1   12 B1   17 A1                 
  0.688   0.823   0.958   0.986   1.054   1.056   1.082   1.131
 13 B1   18 A1   19 A1    6 B2   20 A1    4 A2   21 A1   14 B1                 
  1.181   1.198   1.203   1.215   1.288   1.291   1.331   1.331
 15 B1   16 B1    7 B2   22 A1   23 A1    5 A2   17 B1   24 A1                 
  1.370   1.464   1.467   1.483   1.561   1.642   1.691   1.719
  8 B2   18 B1    9 B2    6 A2   19 B1   25 A1   20 B1   10 B2                 
  1.849   1.927   1.962   2.030   2.123   2.124   2.139   2.187
 26 A1   21 B1   27 A1    7 A2   11 B2   28 A1   22 B1   29 A1                 
  2.212   2.283   2.356   2.393   2.435   2.473   2.552   2.604
 12 B2   30 A1    8 A2   13 B2   23 B1   24 B1   31 A1    9 A2                 
  2.721   2.748   2.847   3.008   3.035   3.086   3.452   3.562
 25 B1   32 A1   26 B1   33 A1   34 A1   35 A1   27 B1   28 B1                 
  3.921   3.945   3.970   4.087   4.536
 14 B2   10 A2   36 A1   29 B1   37 A1                                         
 
 Beta MOs, Restricted
 -- Occupied --                  
-20.213 -11.049 -11.047  -0.930  -0.854  -0.598  -0.473  -0.384
  1 A1    2 A1    1 B1    3 A1    4 A1    2 B1    5 A1    6 A1                 
 -0.328  -0.271  -0.194  -0.129  -0.128
  3 B1    7 A1    1 B2    4 B1    2 B2                                         
 -- Virtual --                   
  0.110   0.125   0.130   0.132   0.141   0.141   0.206   0.213
  5 B1    8 A1    3 B2    1 A2    6 B1    9 A1   10 A1    7 B1                 
  0.254   0.260   0.273   0.280   0.325   0.356   0.390   0.417
  2 A2   11 A1    8 B1    4 B2   12 A1   13 A1    3 A2    9 B1                 
  0.450   0.465   0.471   0.528   0.537   0.578   0.616   0.649
  5 B2   14 A1   10 B1   15 A1   11 B1   16 A1   12 B1   17 A1                 
  0.688   0.823   0.958   0.986   1.054   1.056   1.082   1.131
 13 B1   18 A1   19 A1    6 B2   20 A1    4 A2   21 A1   14 B1                 
  1.181   1.198   1.203   1.215   1.288   1.291   1.331   1.331
 15 B1   16 B1    7 B2   22 A1   23 A1    5 A2   17 B1   24 A1                 
  1.370   1.464   1.467   1.483   1.561   1.642   1.691   1.719
  8 B2   18 B1    9 B2    6 A2   19 B1   25 A1   20 B1   10 B2                 
  1.849   1.927   1.962   2.030   2.123   2.124   2.139   2.187
 26 A1   21 B1   27 A1    7 A2   11 B2   28 A1   22 B1   29 A1                 
  2.212   2.283   2.356   2.393   2.435   2.473   2.552   2.604
 12 B2   30 A1    8 A2   13 B2   23 B1   24 B1   31 A1    9 A2                 
  2.721   2.748   2.847   3.008   3.035   3.086   3.452   3.562
 25 B1   32 A1   26 B1   33 A1   34 A1   35 A1   27 B1   28 B1                 
  3.921   3.945   3.970   4.087   4.536
 14 B2   10 A2   36 A1   29 B1   37 A1                                         
 --------------------------------------------------------------
 
          Ground-State Mulliken Net Atomic Charges

     Atom                 Charge (a.u.)
  ----------------------------------------
      1 C                    -0.176948
      2 C                    -0.176948
      3 H                     0.172310
      4 H                     0.172310
      5 H                    -0.000638
      6 H                    -0.000638
      7 O                    -1.056384
      8 H                     0.066936
  ----------------------------------------
  Sum of atomic charges =    -1.000000

 -----------------------------------------------------------------
                    Cartesian Multipole Moments
 -----------------------------------------------------------------
    Charge (ESU x 10^10)
                -4.8032
    Dipole Moment (Debye)
         X       0.0000      Y       0.0000      Z       5.2722
       Tot       5.2722
    Quadrupole Moments (Debye-Ang)
        XX     -23.6812     XY       0.0000     YY     -26.5131
        XZ       0.0000     YZ       0.0000     ZZ     -32.8442
    Octopole Moments (Debye-Ang^2)
       XXX       0.0000    XXY       0.0000    XYY      -0.0000
       YYY       0.0000    XXZ       1.0068    XYZ      -0.0000
       YYZ      -0.0787    XZZ      -0.0000    YZZ       0.0000
       ZZZ       6.0685
    Hexadecapole Moments (Debye-Ang^3)
      XXXX     -88.5215   XXXY      -0.0000   XXYY     -22.0315
      XYYY       0.0000   YYYY     -40.9266   XXXZ       0.0000
      XXYZ      -0.0000   XYYZ       0.0000   YYYZ      -0.0000
      XXZZ     -70.8312   XYZZ       0.0000   YYZZ     -65.5952
      XZZZ       0.0000   YZZZ      -0.0000   ZZZZ    -292.5166
 -----------------------------------------------------------------
 Total job time:  181.11s(wall), 316.91s(cpu) 
 Wed Mar  2 16:40:45 2022

        *************************************************************
        *                                                           *
        *  Thank you very much for using Q-Chem.  Have a nice day.  *
        *                                                           *
        *************************************************************


