/src/tsommerfeld/qchem/exe/qcprog.exe .input1.187879.24895.qcin.1 /src/jdavis/qchem.scratch/qchem24895/

                  Welcome to Q-Chem
     A Quantum Leap Into The Future Of Chemistry


 Q-Chem 5.4 (devel), Q-Chem, Inc., Pleasanton, CA (2021)

 E. Epifanovsky,  A. T. B. Gilbert,  Xintian Feng,  Joonho Lee,  Yuezhi Mao,  
 N. Mardirossian,  P. Pokhilko,  A. White,  M. Wormit,  M. P. Coons,  
 A. L. Dempwolff,  Zhengting Gan,  D. Hait,  P. R. Horn,  L. D. Jacobson,  
 I. Kaliman,  J. Kussmann,  A. W. Lange,  Ka Un Lao,  D. S. Levine,  Jie Liu,  
 S. C. McKenzie,  A. F. Morrison,  K. Nanda,  F. Plasser,  D. R. Rehn,  
 M. L. Vidal,  Zhi-Qiang You,  Ying Zhu,  B. Alam,  B. Albrecht,  
 A. Aldossary,  E. Alguire,  J. H. Andersen,  D. Barton,  K. Begam,  A. Behn,  
 Y. A. Bernard,  E. J. Berquist,  H. Burton,  A. Carreras,  K. Carter-Fenk,  
 R. Chakraborty,  A. D. Chien,  K. D. Closser,  V. Cofer-Shabica,  
 S. Dasgupta,  Jia Deng,  M. de Wergifosse,  M. Diedenhofen,  Hainam Do,  
 S. Ehlert,  Po-Tung Fang,  S. Fatehi,  Qingguo Feng,  T. Friedhoff,  
 J. Gayvert,  Qinghui Ge,  G. Gidofalvi,  M. Goldey,  J. Gomes,  
 C. Gonzalez-Espinoza,  S. Gulania,  A. Gunina,  M. W. D. Hanson-Heine,  
 P. H. P. Harbach,  A. W. Hauser,  M. F. Herbst,  M. Hernandez Vera,  
 M. Hodecker,  Z. C. Holden,  S. Houck,  Xunkun Huang,  Kerwin Hui,  
 B. C. Huynh,  M. Ivanov,  Hyunjun Ji,  Hanjie Jiang,  B. Kaduk,  S. Kaehler,  
 K. Khistyaev,  Jaehoon Kim,  P. Klunzinger,  Z. Koczor-Benda,  
 Joong Hoon Koh,  D. Kosenkov,  L. Koulias,  T. Kowalczyk,  C. M. Krauter,  
 K. Kue,  A. Kunitsa,  T. Kus,  A. Landau,  K. V. Lawler,  D. Lefrancois,  
 S. Lehtola,  Rain Li,  Yi-Pei Li,  Jiashu Liang,  M. Liebenthal,  
 Hung-Hsuan Lin,  You-Sheng Lin,  Fenglai Liu,  Kuan-Yu Liu,  
 M. Loipersberger,  A. Luenser,  A. Manjanath,  P. Manohar,  E. Mansoor,  
 S. F. Manzer,  Shan-Ping Mao,  A. V. Marenich,  T. Markovich,  S. Mason,  
 S. A. Maurer,  P. F. McLaughlin,  M. F. S. J. Menger,  J.-M. Mewes,  
 S. A. Mewes,  P. Morgante,  J. W. Mullinax,  K. J. Oosterbaan,  G. Paran,  
 Alexander C. Paul,  Suranjan K. Paul,  F. Pavosevic,  Zheng Pei,  S. Prager,  
 E. I. Proynov,  E. Ramos,  B. Rana,  A. E. Rask,  A. Rettig,  R. M. Richard,  
 F. Rob,  E. Rossomme,  T. Scheele,  M. Scheurer,  M. Schneider,  
 N. Sergueev,  S. M. Sharada,  W. Skomorowski,  D. W. Small,  C. J. Stein,  
 Yu-Chuan Su,  E. J. Sundstrom,  Zhen Tao,  J. Thirman,  T. Tsuchimochi,  
 N. M. Tubman,  S. P. Veccham,  O. Vydrov,  J. Wenzel,  J. Witte,  A. Yamada,  
 Kun Yao,  S. Yeganeh,  S. R. Yost,  A. Zech,  Igor Ying Zhang,  Xing Zhang,  
 Yu Zhang,  D. Zuev,  A. Aspuru-Guzik,  A. T. Bell,  N. A. Besley,  
 K. B. Bravaya,  B. R. Brooks,  D. Casanova,  Jeng-Da Chai,  S. Coriani,  
 C. J. Cramer,  A. E. DePrince, III,  R. A. DiStasio Jr.,  A. Dreuw,  
 B. D. Dunietz,  T. R. Furlani,  W. A. Goddard III,  S. Grimme,  
 S. Hammes-Schiffer,  T. Head-Gordon,  W. J. Hehre,  Chao-Ping Hsu,  
 T.-C. Jagau,  Yousung Jung,  A. Klamt,  Jing Kong,  D. S. Lambrecht,  
 WanZhen Liang,  N. J. Mayhall,  C. W. McCurdy,  J. B. Neaton,  
 C. Ochsenfeld,  J. A. Parkhill,  R. Peverati,  V. A. Rassolov,  Yihan Shao,  
 L. V. Slipchenko,  T. Stauch,  R. P. Steele,  J. E. Subotnik,  
 A. J. W. Thom,  A. Tkatchenko,  D. G. Truhlar,  T. Van Voorhis,  
 T. A. Wesolowski,  K. B. Whaley,  H. L. Woodcock III,  P. M. Zimmerman,  
 S. Faraji,  P. M. W. Gill,  M. Head-Gordon,  J. M. Herbert,  A. I. Krylov

 Additional authors for Version 5.4.1: 
 S. Kotaru,  Shaozhi Li,  Xiangyuan Li,  F. Matz,  A. Molle,  Haisheng Ren,  
 Yingli Su,  Hung-Yi Tsai,  C. Utku,  Fang Wang

 Contributors to earlier versions of Q-Chem not listed above: 
 R. D. Adamson,  B. Austin,  R. Baer,  J. Baker,  G. J. O. Beran,  
 K. Brandhorst,  S. T. Brown,  E. F. C. Byrd,  A. K. Chakraborty,  
 G. K. L. Chan,  Chun-Min Chang,  Yunqing Chen,  C.-L. Cheng,  
 Siu Hung Chien,  D. M. Chipman,  D. L. Crittenden,  H. Dachsel,  
 R. J. Doerksen,  A. D. Dutoi,  R. G. Edgar,  J. Fosso-Tande,  
 L. Fusti-Molnar,  D. Ghosh,  A. Ghysels,  A. Golubeva-Zadorozhnaya,  
 J. Gonthier,  M. S. Gordon,  S. R. Gwaltney,  G. Hawkins,  J. E. Herr,  
 A. Heyden,  S. Hirata,  E. G. Hohenstein,  G. Kedziora,  F. J. Keil,  
 C. Kelley,  Jihan Kim,  R. A. King,  R. Z. Khaliullin,  P. P. Korambath,  
 W. Kurlancheek,  A. Laurent,  A. M. Lee,  M. S. Lee,  S. V. Levchenko,  
 Ching Yeh Lin,  D. Liotard,  E. Livshits,  R. C. Lochan,  I. Lotan,  
 L. A. Martinez-Martinez,  P. E. Maslen,  N. Nair,  D. P. O'Neill,  
 D. Neuhauser,  E. Neuscamman,  C. M. Oana,  R. Olivares-Amaya,  R. Olson,  
 T. M. Perrine,  B. Peters,  P. A. Pieniazek,  A. Prociuk,  Y. M. Rhee,  
 J. Ritchie,  M. A. Rohrdanz,  E. Rosta,  N. J. Russ,  H. F. Schaefer III,  
 M. W. Schmidt,  N. E. Schultz,  S. Sharma,  N. Shenvi,  C. D. Sherrill,  
 A. C. Simmonett,  A. Sodt,  T. Stein,  D. Stuck,  K. S. Thanthiriwatte,  
 V. Vanovschi,  L. Vogt,  Tao Wang,  A. Warshel,  M. A. Watson,  
 C. F. Williams,  Q. Wu,  X. Xu,  Jun Yang,  W. Zhang,  Yan Zhao

 Please cite Q-Chem as follows:
 Y. Shao et al., Mol. Phys. 113, 184-215 (2015)
 DOI: 10.1080/00268976.2014.952696

 Q-Chem 5.4.1 for Intel X86 EM64T Linux

 Parts of Q-Chem use Armadillo 9.900.5 (Nocturnal Misbehaviour).
 http://arma.sourceforge.net/

 Q-Chem begins on Wed Mar  2 17:11:01 2022  

 Host: node01
0

     Scratch files written to /src/jdavis/qchem.scratch/qchem24895//
 Processing $rem in /src/tsommerfeld/qchem/config/preferences:
 Processing $rem in /home/jdavis/.qchemrc:

 Checking the input file for inconsistencies... 	...done.

--------------------------------------------------------------
User input:
--------------------------------------------------------------
$molecule
-1 1
C        -0.6645000000    0.0000000000    1.1619088658
C         0.6645000000    0.0000000000    1.1619088658
H        -1.1590800000    0.0000000000    0.1995598658
H         1.1590800000    0.0000000000    0.1995598658
H        -1.1590800000    0.0000000000    2.1242568658
H         1.1590800000    0.0000000000    2.1242568658
O         0.0000000000    0.0000000000   -1.5841414040
H         0.0000000000    0.0000000000   -2.5471307683
$end
$rem
   METHOD adc(2)
   BASIS gen
   PURECART 11
   EE_STATES [0,0,10,0]
   scf_convergence 8
   ADC_DAVIDSON_MAXITER 120
   ADC_DAVIDSON_MAXSUBSPACE 200
   adc_nguess_singles 100
   THRESH 14
   S2THRESH 14
   adc_davidson_conv 5
   adc_davidson_thresh 14
   THREADS 10
   MEM_TOTAL 95000
   STATE_ANALYSIS TRUE
$end
$basis
C 1
S   9   1.00
      6.665000D+03           6.920000D-04
      1.000000D+03           5.329000D-03
      2.280000D+02           2.707700D-02
      6.471000D+01           1.017180D-01
      2.106000D+01           2.747400D-01
      7.495000D+00           4.485640D-01
      2.797000D+00           2.850740D-01
      5.215000D-01           1.520400D-02
      1.596000D-01          -3.191000D-03
S   9   1.00
      6.665000D+03          -1.460000D-04
      1.000000D+03          -1.154000D-03
      2.280000D+02          -5.725000D-03
      6.471000D+01          -2.331200D-02
      2.106000D+01          -6.395500D-02
      7.495000D+00          -1.499810D-01
      2.797000D+00          -1.272620D-01
      5.215000D-01           5.445290D-01
      1.596000D-01           5.804960D-01
S   1   1.00
      1.596000D-01           1.000000D+00
S   1   1.00
      0.0469000              1.0000000
P   4   1.00
      9.439000D+00           3.810900D-02
      2.002000D+00           2.094800D-01
      5.456000D-01           5.085570D-01
      1.517000D-01           4.688420D-01
P   1   1.00
      1.517000D-01           1.000000D+00
P   1   1.00
      0.0514861      1.0000000
P   1   1.00
      0.025743      1.0000000
D   1   1.00
      5.500000D-01           1.0000000
****
C 2
S   9   1.00
      6.665000D+03           6.920000D-04
      1.000000D+03           5.329000D-03
      2.280000D+02           2.707700D-02
      6.471000D+01           1.017180D-01
      2.106000D+01           2.747400D-01
      7.495000D+00           4.485640D-01
      2.797000D+00           2.850740D-01
      5.215000D-01           1.520400D-02
      1.596000D-01          -3.191000D-03
S   9   1.00
      6.665000D+03          -1.460000D-04
      1.000000D+03          -1.154000D-03
      2.280000D+02          -5.725000D-03
      6.471000D+01          -2.331200D-02
      2.106000D+01          -6.395500D-02
      7.495000D+00          -1.499810D-01
      2.797000D+00          -1.272620D-01
      5.215000D-01           5.445290D-01
      1.596000D-01           5.804960D-01
S   1   1.00
      1.596000D-01           1.000000D+00
S   1   1.00
      0.0469000              1.0000000
P   4   1.00
      9.439000D+00           3.810900D-02
      2.002000D+00           2.094800D-01
      5.456000D-01           5.085570D-01
      1.517000D-01           4.688420D-01
P   1   1.00
      1.517000D-01           1.000000D+00
P   1   1.00
      0.0514861      1.0000000
P   1   1.00
      0.025743      1.0000000
D   1   1.00
      5.500000D-01           1.0000000
****
H 3
cc-pVDZ
****
H 4
cc-pVDZ
****
H 5
cc-pVDZ
****
H 6
cc-pVDZ
****
O 7
aug-cc-pVDZ
****
H 8
cc-pVDZ
****
$end
--------------------------------------------------------------
 ----------------------------------------------------------------
             Standard Nuclear Orientation (Angstroms)
    I     Atom           X                Y                Z
 ----------------------------------------------------------------
    1      C      -0.6645000000    -0.0000000000     1.0270977517
    2      C       0.6645000000     0.0000000000     1.0270977517
    3      H      -1.1590800000    -0.0000000000     0.0647487517
    4      H       1.1590800000     0.0000000000     0.0647487517
    5      H      -1.1590800000    -0.0000000000     1.9894457517
    6      H       1.1590800000     0.0000000000     1.9894457517
    7      O       0.0000000000    -0.0000000000    -1.7189525181
    8      H       0.0000000000    -0.0000000000    -2.6819418824
 ----------------------------------------------------------------
 Molecular Point Group                 C2v   NOp =  4
 Largest Abelian Subgroup              C2v   NOp =  4
 Nuclear Repulsion Energy =          64.38561153 hartrees
 There are       13 alpha and       13 beta electrons
 Requested basis set is non-standard
 There are 42 shells and 90 basis functions
 Total memory of 95000 MB is distributed as follows: 
   MEM_STATIC is set to 192 MB
   QALLOC/CCMAN JOB total memory use is  94808 MB
 Warning: actual memory use might exceed 95000 MB

 Total QAlloc Memory Limit  95000 MB
 Mega-Array Size       188 MB
 MEM_STATIC part       192 MB

                       Distance Matrix (Angstroms)
             C (  1)   C (  2)   H (  3)   H (  4)   H (  5)   H (  6)
   C (  2)  1.329000
   H (  3)  1.082000  2.061931
   H (  4)  2.061931  1.082000  2.318160
   H (  5)  1.082000  2.061931  1.924697  3.013026
   H (  6)  2.061931  1.082000  3.013026  1.924697  2.318160
   O (  7)  2.825306  2.825306  2.127218  2.127218  3.885316  3.885316
   H (  8)  3.768094  3.768094  2.981237  2.981237  4.813037  4.813037
             O (  7)
   H (  8)  0.962989
 
 A cutoff of  1.0D-14 yielded    903 shell pairs
 There are      4183 function pairs (      4573 Cartesian)
 Smallest overlap matrix eigenvalue = 1.48E-04

 Scale SEOQF with 1.000000e-01/1.000000e-01/1.000000e-01

 Standard Electronic Orientation quadrupole field applied
 Nucleus-field energy     =    -0.0000000051 hartrees
 ================ Generating on-the-fly SAD Guess ================
Attempting to make child job directory: /src/jdavis/qchem.scratch/qchem24895//Frg1/
Attempting to make child job directory: /src/jdavis/qchem.scratch/qchem24895//Frg2/
Attempting to make child job directory: /src/jdavis/qchem.scratch/qchem24895//Frg3/
Creating input file /src/jdavis/qchem.scratch/qchem24895/Frg1.input
using default PutDataFrgm: nothing
calling putenv with: QCSCRATCH=/src/jdavis/qchem.scratch/qchem24895/ 
Spawning Job For Fragment 0
Done Job For Fragment 0
calling putenv with: QCSCRATCH=/src/jdavis/qchem.scratch 
calling putenv with: QCTHREADS=1 
Creating input file /src/jdavis/qchem.scratch/qchem24895/Frg2.input
using default PutDataFrgm: nothing
calling putenv with: QCSCRATCH=/src/jdavis/qchem.scratch/qchem24895/ 
Spawning Job For Fragment 1
Done Job For Fragment 1
calling putenv with: QCSCRATCH=/src/jdavis/qchem.scratch 
calling putenv with: QCTHREADS=1 
Creating input file /src/jdavis/qchem.scratch/qchem24895/Frg3.input
using default PutDataFrgm: nothing
calling putenv with: QCSCRATCH=/src/jdavis/qchem.scratch/qchem24895/ 
Spawning Job For Fragment 2
Done Job For Fragment 2
calling putenv with: QCSCRATCH=/src/jdavis/qchem.scratch 
calling putenv with: QCTHREADS=1 
 Time for running child jobs:  CPU 1.77 s  wall 80.33 s
 ============= Method Specific SAD Guess Constructed =============
 Guess from on-the-fly superposition of atomic densities
 Warning: Energy on first SCF cycle will be non-variational
 A restricted Hartree-Fock SCF calculation will be
 performed using Pulay DIIS extrapolation
 SCF converges when DIIS error is below 1.0E-08
 using 10 threads for integral computing
 -------------------------------------------------------
 OpenMP Integral computing Module                
 Release: version 1.0, May 2013, Q-Chem Inc. Pittsburgh 
 -------------------------------------------------------
 ---------------------------------------
  Cycle       Energy         DIIS Error
 ---------------------------------------
    1    -153.5738502382      5.98E-02
    2    -153.2897420727      1.22E-02
    3    -153.3551671868      1.03E-02
    4    -153.4401752159      7.63E-04
    5    -153.4411094521      2.12E-04
    6    -153.4411833222      4.63E-05
    7    -153.4411886957      1.22E-05
    8    -153.4411892659      3.66E-06
    9    -153.4411893146      7.36E-07
   10    -153.4411893163      1.29E-07
   11    -153.4411893163      3.93E-08
   12    -153.4411893164      1.25E-08
   13    -153.4411893163      2.68E-09 Convergence criterion met
 ---------------------------------------
 SCF time:  CPU 15.20 s  wall 1.53 s
 SCF   energy in the final basis set = -153.44118932
 Total energy in the final basis set = -153.44118932
================================================================================
|                                                                              |
|                                 A D C  M A N                                 |
|                                                                              |
 ------------------------------------------------------------------------------ 
|                                                                              |
| Components:                                                                  |
|                                                                              |
| - libvmm - 1.3-trunk                                                         |
|   Authors:                                                                   |
|   Evgeny Epifanovsky, Ilya Kaliman                                           |
|                                                                              |
| - libtensor - 2.5-trunk                                                      |
|   Authors:                                                                   |
|   Evgeny Epifanovsky, Michael Wormit, Dmitry Zuev, Sam Manzer,               |
|   Ilya Kaliman                                                               |
|                                                                              |
| - libwfa - 1.1-trunk                                                         |
|   Authors:                                                                   |
|   Felix Plasser, Stefanie Mewes (Baeppler), Benjamin Thomitzni,              |
|   Michael Wormit, Feng Chen, Anna I. Krylov, Pavel Pokhilko                  |
|                                                                              |
| - libadc - 1.1-trunk                                                         |
|   Authors:                                                                   |
|   Michael Wormit, Adrian L. Dempwolff, Philipp H. P. Harbach,                |
|   Caroline Krauter, Dirk Rehn, Matthias Schneider, Jan Wenzel                |
|                                                                              |
| - adcman - 2.6-trunk                                                         |
|   Authors:                                                                   |
|   Michael Wormit, Adrian L. Dempwolff, Philipp H. P. Harbach,                |
|   Caroline Krauter, Daniel Lefrancois, Jan-Michael Mewes, Dirk Rehn,         |
|   Matthias Schneider, Jan Wenzel, Andreas Dreuw                              |
|                                                                              |
| Authors of earlier versions of ADCMAN:                                       |
| Andreas Dreuw, Jan Hendrik Starcke, Dirk Rehn, Michael Wormit                |
|                                                                              |
================================================================================

 
 Alpha MOs, Restricted
 -- Occupied --                  
-20.213 -11.049 -11.047  -0.930  -0.854  -0.598  -0.473  -0.384
  1 A1    2 A1    1 B1    3 A1    4 A1    2 B1    5 A1    6 A1                 
 -0.328  -0.271  -0.194  -0.130  -0.129
  3 B1    7 A1    1 B2    4 B1    2 B2                                         
 -- Virtual --                   
  0.151   0.157   0.172   0.175   0.179   0.189   0.263   0.304
  5 B1    8 A1    3 B2    9 A1    1 A2    6 B1   10 A1    2 A2                 
  0.327   0.331   0.345   0.351   0.383   0.387   0.396   0.452
 11 A1    7 B1    8 B1   12 A1    4 B2    9 B1   13 A1    5 B2                 
  0.471   0.481   0.518   0.524   0.551   0.577   0.683   0.690
  3 A2   10 B1   14 A1   15 A1   11 B1   16 A1   17 A1   12 B1                 
  0.730   0.915   1.009   1.056   1.082   1.109   1.114   1.163
 13 B1   18 A1   19 A1   20 A1   21 A1    6 B2   14 B1    4 A2                 
  1.189   1.205   1.219   1.241   1.291   1.325   1.334   1.339
 15 B1    7 B2   22 A1   16 B1    5 A2   23 A1   17 B1   24 A1                 
  1.370   1.469   1.483   1.494   1.565   1.646   1.704   1.719
  8 B2    9 B2    6 A2   18 B1   19 B1   25 A1   20 B1   10 B2                 
  1.861   1.927   1.995   2.047   2.127   2.130   2.136   2.212
 26 A1   21 B1   27 A1    7 A2   11 B2   28 A1   22 B1   12 B2                 
  2.213   2.308   2.360   2.393   2.436   2.514   2.562   2.604
 29 A1   30 A1    8 A2   13 B2   23 B1   24 B1   31 A1    9 A2                 
  2.760   2.767   2.847   3.011   3.036   3.098   3.448   3.562
 32 A1   25 B1   26 B1   33 A1   34 A1   35 A1   27 B1   28 B1                 
  3.922   3.945   3.970   4.089   4.541
 14 B2   10 A2   36 A1   29 B1   37 A1                                         
 
 Beta MOs, Restricted
 -- Occupied --                  
-20.213 -11.049 -11.047  -0.930  -0.854  -0.598  -0.473  -0.384
  1 A1    2 A1    1 B1    3 A1    4 A1    2 B1    5 A1    6 A1                 
 -0.328  -0.271  -0.194  -0.130  -0.129
  3 B1    7 A1    1 B2    4 B1    2 B2                                         
 -- Virtual --                   
  0.151   0.157   0.172   0.175   0.179   0.189   0.263   0.304
  5 B1    8 A1    3 B2    9 A1    1 A2    6 B1   10 A1    2 A2                 
  0.327   0.331   0.345   0.351   0.383   0.387   0.396   0.452
 11 A1    7 B1    8 B1   12 A1    4 B2    9 B1   13 A1    5 B2                 
  0.471   0.481   0.518   0.524   0.551   0.577   0.683   0.690
  3 A2   10 B1   14 A1   15 A1   11 B1   16 A1   17 A1   12 B1                 
  0.730   0.915   1.009   1.056   1.082   1.109   1.114   1.163
 13 B1   18 A1   19 A1   20 A1   21 A1    6 B2   14 B1    4 A2                 
  1.189   1.205   1.219   1.241   1.291   1.325   1.334   1.339
 15 B1    7 B2   22 A1   16 B1    5 A2   23 A1   17 B1   24 A1                 
  1.370   1.469   1.483   1.494   1.565   1.646   1.704   1.719
  8 B2    9 B2    6 A2   18 B1   19 B1   25 A1   20 B1   10 B2                 
  1.861   1.927   1.995   2.047   2.127   2.130   2.136   2.212
 26 A1   21 B1   27 A1    7 A2   11 B2   28 A1   22 B1   12 B2                 
  2.213   2.308   2.360   2.393   2.436   2.514   2.562   2.604
 29 A1   30 A1    8 A2   13 B2   23 B1   24 B1   31 A1    9 A2                 
  2.760   2.767   2.847   3.011   3.036   3.098   3.448   3.562
 32 A1   25 B1   26 B1   33 A1   34 A1   35 A1   27 B1   28 B1                 
  3.922   3.945   3.970   4.089   4.541
 14 B2   10 A2   36 A1   29 B1   37 A1                                         

--------------------------------------------------------------------------------
                                   HF Summary                                   
--------------------------------------------------------------------------------
  Energy:                                                 -153.4411893163 a.u.
  Dip. moment [a.u.]:                  [  -0.000000,   -0.000000,    2.080443]
  Total dipole [Debye]:                                               5.287961
  <r^2> [a.u.]:                        [  55.707614,   19.695678,  208.053486]
  Total <r^2> [a.u.]:                                               283.456778
--------------------------------------------------------------------------------

--------------------------------------------------------------------------------
                                 MP(2) Summary                                  
--------------------------------------------------------------------------------
  MP energy contribution:                                   -0.5282604674 a.u.
  Total energy:                                           -153.9694497837 a.u.
  Dip. moment [a.u.]:                  [   0.000000,   -0.000000,    2.149498]
  Total dipole [Debye]:                                               5.463479
  <r^2> [a.u.]:                        [  56.693075,   20.382388,  209.322952]
  Total <r^2> [a.u.]:                                               286.398414

  Density matrix analysis:
  ------------------------
  NOs
    Occupation of frontier NOs:
       0.0446   1.9357
    Number of electrons: 26.000000
    Number of unpaired electrons: n_u =  0.71513, n_u,nl =  0.08536
    NO participation ratio (PR_NO): 23.004938
  
  
  Mulliken Population Analysis
  Atom      Charge (e)              h+              e-           Del q
  --------------------------------------------------------------------
   1 C       -0.190064        0.094635       -0.097013       -0.002378
   2 C       -0.190064        0.094635       -0.097013       -0.002378
   3 H        0.181526        0.017209       -0.012832        0.004377
   4 H        0.181526        0.017209       -0.012832        0.004377
   5 H        0.016551        0.018198       -0.012129        0.006069
   6 H        0.016551        0.018198       -0.012129        0.006069
   7 O       -1.069995        0.278357       -0.277533        0.000823
   8 H        0.053969        0.015270       -0.032230       -0.016959
  --------------------------------------------------------------------
  Sum:       -1.000000        0.553710       -0.553710       -0.000000
  
  Multipole moment analysis of the density matrix
    Molecular charge:                      -1.000000
    Number of electrons:                   26.000000
      Center of electronic charge [Ang]: [ -0.000000,   0.000000,  -0.043749]
    Total nuclear charge:                  25.000000
      Center of nuclear charge [Ang]:    [  0.000000,   0.000000,  -0.000000]
    Dipole moment [D]:                     5.463477
      Cartesian components [D]:          [  0.000000,  -0.000000,   5.463477]
    RMS size of the density [Ang]:         1.755759
      Cartesian components [Ang]:        [  0.781411,   0.468535,   1.500854]
  
  Exciton analysis of the difference density matrix
    <r_h> [Ang]:                  [ -0.000000,  -0.000000,  -0.480454]
    <r_e> [Ang]:                  [ -0.000000,  -0.000000,  -0.546449]
    |<r_e - r_h>| [Ang]:            0.065995
    Hole size [Ang]:                1.955109
      Cartesian components [Ang]: [  0.878899,   0.743520,   1.580243]
    Electron size [Ang]:            2.289620
      Cartesian components [Ang]: [  1.127316,   0.948742,   1.752542]
--------------------------------------------------------------------------------
  Starting Davidson for singlet states of irrep B1 ... 
--------------------------------------------------------------------------------
   It NVec Conv  Avg. Norm  Max. Norm  Conv. states           Remark
--------------------------------------------------------------------------------
       100    0  1.558e-01  5.444e-01  0.2541 n n n n n n n n Guess.
    1  110    0  1.760e-02  8.074e-02  0.0814 n n n n n n n n 
    2  120    0  1.486e-02  1.023e-01  0.0801 n n n n n n n n 
    3  130    0  1.641e-02  1.563e-01  0.0801 n n n n n n n n 
    4  140    0  5.172e-03  4.810e-02  0.0801 n n n n n n n n 
    5  150    2  9.831e-04  9.166e-03  0.0801 n y y n n n n n 
    6  160    5  2.008e-04  1.903e-03  0.0801 y y y y y n n n 
    7  170    6  3.702e-05  3.497e-04  0.0801 y y y y y y n n 
    8  180    8  7.831e-06  7.412e-05  0.0801 y y y y y y y n 
    9  190    9  1.393e-06  1.319e-05  0.0801 y y y y y y y y 
   10  200   10  2.506e-07  2.373e-06  0.0801 y y y y y y y y Converged.
--------------------------------------------------------------------------------
  Davidson Summary: 
 ------------------------------------------------------------
  State  0: excitation energy =   0.0801 a.u.   (converged)
  State  1: excitation energy =   0.0933 a.u.   (converged)
  State  2: excitation energy =   0.0983 a.u.   (converged)
  State  3: excitation energy =   0.1327 a.u.   (converged)
  State  4: excitation energy =   0.1616 a.u.   (converged)
  State  5: excitation energy =   0.1743 a.u.   (converged)
  State  6: excitation energy =   0.2270 a.u.   (converged)
  State  7: excitation energy =   0.2352 a.u.   (converged)
  State  8: excitation energy =   0.2491 a.u.   (converged)
  State  9: excitation energy =   0.2506 a.u.   (converged)
 ------------------------------------------------------------


--------------------------------------------------------------------------------
                   State-averaged natural transition orbitals
--------------------------------------------------------------------------------
--------------------------------------------------------------------------------

--------------------------------------------------------------------------------
                             Excited State Summary
--------------------------------------------------------------------------------
--------------------------------------------------------------------------------

  Excited state 1 (singlet, B1)                                    [converged]
  ----------------------------------------------------------------------------
  Term symbol:  1 (1) B1                                    R^2 =  1.66571e-09

  Total energy:                                           -153.8893252722 a.u.
  Excitation energy:                                               2.180299 eV

  Osc. strength:                                                      0.007530
  Trans. dip. moment [a.u.]:           [   0.375463,   -0.000000,    0.000000]
  <i|r^2|0> [a.u.]:                    [  -0.000000,   -0.000000,   -0.000000]

  Dip. moment [a.u.]:                  [  -0.000000,   -0.000000,   -5.175759]
  Total dipole [Debye]:                                              13.155470
  <r^2> [a.u.]:                        [  71.758081,   34.150546,  246.444138]
  Total <r^2> [a.u.]:                                               352.352765

  V1^2 = 0.8684, V2^2 = 0.1316

  Important amplitudes:
      occ i      occ j       vir a       vir b          v   
    ---------------------------------------------------------
     4 (B1) A               8 (A1) A                  0.6197
     4 (B1) A               9 (A1) A                  0.1681
    ---------------------------------------------------------

  Density matrix analysis:
  ------------------------
  NOs
    Occupation of frontier NOs:
       0.9618   0.9974
    Number of electrons: 26.000000
    Number of unpaired electrons: n_u =  2.74821, n_u,nl =  2.11439
    NO participation ratio (PR_NO):  3.871844
  
  
  Mulliken Population Analysis
  Atom      Charge (e)              h+              e-           Del q
  --------------------------------------------------------------------
   1 C       -0.692624        0.038843       -0.541403       -0.502560
   2 C       -0.692624        0.038843       -0.541403       -0.502560
   3 H        0.123667       -0.001455       -0.056404       -0.057859
   4 H        0.123667       -0.001455       -0.056404       -0.057859
   5 H        0.038058        0.048537       -0.027030        0.021507
   6 H        0.038058        0.048537       -0.027030        0.021507
   7 O       -0.052488        1.403855       -0.386348        1.017507
   8 H        0.114285        0.129954       -0.069637        0.060317
  --------------------------------------------------------------------
  Sum:       -1.000000        1.705658       -1.705658        0.000000
  
  Multipole moment analysis of the density matrix
    Molecular charge:                      -1.000000
    Number of electrons:                   26.000000
      Center of electronic charge [Ang]: [  0.000000,   0.000000,   0.105342]
    Total nuclear charge:                  25.000000
      Center of nuclear charge [Ang]:    [  0.000000,   0.000000,  -0.000000]
    Dipole moment [D]:                     13.155467
      Cartesian components [D]:          [ -0.000000,  -0.000000, -13.155467]
    RMS size of the density [Ang]:         1.945214
      Cartesian components [Ang]:        [  0.879123,   0.606476,   1.625788]
  
  Exciton analysis of the difference density matrix
    <r_h> [Ang]:                  [ -0.000000,   0.000000,  -1.407934]
    <r_e> [Ang]:                  [  0.000000,   0.000000,   0.864713]
    |<r_e - r_h>| [Ang]:            2.272648
    Hole size [Ang]:                1.833191
      Cartesian components [Ang]: [  0.933490,   0.780570,   1.371093]
    Electron size [Ang]:            3.927248
      Cartesian components [Ang]: [  1.828858,   1.694017,   3.034611]

  Transition density matrix analysis:
  -----------------------------------
  
  CT numbers (Mulliken)
    omega =     0.8531
    <Phe> =    -0.0011
  
  Exciton analysis of the transition density matrix
    Trans. dipole moment [D]:             0.477166
      Cartesian components [D]:         [  0.477166,  -0.000000,   0.000000]
    <r_h> [Ang]:                        [ -0.000000,  -0.000000,  -1.719907]
    <r_e> [Ang]:                        [  0.000000,   0.000000,   2.263729]
    |<r_e - r_h>| [Ang]:                  3.983636
    Hole size [Ang]:                      1.146642
      Cartesian components [Ang]:       [  0.824676,   0.470203,   0.643121]
    Electron size [Ang]:                  4.396460
      Cartesian components [Ang]:       [  2.279394,   2.113557,   3.109035]
    RMS electron-hole separation [Ang]:   6.039198
      Cartesian components [Ang]:       [  2.420810,   2.165114,   5.091549]
    Covariance(r_h, r_e) [Ang^2]:         0.020546
    Correlation coefficient:              0.004076
    Center-of-mass size [Ang]:            2.274024
      Cartesian components [Ang]:       [  1.213583,   1.082671,   1.589410]

  Decomposition into state-averaged NTOs
    H- 0 -> L+ 5: -0.5788 ( 67.0%)
    H- 0 -> L+ 1: -0.1879 (  7.1%)
    H- 0 -> L+ 4:  0.1729 (  6.0%)
    H- 0 -> L+ 2:  0.1598 (  5.1%)
                   omega =  85.3%
  ----------------------------------------------------------------------------


  Excited state 2 (singlet, B1)                                    [converged]
  ----------------------------------------------------------------------------
  Term symbol:  2 (1) B1                                    R^2 =  9.53016e-10

  Total energy:                                           -153.8761699997 a.u.
  Excitation energy:                                               2.538272 eV

  Osc. strength:                                                      0.017942
  Trans. dip. moment [a.u.]:           [   0.537139,   -0.000000,    0.000000]
  <i|r^2|0> [a.u.]:                    [  -0.000000,   -0.000000,    0.000000]

  Dip. moment [a.u.]:                  [   0.000000,    0.000000,   -2.528183]
  Total dipole [Debye]:                                               6.426001
  <r^2> [a.u.]:                        [ 112.404592,   29.099951,  209.195756]
  Total <r^2> [a.u.]:                                               350.700299

  V1^2 = 0.8694, V2^2 = 0.1306

  Important amplitudes:
      occ i      occ j       vir a       vir b          v   
    ---------------------------------------------------------
     4 (B1) A               9 (A1) A                  0.6079
     4 (B1) A               8 (A1) A                 -0.1910
    ---------------------------------------------------------

  Density matrix analysis:
  ------------------------
  NOs
    Occupation of frontier NOs:
       0.9659   0.9923
    Number of electrons: 26.000000
    Number of unpaired electrons: n_u =  2.75707, n_u,nl =  2.11782
    NO participation ratio (PR_NO):  3.899521
  
  
  Mulliken Population Analysis
  Atom      Charge (e)              h+              e-           Del q
  --------------------------------------------------------------------
   1 C       -0.690232        0.037554       -0.537723       -0.500169
   2 C       -0.690232        0.037554       -0.537723       -0.500169
   3 H        0.149602        0.001937       -0.033861       -0.031924
   4 H        0.149602        0.001937       -0.033861       -0.031924
   5 H        0.061985        0.035784        0.009649        0.045434
   6 H        0.061985        0.035784        0.009649        0.045434
   7 O       -0.255081        1.392899       -0.577985        0.814914
   8 H        0.212371        0.137409        0.020994        0.158403
  --------------------------------------------------------------------
  Sum:       -1.000000        1.680860       -1.680860       -0.000000
  
  Multipole moment analysis of the density matrix
    Molecular charge:                      -1.000000
    Number of electrons:                   26.000000
      Center of electronic charge [Ang]: [ -0.000000,  -0.000000,   0.051456]
    Total nuclear charge:                  25.000000
      Center of nuclear charge [Ang]:    [  0.000000,   0.000000,  -0.000000]
    Dipole moment [D]:                     6.425999
      Cartesian components [D]:          [  0.000000,   0.000000,  -6.425999]
    RMS size of the density [Ang]:         1.942810
      Cartesian components [Ang]:        [  1.100288,   0.559836,   1.500153]
  
  Exciton analysis of the difference density matrix
    <r_h> [Ang]:                  [ -0.000000,   0.000000,  -1.469310]
    <r_e> [Ang]:                  [ -0.000000,  -0.000000,   0.003343]
    |<r_e - r_h>| [Ang]:            1.472652
    Hole size [Ang]:                1.788409
      Cartesian components [Ang]: [  0.947128,   0.786173,   1.297415]
    Electron size [Ang]:            4.008722
      Cartesian components [Ang]: [  3.190376,   1.438889,   1.954726]

  Transition density matrix analysis:
  -----------------------------------
  
  CT numbers (Mulliken)
    omega =     0.8542
    <Phe> =    -0.0005
  
  Exciton analysis of the transition density matrix
    Trans. dipole moment [D]:             0.682635
      Cartesian components [D]:         [  0.682635,  -0.000000,   0.000000]
    <r_h> [Ang]:                        [ -0.000000,  -0.000000,  -1.723046]
    <r_e> [Ang]:                        [ -0.000000,  -0.000000,   0.834855]
    |<r_e - r_h>| [Ang]:                  2.557900
    Hole size [Ang]:                      1.141608
      Cartesian components [Ang]:       [  0.823297,   0.472660,   0.634070]
    Electron size [Ang]:                  4.821255
      Cartesian components [Ang]:       [  4.074515,   1.748643,   1.893429]
    RMS electron-hole separation [Ang]:   5.571290
      Cartesian components [Ang]:       [  4.151418,   1.811101,   3.244213]
    Covariance(r_h, r_e) [Ang^2]:         0.025672
    Correlation coefficient:              0.004664
    Center-of-mass size [Ang]:            2.479875
      Cartesian components [Ang]:       [  2.081148,   0.905847,   0.999021]

  Decomposition into state-averaged NTOs
    H- 0 -> L+ 4:  0.5706 ( 65.1%)
    H- 0 -> L+ 5:  0.2455 ( 12.1%)
    H- 0 -> L+ 2:  0.1630 (  5.3%)
    H- 0 -> L+ 1: -0.1022 (  2.1%)
                   omega =  85.4%
  ----------------------------------------------------------------------------


  Excited state 3 (singlet, B1)                                    [converged]
  ----------------------------------------------------------------------------
  Term symbol:  3 (1) B1                                    R^2 =  3.94276e-10

  Total energy:                                           -153.8711489264 a.u.
  Excitation energy:                                               2.674902 eV

  Osc. strength:                                                      0.001265
  Trans. dip. moment [a.u.]:           [  -0.138937,   -0.000000,    0.000000]
  <i|r^2|0> [a.u.]:                    [  -0.000000,    0.000000,    0.000000]

  Dip. moment [a.u.]:                  [  -0.000000,   -0.000000,   -2.911832]
  Total dipole [Debye]:                                               7.401141
  <r^2> [a.u.]:                        [  88.659462,   50.348736,  209.047300]
  Total <r^2> [a.u.]:                                               348.055498

  V1^2 = 0.8690, V2^2 = 0.1310

  Important amplitudes:
      occ i      occ j       vir a       vir b          v   
    ---------------------------------------------------------
     2 (B2) A               1 (A2) A                  0.6397
     2 (B2) A               2 (A2) A                 -0.1365
    ---------------------------------------------------------

  Density matrix analysis:
  ------------------------
  NOs
    Occupation of frontier NOs:
       0.9663   0.9927
    Number of electrons: 26.000000
    Number of unpaired electrons: n_u =  2.75532, n_u,nl =  2.11723
    NO participation ratio (PR_NO):  3.891696
  
  
  Mulliken Population Analysis
  Atom      Charge (e)              h+              e-           Del q
  --------------------------------------------------------------------
   1 C       -0.682112        0.035541       -0.527589       -0.492048
   2 C       -0.682112        0.035541       -0.527589       -0.492048
   3 H        0.143796        0.003763       -0.041493       -0.037729
   4 H        0.143796        0.003763       -0.041493       -0.037729
   5 H        0.042835        0.027634       -0.001350        0.026284
   6 H        0.042835        0.027634       -0.001350        0.026284
   7 O       -0.173366        1.402395       -0.505765        0.896629
   8 H        0.164328        0.134057       -0.023697        0.110359
  --------------------------------------------------------------------
  Sum:       -1.000000        1.670326       -1.670326       -0.000000
  
  Multipole moment analysis of the density matrix
    Molecular charge:                      -1.000000
    Number of electrons:                   26.000000
      Center of electronic charge [Ang]: [  0.000000,   0.000000,   0.059264]
    Total nuclear charge:                  25.000000
      Center of nuclear charge [Ang]:    [  0.000000,   0.000000,  -0.000000]
    Dipole moment [D]:                     7.401139
      Cartesian components [D]:          [ -0.000000,  -0.000000,  -7.401139]
    RMS size of the density [Ang]:         1.935241
      Cartesian components [Ang]:        [  0.977185,   0.736391,   1.499332]
  
  Exciton analysis of the difference density matrix
    <r_h> [Ang]:                  [ -0.000000,  -0.000000,  -1.509595]
    <r_e> [Ang]:                  [  0.000000,   0.000000,   0.093889]
    |<r_e - r_h>| [Ang]:            1.603484
    Hole size [Ang]:                1.734429
      Cartesian components [Ang]: [  0.838527,   0.872460,   1.242550]
    Electron size [Ang]:            3.951589
      Cartesian components [Ang]: [  2.462166,   2.405206,   1.941076]

  Transition density matrix analysis:
  -----------------------------------
  
  CT numbers (Mulliken)
    omega =     0.8530
    <Phe> =     0.0000
  
  Exciton analysis of the transition density matrix
    Trans. dipole moment [D]:             0.176572
      Cartesian components [D]:         [ -0.176572,  -0.000000,   0.000000]
    <r_h> [Ang]:                        [ -0.000000,  -0.000000,  -1.742591]
    <r_e> [Ang]:                        [  0.000000,   0.000000,   1.025412]
    |<r_e - r_h>| [Ang]:                  2.768004
    Hole size [Ang]:                      1.097447
      Cartesian components [Ang]:       [  0.480026,   0.822528,   0.545356]
    Electron size [Ang]:                  4.699009
      Cartesian components [Ang]:       [  3.100662,   3.054931,   1.770307]
    RMS electron-hole separation [Ang]:   5.561443
      Cartesian components [Ang]:       [  3.137506,   3.161081,   3.330657]
    Covariance(r_h, r_e) [Ang^2]:         0.008636
    Correlation coefficient:              0.001675
    Center-of-mass size [Ang]:            2.413625
      Cartesian components [Ang]:       [  1.568846,   1.583183,   0.926198]

  Decomposition into state-averaged NTOs
    H- 2 -> L+ 0:  0.6477 ( 83.9%)
                   omega =  85.3%
  ----------------------------------------------------------------------------


  Excited state 4 (singlet, B1)                                    [converged]
  ----------------------------------------------------------------------------
  Term symbol:  4 (1) B1                                    R^2 =  7.52363e-09

  Total energy:                                           -153.8367084607 a.u.
  Excitation energy:                                               3.612075 eV

  Osc. strength:                                                      0.034323
  Trans. dip. moment [a.u.]:           [   0.622779,   -0.000000,    0.000000]
  <i|r^2|0> [a.u.]:                    [   0.000000,   -0.000000,   -0.000000]

  Dip. moment [a.u.]:                  [  -0.000000,   -0.000000,    0.067042]
  Total dipole [Debye]:                                               0.170404
  <r^2> [a.u.]:                        [  65.469052,   29.829836,  221.347073]
  Total <r^2> [a.u.]:                                               316.645961

  V1^2 = 0.8856, V2^2 = 0.1144

  Important amplitudes:
      occ i      occ j       vir a       vir b          v   
    ---------------------------------------------------------
     4 (B1) A              10 (A1) A                 -0.5241
     4 (B1) A              11 (A1) A                  0.3504
    ---------------------------------------------------------

  Density matrix analysis:
  ------------------------
  NOs
    Occupation of frontier NOs:
       0.9654   0.9927
    Number of electrons: 26.000000
    Number of unpaired electrons: n_u =  2.73313, n_u,nl =  2.10822
    NO participation ratio (PR_NO):  3.837502
  
  
  Mulliken Population Analysis
  Atom      Charge (e)              h+              e-           Del q
  --------------------------------------------------------------------
   1 C       -0.598495        0.032434       -0.440865       -0.408431
   2 C       -0.598495        0.032434       -0.440865       -0.408431
   3 H        0.127584       -0.000766       -0.053175       -0.053941
   4 H        0.127584       -0.000766       -0.053175       -0.053941
   5 H        0.048470        0.023635        0.008285        0.031919
   6 H        0.048470        0.023635        0.008285        0.031919
   7 O       -0.756600        1.311205       -0.997810        0.313395
   8 H        0.601480        0.162813        0.384698        0.547511
  --------------------------------------------------------------------
  Sum:       -1.000000        1.584624       -1.584624       -0.000000
  
  Multipole moment analysis of the density matrix
    Molecular charge:                      -1.000000
    Number of electrons:                   26.000000
      Center of electronic charge [Ang]: [  0.000000,   0.000000,  -0.001365]
    Total nuclear charge:                  25.000000
      Center of nuclear charge [Ang]:    [  0.000000,   0.000000,  -0.000000]
    Dipole moment [D]:                     0.170404
      Cartesian components [D]:          [ -0.000000,  -0.000000,   0.170404]
    RMS size of the density [Ang]:         1.846721
      Cartesian components [Ang]:        [  0.839716,   0.566813,   1.544014]
  
  Exciton analysis of the difference density matrix
    <r_h> [Ang]:                  [ -0.000000,  -0.000000,  -1.520299]
    <r_e> [Ang]:                  [  0.000000,   0.000000,  -0.824873]
    |<r_e - r_h>| [Ang]:            0.695426
    Hole size [Ang]:                1.699815
      Cartesian components [Ang]: [  0.913669,   0.749532,   1.221795]
    Electron size [Ang]:            3.140938
      Cartesian components [Ang]: [  1.544554,   1.493759,   2.290967]

  Transition density matrix analysis:
  -----------------------------------
  
  CT numbers (Mulliken)
    omega =     0.8683
    <Phe> =    -0.0077
  
  Exciton analysis of the transition density matrix
    Trans. dipole moment [D]:             0.791474
      Cartesian components [D]:         [  0.791474,  -0.000000,   0.000000]
    <r_h> [Ang]:                        [ -0.000000,  -0.000000,  -1.722963]
    <r_e> [Ang]:                        [  0.000000,   0.000000,  -0.611933]
    |<r_e - r_h>| [Ang]:                  1.111030
    Hole size [Ang]:                      1.136186
      Cartesian components [Ang]:       [  0.820581,   0.468491,   0.630937]
    Electron size [Ang]:                  3.715518
      Cartesian components [Ang]:       [  1.830183,   1.784802,   2.696291]
    RMS electron-hole separation [Ang]:   4.028055
      Cartesian components [Ang]:       [  2.001441,   1.844776,   2.969219]
    Covariance(r_h, r_e) [Ang^2]:         0.052577
    Correlation coefficient:              0.012455
    Center-of-mass size [Ang]:            1.949433
      Cartesian components [Ang]:       [  1.004998,   0.922876,   1.392324]

  Decomposition into state-averaged NTOs
    H- 0 -> L+ 1: -0.4508 ( 40.7%)
    H- 0 -> L+ 2:  0.3179 ( 20.2%)
    H- 0 -> L+ 4: -0.2471 ( 12.2%)
    H- 0 -> L+ 7: -0.2164 (  9.4%)
    H- 0 -> L+ 5:  0.1451 (  4.2%)
                   omega =  86.8%
  ----------------------------------------------------------------------------


  Excited state 5 (singlet, B1)                                    [converged]
  ----------------------------------------------------------------------------
  Term symbol:  5 (1) B1                                    R^2 =  4.27469e-09

  Total energy:                                           -153.8078701641 a.u.
  Excitation energy:                                               4.396805 eV

  Osc. strength:                                                      0.000891
  Trans. dip. moment [a.u.]:           [  -0.090965,   -0.000000,   -0.000000]
  <i|r^2|0> [a.u.]:                    [  -0.000000,    0.000000,   -0.000000]

  Dip. moment [a.u.]:                  [   0.000000,   -0.000000,   -2.886901]
  Total dipole [Debye]:                                               7.337773
  <r^2> [a.u.]:                        [  68.320119,   29.559740,  203.494847]
  Total <r^2> [a.u.]:                                               301.374706

  V1^2 = 0.8665, V2^2 = 0.1335

  Important amplitudes:
      occ i      occ j       vir a       vir b          v   
    ---------------------------------------------------------
     2 (B2) A               2 (A2) A                  0.6240
     2 (B2) A               3 (A2) A                  0.1461
    ---------------------------------------------------------

  Density matrix analysis:
  ------------------------
  NOs
    Occupation of frontier NOs:
       0.9640   0.9956
    Number of electrons: 26.000000
    Number of unpaired electrons: n_u =  2.71966, n_u,nl =  2.10101
    NO participation ratio (PR_NO):  3.797395
  
  
  Mulliken Population Analysis
  Atom      Charge (e)              h+              e-           Del q
  --------------------------------------------------------------------
   1 C       -0.605896        0.104000       -0.519832       -0.415832
   2 C       -0.605896        0.104000       -0.519832       -0.415832
   3 H        0.112623        0.007607       -0.076510       -0.068903
   4 H        0.112623        0.007607       -0.076510       -0.068903
   5 H       -0.002760        0.007642       -0.026953       -0.019311
   6 H       -0.002760        0.007642       -0.026953       -0.019311
   7 O       -0.158900        1.363075       -0.451980        0.911095
   8 H        0.150966        0.118011       -0.021014        0.096997
  --------------------------------------------------------------------
  Sum:       -1.000000        1.719585       -1.719585        0.000000
  
  Multipole moment analysis of the density matrix
    Molecular charge:                      -1.000000
    Number of electrons:                   26.000000
      Center of electronic charge [Ang]: [ -0.000000,   0.000000,   0.058757]
    Total nuclear charge:                  25.000000
      Center of nuclear charge [Ang]:    [  0.000000,   0.000000,  -0.000000]
    Dipole moment [D]:                     7.337771
      Cartesian components [D]:          [  0.000000,  -0.000000,  -7.337771]
    RMS size of the density [Ang]:         1.800681
      Cartesian components [Ang]:        [  0.857805,   0.564241,   1.479275]
  
  Exciton analysis of the difference density matrix
    <r_h> [Ang]:                  [ -0.000000,   0.000000,  -1.363440]
    <r_e> [Ang]:                  [ -0.000000,   0.000000,   0.186438]
    |<r_e - r_h>| [Ang]:            1.549879
    Hole size [Ang]:                1.717575
      Cartesian components [Ang]: [  0.799535,   0.835111,   1.270195]
    Electron size [Ang]:            2.685724
      Cartesian components [Ang]: [  1.591440,   1.480511,   1.577504]

  Transition density matrix analysis:
  -----------------------------------
  
  CT numbers (Mulliken)
    omega =     0.8396
    <Phe> =    -0.0010
  
  Exciton analysis of the transition density matrix
    Trans. dipole moment [D]:             0.115605
      Cartesian components [D]:         [ -0.115605,  -0.000000,  -0.000000]
    <r_h> [Ang]:                        [ -0.000000,  -0.000000,  -1.739183]
    <r_e> [Ang]:                        [  0.000000,   0.000000,   1.024191]
    |<r_e - r_h>| [Ang]:                  2.763374
    Hole size [Ang]:                      1.096794
      Cartesian components [Ang]:       [  0.476366,   0.820812,   0.549820]
    Electron size [Ang]:                  2.863387
      Cartesian components [Ang]:       [  1.914752,   1.837828,   1.074754]
    RMS electron-hole separation [Ang]:   4.126262
      Cartesian components [Ang]:       [  1.972500,   2.010450,   3.015522]
    Covariance(r_h, r_e) [Ang^2]:         0.006071
    Correlation coefficient:              0.001933
    Center-of-mass size [Ang]:            1.534119
      Cartesian components [Ang]:       [  0.986869,   1.007568,   0.603669]

  Decomposition into state-averaged NTOs
    H- 2 -> L+ 8: -0.6445 ( 83.1%)
                   omega =  84.0%
  ----------------------------------------------------------------------------


  Excited state 6 (singlet, B1)                                    [converged]
  ----------------------------------------------------------------------------
  Term symbol:  6 (1) B1                                    R^2 =  1.60166e-08

  Total energy:                                           -153.7951351042 a.u.
  Excitation energy:                                               4.743344 eV

  Osc. strength:                                                      0.006427
  Trans. dip. moment [a.u.]:           [  -0.235163,    0.000000,   -0.000000]
  <i|r^2|0> [a.u.]:                    [  -0.000000,    0.000000,   -0.000000]

  Dip. moment [a.u.]:                  [   0.000000,   -0.000000,    0.036803]
  Total dipole [Debye]:                                               0.093544
  <r^2> [a.u.]:                        [  67.543352,   30.511405,  224.744078]
  Total <r^2> [a.u.]:                                               322.798835

  V1^2 = 0.8868, V2^2 = 0.1132

  Important amplitudes:
      occ i      occ j       vir a       vir b          v   
    ---------------------------------------------------------
     4 (B1) A              11 (A1) A                 -0.5059
     4 (B1) A              10 (A1) A                 -0.3573
    ---------------------------------------------------------

  Density matrix analysis:
  ------------------------
  NOs
    Occupation of frontier NOs:
       0.9655   0.9955
    Number of electrons: 26.000000
    Number of unpaired electrons: n_u =  2.72862, n_u,nl =  2.10560
    NO participation ratio (PR_NO):  3.814840
  
  
  Mulliken Population Analysis
  Atom      Charge (e)              h+              e-           Del q
  --------------------------------------------------------------------
   1 C       -0.444892        0.042418       -0.297247       -0.254829
   2 C       -0.444892        0.042418       -0.297247       -0.254829
   3 H        0.208564        0.003150        0.023888        0.027039
   4 H        0.208564        0.003150        0.023888        0.027039
   5 H        0.152575        0.022736        0.113287        0.136023
   6 H        0.152575        0.022736        0.113287        0.136023
   7 O       -1.469722        1.271555       -1.671281       -0.399726
   8 H        0.637228        0.175330        0.407930        0.583260
  --------------------------------------------------------------------
  Sum:       -1.000000        1.583494       -1.583494        0.000000
  
  Multipole moment analysis of the density matrix
    Molecular charge:                      -1.000000
    Number of electrons:                   26.000000
      Center of electronic charge [Ang]: [ -0.000000,   0.000000,  -0.000749]
    Total nuclear charge:                  25.000000
      Center of nuclear charge [Ang]:    [  0.000000,   0.000000,  -0.000000]
    Dipole moment [D]:                     0.093544
      Cartesian components [D]:          [  0.000000,  -0.000000,   0.093544]
    RMS size of the density [Ang]:         1.864577
      Cartesian components [Ang]:        [  0.852915,   0.573252,   1.555817]
  
  Exciton analysis of the difference density matrix
    <r_h> [Ang]:                  [ -0.000000,   0.000000,  -1.508861]
    <r_e> [Ang]:                  [ -0.000000,   0.000000,  -0.802834]
    |<r_e - r_h>| [Ang]:            0.706027
    Hole size [Ang]:                1.716163
      Cartesian components [Ang]: [  0.927604,   0.762789,   1.225937]
    Electron size [Ang]:            3.318805
      Cartesian components [Ang]: [  1.667104,   1.540482,   2.421187]

  Transition density matrix analysis:
  -----------------------------------
  
  CT numbers (Mulliken)
    omega =     0.8689
    <Phe> =    -0.0049
  
  Exciton analysis of the transition density matrix
    Trans. dipole moment [D]:             0.298862
      Cartesian components [D]:         [ -0.298862,   0.000000,  -0.000000]
    <r_h> [Ang]:                        [ -0.000000,  -0.000000,  -1.727005]
    <r_e> [Ang]:                        [ -0.000000,   0.000000,  -0.610328]
    |<r_e - r_h>| [Ang]:                  1.116677
    Hole size [Ang]:                      1.130205
      Cartesian components [Ang]:       [  0.819952,   0.468011,   0.621296]
    Electron size [Ang]:                  3.939500
      Cartesian components [Ang]:       [  1.981808,   1.835550,   2.867552]
    RMS electron-hole separation [Ang]:   4.238099
      Cartesian components [Ang]:       [  2.140603,   1.893934,   3.129267]
    Covariance(r_h, r_e) [Ang^2]:         0.041256
    Correlation coefficient:              0.009266
    Center-of-mass size [Ang]:            2.054236
      Cartesian components [Ang]:       [  1.074429,   0.947308,   1.472445]

  Decomposition into state-averaged NTOs
    H- 0 -> L+ 1:  0.4367 ( 38.1%)
    H- 0 -> L+ 2:  0.4143 ( 34.3%)
    H- 0 -> L+ 7: -0.2600 ( 13.5%)
                   omega =  86.9%
  ----------------------------------------------------------------------------


  Excited state 7 (singlet, B1)                                    [converged]
  ----------------------------------------------------------------------------
  Term symbol:  7 (1) B1                                    R^2 =  2.73140e-07

  Total energy:                                           -153.7424410904 a.u.
  Excitation energy:                                               6.177221 eV

  Osc. strength:                                                      0.000525
  Trans. dip. moment [a.u.]:           [  -0.058898,   -0.000000,   -0.000000]
  <i|r^2|0> [a.u.]:                    [  -0.000000,    0.000000,   -0.000000]

  Dip. moment [a.u.]:                  [   0.000000,    0.000000,   -3.834998]
  Total dipole [Debye]:                                               9.747595
  <r^2> [a.u.]:                        [ 103.371197,   32.974639,  215.929675]
  Total <r^2> [a.u.]:                                               352.275511

  V1^2 = 0.8715, V2^2 = 0.1285

  Important amplitudes:
      occ i      occ j       vir a       vir b          v   
    ---------------------------------------------------------
     7 (A1) A               5 (B1) A                 -0.6075
     7 (A1) A               6 (B1) A                 -0.2422
    ---------------------------------------------------------

  Density matrix analysis:
  ------------------------
  NOs
    Occupation of frontier NOs:
       0.9812   0.9976
    Number of electrons: 26.000000
    Number of unpaired electrons: n_u =  2.80216, n_u,nl =  2.13039
    NO participation ratio (PR_NO):  3.940368
  
  
  Mulliken Population Analysis
  Atom      Charge (e)              h+              e-           Del q
  --------------------------------------------------------------------
   1 C       -0.659853        0.056705       -0.526495       -0.469790
   2 C       -0.659853        0.056705       -0.526495       -0.469790
   3 H        0.138449        0.006416       -0.049493       -0.043077
   4 H        0.138449        0.006416       -0.049493       -0.043077
   5 H        0.036020        0.045267       -0.025798        0.019469
   6 H        0.036020        0.045267       -0.025798        0.019469
   7 O       -0.359348        1.197968       -0.487321        0.710647
   8 H        0.330117        0.292572       -0.016423        0.276149
  --------------------------------------------------------------------
  Sum:       -1.000000        1.707316       -1.707316       -0.000000
  
  Multipole moment analysis of the density matrix
    Molecular charge:                      -1.000000
    Number of electrons:                   26.000000
      Center of electronic charge [Ang]: [ -0.000000,  -0.000000,   0.078054]
    Total nuclear charge:                  25.000000
      Center of nuclear charge [Ang]:    [  0.000000,   0.000000,  -0.000000]
    Dipole moment [D]:                     9.747593
      Cartesian components [D]:          [  0.000000,   0.000000,  -9.747593]
    RMS size of the density [Ang]:         1.946286
      Cartesian components [Ang]:        [  1.055150,   0.595943,   1.523004]
  
  Exciton analysis of the difference density matrix
    <r_h> [Ang]:                  [ -0.000000,  -0.000000,  -1.353742]
    <r_e> [Ang]:                  [ -0.000000,  -0.000000,   0.501133]
    |<r_e - r_h>| [Ang]:            1.854876
    Hole size [Ang]:                1.855577
      Cartesian components [Ang]: [  0.857375,   0.767832,   1.455509]
    Electron size [Ang]:            3.978643
      Cartesian components [Ang]: [  2.896738,   1.629388,   2.187145]

  Transition density matrix analysis:
  -----------------------------------
  
  CT numbers (Mulliken)
    omega =     0.8543
    <Phe> =     0.0000
  
  Exciton analysis of the transition density matrix
    Trans. dipole moment [D]:             0.074852
      Cartesian components [D]:         [ -0.074852,  -0.000000,  -0.000000]
    <r_h> [Ang]:                        [ -0.000000,   0.000000,  -1.689070]
    <r_e> [Ang]:                        [ -0.000000,  -0.000000,   1.619303]
    |<r_e - r_h>| [Ang]:                  3.308373
    Hole size [Ang]:                      1.171321
      Cartesian components [Ang]:       [  0.462808,   0.405690,   0.996603]
    Electron size [Ang]:                  4.658608
      Cartesian components [Ang]:       [  3.710286,   2.026053,   1.957426]
    RMS electron-hole separation [Ang]:   5.826759
      Cartesian components [Ang]:       [  3.735864,   2.066597,   3.965301]
    Covariance(r_h, r_e) [Ang^2]:         0.034418
    Correlation coefficient:              0.006307
    Center-of-mass size [Ang]:            2.405382
      Cartesian components [Ang]:       [  1.871105,   1.032972,   1.103538]

  Decomposition into state-averaged NTOs
    H- 1 -> L+ 6:  0.5271 ( 55.6%)
    H- 1 -> L+ 3: -0.3856 ( 29.7%)
                   omega =  85.4%
  ----------------------------------------------------------------------------


  Excited state 8 (singlet, B1)                                    [converged]
  ----------------------------------------------------------------------------
  Term symbol:  8 (1) B1                                    R^2 =  7.17736e-07

  Total energy:                                           -153.7342435577 a.u.
  Excitation energy:                                               6.400287 eV

  Osc. strength:                                                      0.001507
  Trans. dip. moment [a.u.]:           [   0.098038,    0.000000,    0.000000]
  <i|r^2|0> [a.u.]:                    [   0.000000,    0.000000,    0.000000]

  Dip. moment [a.u.]:                  [   0.000000,   -0.000000,   -4.538866]
  Total dipole [Debye]:                                              11.536649
  <r^2> [a.u.]:                        [  63.328560,   28.153572,  225.197843]
  Total <r^2> [a.u.]:                                               316.679975

  V1^2 = 0.8696, V2^2 = 0.1304

  Important amplitudes:
      occ i      occ j       vir a       vir b          v   
    ---------------------------------------------------------
     4 (B1) A              12 (A1) A                 -0.6115
     4 (B1) A              11 (A1) A                 -0.1807
    ---------------------------------------------------------

  Density matrix analysis:
  ------------------------
  NOs
    Occupation of frontier NOs:
       0.9663   0.9900
    Number of electrons: 26.000000
    Number of unpaired electrons: n_u =  2.75464, n_u,nl =  2.11555
    NO participation ratio (PR_NO):  3.901257
  
  
  Mulliken Population Analysis
  Atom      Charge (e)              h+              e-           Del q
  --------------------------------------------------------------------
   1 C       -0.798638        0.059938       -0.668512       -0.608574
   2 C       -0.798638        0.059938       -0.668512       -0.608574
   3 H        0.173715        0.000633       -0.008443       -0.007810
   4 H        0.173715        0.000633       -0.008443       -0.007810
   5 H        0.050605        0.040000       -0.005946        0.034054
   6 H        0.050605        0.040000       -0.005946        0.034054
   7 O       -0.006023        1.370157       -0.306185        1.063972
   8 H        0.154657        0.122840       -0.022151        0.100689
  --------------------------------------------------------------------
  Sum:       -1.000000        1.694137       -1.694137       -0.000000
  
  Multipole moment analysis of the density matrix
    Molecular charge:                      -1.000000
    Number of electrons:                   26.000000
      Center of electronic charge [Ang]: [ -0.000000,   0.000000,   0.092379]
    Total nuclear charge:                  25.000000
      Center of nuclear charge [Ang]:    [  0.000000,   0.000000,  -0.000000]
    Dipole moment [D]:                     11.536645
      Cartesian components [D]:          [  0.000000,  -0.000000, -11.536645]
    RMS size of the density [Ang]:         1.844509
      Cartesian components [Ang]:        [  0.825875,   0.550657,   1.554645]
  
  Exciton analysis of the difference density matrix
    <r_h> [Ang]:                  [ -0.000000,  -0.000000,  -1.371953]
    <r_e> [Ang]:                  [ -0.000000,   0.000000,   0.717211]
    |<r_e - r_h>| [Ang]:            2.089163
    Hole size [Ang]:                1.791367
      Cartesian components [Ang]: [  0.904555,   0.742774,   1.356121]
    Electron size [Ang]:            3.095509
      Cartesian components [Ang]: [  1.383841,   1.355077,   2.414732]

  Transition density matrix analysis:
  -----------------------------------
  
  CT numbers (Mulliken)
    omega =     0.8523
    <Phe> =    -0.0003
  
  Exciton analysis of the transition density matrix
    Trans. dipole moment [D]:             0.124593
      Cartesian components [D]:         [  0.124593,   0.000000,   0.000000]
    <r_h> [Ang]:                        [ -0.000000,  -0.000000,  -1.694619]
    <r_e> [Ang]:                        [ -0.000000,   0.000000,   2.006134]
    |<r_e - r_h>| [Ang]:                  3.700754
    Hole size [Ang]:                      1.178079
      Cartesian components [Ang]:       [  0.824443,   0.468642,   0.698954]
    Electron size [Ang]:                  3.185496
      Cartesian components [Ang]:       [  1.649608,   1.652645,   2.166782]
    RMS electron-hole separation [Ang]:   5.019383
      Cartesian components [Ang]:       [  1.840612,   1.717680,   4.342341]
    Covariance(r_h, r_e) [Ang^2]:         0.018313
    Correlation coefficient:              0.004880
    Center-of-mass size [Ang]:            1.700873
      Cartesian components [Ang]:       [  0.923847,   0.858966,   1.140900]

  Decomposition into state-averaged NTOs
    H- 0 -> L+ 7: -0.5524 ( 61.0%)
    H- 0 -> L+ 2: -0.3258 ( 21.2%)
    H- 0 -> L+ 5: -0.0787 (  1.2%)
    H- 0 -> L+ 4:  0.0781 (  1.2%)
                   omega =  85.2%
  ----------------------------------------------------------------------------


  Excited state 9 (singlet, B1)                                    [converged]
  ----------------------------------------------------------------------------
  Term symbol:  9 (1) B1                                    R^2 =  2.36012e-07

  Total energy:                                           -153.7203050260 a.u.
  Excitation energy:                                               6.779574 eV

  Osc. strength:                                                      0.116502
  Trans. dip. moment [a.u.]:           [  -0.837503,    0.000000,   -0.000000]
  <i|r^2|0> [a.u.]:                    [   0.000000,    0.000000,    0.000000]

  Dip. moment [a.u.]:                  [  -0.000000,   -0.000000,    2.017758]
  Total dipole [Debye]:                                               5.128630
  <r^2> [a.u.]:                        [  83.037438,   46.409902,  215.457245]
  Total <r^2> [a.u.]:                                               344.904584

  V1^2 = 0.9452, V2^2 = 0.0548

  Important amplitudes:
      occ i      occ j       vir a       vir b          v   
    ---------------------------------------------------------
     1 (B2) A               1 (A2) A                  0.6444
     1 (B2) A               2 (A2) A                 -0.2148
    ---------------------------------------------------------

  Density matrix analysis:
  ------------------------
  NOs
    Occupation of frontier NOs:
       0.9821   0.9965
    Number of electrons: 26.000000
    Number of unpaired electrons: n_u =  2.63634, n_u,nl =  2.07097
    NO participation ratio (PR_NO):  3.517274
  
  
  Mulliken Population Analysis
  Atom      Charge (e)              h+              e-           Del q
  --------------------------------------------------------------------
   1 C       -0.356824        0.534827       -0.701588       -0.166761
   2 C       -0.356824        0.534827       -0.701588       -0.166761
   3 H        0.249958        0.076229       -0.007797        0.068432
   4 H        0.249958        0.076229       -0.007797        0.068432
   5 H        0.110945        0.101225       -0.006831        0.094394
   6 H        0.110945        0.101225       -0.006831        0.094394
   7 O       -1.082299        0.053648       -0.065952       -0.012304
   8 H        0.074143        0.025176       -0.005002        0.020174
  --------------------------------------------------------------------
  Sum:       -1.000000        1.503387       -1.503387        0.000000
  
  Multipole moment analysis of the density matrix
    Molecular charge:                      -1.000000
    Number of electrons:                   26.000000
      Center of electronic charge [Ang]: [  0.000000,   0.000000,  -0.041067]
    Total nuclear charge:                  25.000000
      Center of nuclear charge [Ang]:    [  0.000000,   0.000000,  -0.000000]
    Dipole moment [D]:                     5.128629
      Cartesian components [D]:          [ -0.000000,  -0.000000,   5.128629]
    RMS size of the density [Ang]:         1.926927
      Cartesian components [Ang]:        [  0.945696,   0.707001,   1.522780]
  
  Exciton analysis of the difference density matrix
    <r_h> [Ang]:                  [ -0.000000,   0.000000,   0.858378]
    <r_e> [Ang]:                  [  0.000000,   0.000000,   0.904750]
    |<r_e - r_h>| [Ang]:            0.046371
    Hole size [Ang]:                1.825219
      Cartesian components [Ang]: [  1.070089,   0.912997,   1.163086]
    Electron size [Ang]:            3.761293
      Cartesian components [Ang]: [  2.460107,   2.383607,   1.553581]

  Transition density matrix analysis:
  -----------------------------------
  
  CT numbers (Mulliken)
    omega =     0.9167
    <Phe> =    -0.0225
  
  Exciton analysis of the transition density matrix
    Trans. dipole moment [D]:             1.064360
      Cartesian components [D]:         [ -1.064360,   0.000000,  -0.000000]
    <r_h> [Ang]:                        [  0.000000,   0.000000,   1.006307]
    <r_e> [Ang]:                        [  0.000000,   0.000000,   1.027366]
    |<r_e - r_h>| [Ang]:                  0.021060
    Hole size [Ang]:                      1.321318
      Cartesian components [Ang]:       [  0.768611,   0.887897,   0.605605]
    Electron size [Ang]:                  4.434475
      Cartesian components [Ang]:       [  2.924567,   2.878335,   1.681270]
    RMS electron-hole separation [Ang]:   4.621199
      Cartesian components [Ang]:       [  3.027557,   3.002918,   1.780973]
    Covariance(r_h, r_e) [Ang^2]:         0.027707
    Correlation coefficient:              0.004729
    Center-of-mass size [Ang]:            2.316564
      Cartesian components [Ang]:       [  1.510100,   1.510698,   0.896581]

  Decomposition into state-averaged NTOs
    H- 3 -> L+ 0: -0.6716 ( 90.2%)
                   omega =  91.7%
  ----------------------------------------------------------------------------


  Excited state 10 (singlet, B1)                                    [converged]
  ----------------------------------------------------------------------------
  Term symbol:  10 (1) B1                                   R^2 =  2.37318e-06

  Total energy:                                           -153.7188477281 a.u.
  Excitation energy:                                               6.819229 eV

  Osc. strength:                                                      0.000743
  Trans. dip. moment [a.u.]:           [   0.066689,   -0.000000,   -0.000000]
  <i|r^2|0> [a.u.]:                    [  -0.000000,   -0.000000,   -0.000000]

  Dip. moment [a.u.]:                  [   0.000000,    0.000000,   -1.872289]
  Total dipole [Debye]:                                               4.758886
  <r^2> [a.u.]:                        [  97.309551,   32.205345,  231.951295]
  Total <r^2> [a.u.]:                                               361.466191

  V1^2 = 0.8761, V2^2 = 0.1239

  Important amplitudes:
      occ i      occ j       vir a       vir b          v   
    ---------------------------------------------------------
     7 (A1) A               6 (B1) A                  0.6092
     7 (A1) A               5 (B1) A                 -0.2389
    ---------------------------------------------------------

  Density matrix analysis:
  ------------------------
  NOs
    Occupation of frontier NOs:
       0.9849   0.9967
    Number of electrons: 26.000000
    Number of unpaired electrons: n_u =  2.80010, n_u,nl =  2.12843
    NO participation ratio (PR_NO):  3.924789
  
  
  Mulliken Population Analysis
  Atom      Charge (e)              h+              e-           Del q
  --------------------------------------------------------------------
   1 C       -0.664737        0.048722       -0.523395       -0.474673
   2 C       -0.664737        0.048722       -0.523395       -0.474673
   3 H        0.126892        0.001560       -0.056194       -0.054634
   4 H        0.126892        0.001560       -0.056194       -0.054634
   5 H        0.035462        0.041072       -0.022161        0.018911
   6 H        0.035462        0.041072       -0.022161        0.018911
   7 O       -0.328570        1.202956       -0.461531        0.741425
   8 H        0.333335        0.295890       -0.016524        0.279366
  --------------------------------------------------------------------
  Sum:       -1.000000        1.681555       -1.681555        0.000000
  
  Multipole moment analysis of the density matrix
    Molecular charge:                      -1.000000
    Number of electrons:                   26.000000
      Center of electronic charge [Ang]: [ -0.000000,  -0.000000,   0.038107]
    Total nuclear charge:                  25.000000
      Center of nuclear charge [Ang]:    [  0.000000,   0.000000,  -0.000000]
    Dipole moment [D]:                     4.758884
      Cartesian components [D]:          [  0.000000,   0.000000,  -4.758884]
    RMS size of the density [Ang]:         1.972728
      Cartesian components [Ang]:        [  1.023746,   0.588950,   1.580107]
  
  Exciton analysis of the difference density matrix
    <r_h> [Ang]:                  [ -0.000000,   0.000000,  -1.374699]
    <r_e> [Ang]:                  [ -0.000000,  -0.000000,  -0.109062]
    |<r_e - r_h>| [Ang]:            1.265637
    Hole size [Ang]:                1.853908
      Cartesian components [Ang]: [  0.845994,   0.772082,   1.457793]
    Electron size [Ang]:            4.220886
      Cartesian components [Ang]: [  2.734876,   1.601556,   2.787714]

  Transition density matrix analysis:
  -----------------------------------
  
  CT numbers (Mulliken)
    omega =     0.8587
    <Phe> =    -0.0002
  
  Exciton analysis of the transition density matrix
    Trans. dipole moment [D]:             0.084753
      Cartesian components [D]:         [  0.084753,  -0.000000,  -0.000000]
    <r_h> [Ang]:                        [ -0.000000,   0.000000,  -1.699017]
    <r_e> [Ang]:                        [  0.000000,  -0.000000,   0.537140]
    |<r_e - r_h>| [Ang]:                  2.236157
    Hole size [Ang]:                      1.163519
      Cartesian components [Ang]:       [  0.455410,   0.409804,   0.989160]
    Electron size [Ang]:                  5.153420
      Cartesian components [Ang]:       [  3.468809,   1.971921,   3.261384]
    RMS electron-hole separation [Ang]:   5.726620
      Cartesian components [Ang]:       [  3.497206,   2.014075,   4.062909]
    Covariance(r_h, r_e) [Ang^2]:         0.058866
    Correlation coefficient:              0.009817
    Center-of-mass size [Ang]:            2.647133
      Cartesian components [Ang]:       [  1.749973,   1.007016,   1.711965]

  Decomposition into state-averaged NTOs
    H- 1 -> L+ 3:  0.5300 ( 56.2%)
    H- 1 -> L+ 6:  0.3818 ( 29.2%)
                   omega =  85.9%
  ----------------------------------------------------------------------------


--------------------------------------------------------------------------------
  Time of ADC calculation:  CPU 266.21 s  wall 71.82 s
================================================================================
 
 --------------------------------------------------------------
             Orbital Energies (a.u.) and Symmetries
 --------------------------------------------------------------
 
 Alpha MOs, Restricted
 -- Occupied --                  
-20.213 -11.049 -11.047  -0.930  -0.854  -0.598  -0.473  -0.384
  1 A1    2 A1    1 B1    3 A1    4 A1    2 B1    5 A1    6 A1                 
 -0.328  -0.271  -0.194  -0.130  -0.129
  3 B1    7 A1    1 B2    4 B1    2 B2                                         
 -- Virtual --                   
  0.151   0.157   0.172   0.175   0.179   0.189   0.263   0.304
  5 B1    8 A1    3 B2    9 A1    1 A2    6 B1   10 A1    2 A2                 
  0.327   0.331   0.345   0.351   0.383   0.387   0.396   0.452
 11 A1    7 B1    8 B1   12 A1    4 B2    9 B1   13 A1    5 B2                 
  0.471   0.481   0.518   0.524   0.551   0.577   0.683   0.690
  3 A2   10 B1   14 A1   15 A1   11 B1   16 A1   17 A1   12 B1                 
  0.730   0.915   1.009   1.056   1.082   1.109   1.114   1.163
 13 B1   18 A1   19 A1   20 A1   21 A1    6 B2   14 B1    4 A2                 
  1.189   1.205   1.219   1.241   1.291   1.325   1.334   1.339
 15 B1    7 B2   22 A1   16 B1    5 A2   23 A1   17 B1   24 A1                 
  1.370   1.469   1.483   1.494   1.565   1.646   1.704   1.719
  8 B2    9 B2    6 A2   18 B1   19 B1   25 A1   20 B1   10 B2                 
  1.861   1.927   1.995   2.047   2.127   2.130   2.136   2.212
 26 A1   21 B1   27 A1    7 A2   11 B2   28 A1   22 B1   12 B2                 
  2.213   2.308   2.360   2.393   2.436   2.514   2.562   2.604
 29 A1   30 A1    8 A2   13 B2   23 B1   24 B1   31 A1    9 A2                 
  2.760   2.767   2.847   3.011   3.036   3.098   3.448   3.562
 32 A1   25 B1   26 B1   33 A1   34 A1   35 A1   27 B1   28 B1                 
  3.922   3.945   3.970   4.089   4.541
 14 B2   10 A2   36 A1   29 B1   37 A1                                         
 
 Beta MOs, Restricted
 -- Occupied --                  
-20.213 -11.049 -11.047  -0.930  -0.854  -0.598  -0.473  -0.384
  1 A1    2 A1    1 B1    3 A1    4 A1    2 B1    5 A1    6 A1                 
 -0.328  -0.271  -0.194  -0.130  -0.129
  3 B1    7 A1    1 B2    4 B1    2 B2                                         
 -- Virtual --                   
  0.151   0.157   0.172   0.175   0.179   0.189   0.263   0.304
  5 B1    8 A1    3 B2    9 A1    1 A2    6 B1   10 A1    2 A2                 
  0.327   0.331   0.345   0.351   0.383   0.387   0.396   0.452
 11 A1    7 B1    8 B1   12 A1    4 B2    9 B1   13 A1    5 B2                 
  0.471   0.481   0.518   0.524   0.551   0.577   0.683   0.690
  3 A2   10 B1   14 A1   15 A1   11 B1   16 A1   17 A1   12 B1                 
  0.730   0.915   1.009   1.056   1.082   1.109   1.114   1.163
 13 B1   18 A1   19 A1   20 A1   21 A1    6 B2   14 B1    4 A2                 
  1.189   1.205   1.219   1.241   1.291   1.325   1.334   1.339
 15 B1    7 B2   22 A1   16 B1    5 A2   23 A1   17 B1   24 A1                 
  1.370   1.469   1.483   1.494   1.565   1.646   1.704   1.719
  8 B2    9 B2    6 A2   18 B1   19 B1   25 A1   20 B1   10 B2                 
  1.861   1.927   1.995   2.047   2.127   2.130   2.136   2.212
 26 A1   21 B1   27 A1    7 A2   11 B2   28 A1   22 B1   12 B2                 
  2.213   2.308   2.360   2.393   2.436   2.514   2.562   2.604
 29 A1   30 A1    8 A2   13 B2   23 B1   24 B1   31 A1    9 A2                 
  2.760   2.767   2.847   3.011   3.036   3.098   3.448   3.562
 32 A1   25 B1   26 B1   33 A1   34 A1   35 A1   27 B1   28 B1                 
  3.922   3.945   3.970   4.089   4.541
 14 B2   10 A2   36 A1   29 B1   37 A1                                         
 --------------------------------------------------------------
 
          Ground-State Mulliken Net Atomic Charges

     Atom                 Charge (a.u.)
  ----------------------------------------
      1 C                    -0.187686
      2 C                    -0.187686
      3 H                     0.177149
      4 H                     0.177149
      5 H                     0.010482
      6 H                     0.010482
      7 O                    -1.070819
      8 H                     0.070928
  ----------------------------------------
  Sum of atomic charges =    -1.000000

 -----------------------------------------------------------------
                    Cartesian Multipole Moments
 -----------------------------------------------------------------
    Charge (ESU x 10^10)
                -4.8032
    Dipole Moment (Debye)
         X      -0.0000      Y      -0.0000      Z       5.2880
       Tot       5.2880
    Quadrupole Moments (Debye-Ang)
        XX     -23.6660     XY       0.0000     YY     -26.4914
        XZ       0.0000     YZ      -0.0000     ZZ     -32.8846
    Octopole Moments (Debye-Ang^2)
       XXX      -0.0000    XXY       0.0000    XYY      -0.0000
       YYY      -0.0000    XXZ       1.0691    XYZ      -0.0000
       YYZ      -0.0651    XZZ      -0.0000    YZZ      -0.0000
       ZZZ       6.3990
    Hexadecapole Moments (Debye-Ang^3)
      XXXX     -87.8899   XXXY       0.0000   XXYY     -21.7240
      XYYY       0.0000   YYYY     -39.7293   XXXZ      -0.0000
      XXYZ       0.0000   XYYZ      -0.0000   YYYZ      -0.0000
      XXZZ     -70.5509   XYZZ       0.0000   YYZZ     -65.2994
      XZZZ      -0.0000   YZZZ      -0.0000   ZZZZ    -292.6707
 -----------------------------------------------------------------
 Total job time:  180.44s(wall), 315.21s(cpu) 
 Wed Mar  2 17:14:01 2022

        *************************************************************
        *                                                           *
        *  Thank you very much for using Q-Chem.  Have a nice day.  *
        *                                                           *
        *************************************************************


