/src/tsommerfeld/qchem/exe/qcprog.exe .input1.824242.26063.qcin.1 /src/jdavis/qchem.scratch/qchem26063/

                  Welcome to Q-Chem
     A Quantum Leap Into The Future Of Chemistry


 Q-Chem 5.4 (devel), Q-Chem, Inc., Pleasanton, CA (2021)

 E. Epifanovsky,  A. T. B. Gilbert,  Xintian Feng,  Joonho Lee,  Yuezhi Mao,  
 N. Mardirossian,  P. Pokhilko,  A. White,  M. Wormit,  M. P. Coons,  
 A. L. Dempwolff,  Zhengting Gan,  D. Hait,  P. R. Horn,  L. D. Jacobson,  
 I. Kaliman,  J. Kussmann,  A. W. Lange,  Ka Un Lao,  D. S. Levine,  Jie Liu,  
 S. C. McKenzie,  A. F. Morrison,  K. Nanda,  F. Plasser,  D. R. Rehn,  
 M. L. Vidal,  Zhi-Qiang You,  Ying Zhu,  B. Alam,  B. Albrecht,  
 A. Aldossary,  E. Alguire,  J. H. Andersen,  D. Barton,  K. Begam,  A. Behn,  
 Y. A. Bernard,  E. J. Berquist,  H. Burton,  A. Carreras,  K. Carter-Fenk,  
 R. Chakraborty,  A. D. Chien,  K. D. Closser,  V. Cofer-Shabica,  
 S. Dasgupta,  Jia Deng,  M. de Wergifosse,  M. Diedenhofen,  Hainam Do,  
 S. Ehlert,  Po-Tung Fang,  S. Fatehi,  Qingguo Feng,  T. Friedhoff,  
 J. Gayvert,  Qinghui Ge,  G. Gidofalvi,  M. Goldey,  J. Gomes,  
 C. Gonzalez-Espinoza,  S. Gulania,  A. Gunina,  M. W. D. Hanson-Heine,  
 P. H. P. Harbach,  A. W. Hauser,  M. F. Herbst,  M. Hernandez Vera,  
 M. Hodecker,  Z. C. Holden,  S. Houck,  Xunkun Huang,  Kerwin Hui,  
 B. C. Huynh,  M. Ivanov,  Hyunjun Ji,  Hanjie Jiang,  B. Kaduk,  S. Kaehler,  
 K. Khistyaev,  Jaehoon Kim,  P. Klunzinger,  Z. Koczor-Benda,  
 Joong Hoon Koh,  D. Kosenkov,  L. Koulias,  T. Kowalczyk,  C. M. Krauter,  
 K. Kue,  A. Kunitsa,  T. Kus,  A. Landau,  K. V. Lawler,  D. Lefrancois,  
 S. Lehtola,  Rain Li,  Yi-Pei Li,  Jiashu Liang,  M. Liebenthal,  
 Hung-Hsuan Lin,  You-Sheng Lin,  Fenglai Liu,  Kuan-Yu Liu,  
 M. Loipersberger,  A. Luenser,  A. Manjanath,  P. Manohar,  E. Mansoor,  
 S. F. Manzer,  Shan-Ping Mao,  A. V. Marenich,  T. Markovich,  S. Mason,  
 S. A. Maurer,  P. F. McLaughlin,  M. F. S. J. Menger,  J.-M. Mewes,  
 S. A. Mewes,  P. Morgante,  J. W. Mullinax,  K. J. Oosterbaan,  G. Paran,  
 Alexander C. Paul,  Suranjan K. Paul,  F. Pavosevic,  Zheng Pei,  S. Prager,  
 E. I. Proynov,  E. Ramos,  B. Rana,  A. E. Rask,  A. Rettig,  R. M. Richard,  
 F. Rob,  E. Rossomme,  T. Scheele,  M. Scheurer,  M. Schneider,  
 N. Sergueev,  S. M. Sharada,  W. Skomorowski,  D. W. Small,  C. J. Stein,  
 Yu-Chuan Su,  E. J. Sundstrom,  Zhen Tao,  J. Thirman,  T. Tsuchimochi,  
 N. M. Tubman,  S. P. Veccham,  O. Vydrov,  J. Wenzel,  J. Witte,  A. Yamada,  
 Kun Yao,  S. Yeganeh,  S. R. Yost,  A. Zech,  Igor Ying Zhang,  Xing Zhang,  
 Yu Zhang,  D. Zuev,  A. Aspuru-Guzik,  A. T. Bell,  N. A. Besley,  
 K. B. Bravaya,  B. R. Brooks,  D. Casanova,  Jeng-Da Chai,  S. Coriani,  
 C. J. Cramer,  A. E. DePrince, III,  R. A. DiStasio Jr.,  A. Dreuw,  
 B. D. Dunietz,  T. R. Furlani,  W. A. Goddard III,  S. Grimme,  
 S. Hammes-Schiffer,  T. Head-Gordon,  W. J. Hehre,  Chao-Ping Hsu,  
 T.-C. Jagau,  Yousung Jung,  A. Klamt,  Jing Kong,  D. S. Lambrecht,  
 WanZhen Liang,  N. J. Mayhall,  C. W. McCurdy,  J. B. Neaton,  
 C. Ochsenfeld,  J. A. Parkhill,  R. Peverati,  V. A. Rassolov,  Yihan Shao,  
 L. V. Slipchenko,  T. Stauch,  R. P. Steele,  J. E. Subotnik,  
 A. J. W. Thom,  A. Tkatchenko,  D. G. Truhlar,  T. Van Voorhis,  
 T. A. Wesolowski,  K. B. Whaley,  H. L. Woodcock III,  P. M. Zimmerman,  
 S. Faraji,  P. M. W. Gill,  M. Head-Gordon,  J. M. Herbert,  A. I. Krylov

 Additional authors for Version 5.4.1: 
 S. Kotaru,  Shaozhi Li,  Xiangyuan Li,  F. Matz,  A. Molle,  Haisheng Ren,  
 Yingli Su,  Hung-Yi Tsai,  C. Utku,  Fang Wang

 Contributors to earlier versions of Q-Chem not listed above: 
 R. D. Adamson,  B. Austin,  R. Baer,  J. Baker,  G. J. O. Beran,  
 K. Brandhorst,  S. T. Brown,  E. F. C. Byrd,  A. K. Chakraborty,  
 G. K. L. Chan,  Chun-Min Chang,  Yunqing Chen,  C.-L. Cheng,  
 Siu Hung Chien,  D. M. Chipman,  D. L. Crittenden,  H. Dachsel,  
 R. J. Doerksen,  A. D. Dutoi,  R. G. Edgar,  J. Fosso-Tande,  
 L. Fusti-Molnar,  D. Ghosh,  A. Ghysels,  A. Golubeva-Zadorozhnaya,  
 J. Gonthier,  M. S. Gordon,  S. R. Gwaltney,  G. Hawkins,  J. E. Herr,  
 A. Heyden,  S. Hirata,  E. G. Hohenstein,  G. Kedziora,  F. J. Keil,  
 C. Kelley,  Jihan Kim,  R. A. King,  R. Z. Khaliullin,  P. P. Korambath,  
 W. Kurlancheek,  A. Laurent,  A. M. Lee,  M. S. Lee,  S. V. Levchenko,  
 Ching Yeh Lin,  D. Liotard,  E. Livshits,  R. C. Lochan,  I. Lotan,  
 L. A. Martinez-Martinez,  P. E. Maslen,  N. Nair,  D. P. O'Neill,  
 D. Neuhauser,  E. Neuscamman,  C. M. Oana,  R. Olivares-Amaya,  R. Olson,  
 T. M. Perrine,  B. Peters,  P. A. Pieniazek,  A. Prociuk,  Y. M. Rhee,  
 J. Ritchie,  M. A. Rohrdanz,  E. Rosta,  N. J. Russ,  H. F. Schaefer III,  
 M. W. Schmidt,  N. E. Schultz,  S. Sharma,  N. Shenvi,  C. D. Sherrill,  
 A. C. Simmonett,  A. Sodt,  T. Stein,  D. Stuck,  K. S. Thanthiriwatte,  
 V. Vanovschi,  L. Vogt,  Tao Wang,  A. Warshel,  M. A. Watson,  
 C. F. Williams,  Q. Wu,  X. Xu,  Jun Yang,  W. Zhang,  Yan Zhao

 Please cite Q-Chem as follows:
 Y. Shao et al., Mol. Phys. 113, 184-215 (2015)
 DOI: 10.1080/00268976.2014.952696

 Q-Chem 5.4.1 for Intel X86 EM64T Linux

 Parts of Q-Chem use Armadillo 9.900.5 (Nocturnal Misbehaviour).
 http://arma.sourceforge.net/

 Q-Chem begins on Wed Mar  2 17:56:06 2022  

 Host: node01
0

     Scratch files written to /src/jdavis/qchem.scratch/qchem26063//
 Processing $rem in /src/tsommerfeld/qchem/config/preferences:
 Processing $rem in /home/jdavis/.qchemrc:

 Checking the input file for inconsistencies... 	...done.

--------------------------------------------------------------
User input:
--------------------------------------------------------------
$molecule
-1 1
C        -0.6645000000    0.0000000000    1.1619088658
C         0.6645000000    0.0000000000    1.1619088658
H        -1.1590800000    0.0000000000    0.1995598658
H         1.1590800000    0.0000000000    0.1995598658
H        -1.1590800000    0.0000000000    2.1242568658
H         1.1590800000    0.0000000000    2.1242568658
O         0.0000000000    0.0000000000   -1.5841414040
H         0.0000000000    0.0000000000   -2.5471307683
$end
$rem
   METHOD adc(2)
   BASIS gen
   PURECART 11
   EE_STATES [0,0,10,0]
   scf_convergence 8
   ADC_DAVIDSON_MAXITER 120
   ADC_DAVIDSON_MAXSUBSPACE 200
   adc_nguess_singles 100
   THRESH 14
   S2THRESH 14
   adc_davidson_conv 5
   adc_davidson_thresh 14
   THREADS 10
   MEM_TOTAL 95000
   STATE_ANALYSIS TRUE
$end
$basis
C 1
S   9   1.00
      6.665000D+03           6.920000D-04
      1.000000D+03           5.329000D-03
      2.280000D+02           2.707700D-02
      6.471000D+01           1.017180D-01
      2.106000D+01           2.747400D-01
      7.495000D+00           4.485640D-01
      2.797000D+00           2.850740D-01
      5.215000D-01           1.520400D-02
      1.596000D-01          -3.191000D-03
S   9   1.00
      6.665000D+03          -1.460000D-04
      1.000000D+03          -1.154000D-03
      2.280000D+02          -5.725000D-03
      6.471000D+01          -2.331200D-02
      2.106000D+01          -6.395500D-02
      7.495000D+00          -1.499810D-01
      2.797000D+00          -1.272620D-01
      5.215000D-01           5.445290D-01
      1.596000D-01           5.804960D-01
S   1   1.00
      1.596000D-01           1.000000D+00
S   1   1.00
      0.0469000              1.0000000
P   4   1.00
      9.439000D+00           3.810900D-02
      2.002000D+00           2.094800D-01
      5.456000D-01           5.085570D-01
      1.517000D-01           4.688420D-01
P   1   1.00
      1.517000D-01           1.000000D+00
P   1   1.00
      0.0790679      1.0000000
P   1   1.00
      0.0395339      1.0000000
D   1   1.00
      5.500000D-01           1.0000000
****
C 2
S   9   1.00
      6.665000D+03           6.920000D-04
      1.000000D+03           5.329000D-03
      2.280000D+02           2.707700D-02
      6.471000D+01           1.017180D-01
      2.106000D+01           2.747400D-01
      7.495000D+00           4.485640D-01
      2.797000D+00           2.850740D-01
      5.215000D-01           1.520400D-02
      1.596000D-01          -3.191000D-03
S   9   1.00
      6.665000D+03          -1.460000D-04
      1.000000D+03          -1.154000D-03
      2.280000D+02          -5.725000D-03
      6.471000D+01          -2.331200D-02
      2.106000D+01          -6.395500D-02
      7.495000D+00          -1.499810D-01
      2.797000D+00          -1.272620D-01
      5.215000D-01           5.445290D-01
      1.596000D-01           5.804960D-01
S   1   1.00
      1.596000D-01           1.000000D+00
S   1   1.00
      0.0469000              1.0000000
P   4   1.00
      9.439000D+00           3.810900D-02
      2.002000D+00           2.094800D-01
      5.456000D-01           5.085570D-01
      1.517000D-01           4.688420D-01
P   1   1.00
      1.517000D-01           1.000000D+00
P   1   1.00
      0.0790679      1.0000000
P   1   1.00
      0.0395339      1.0000000
D   1   1.00
      5.500000D-01           1.0000000
****
H 3
cc-pVDZ
****
H 4
cc-pVDZ
****
H 5
cc-pVDZ
****
H 6
cc-pVDZ
****
O 7
aug-cc-pVDZ
****
H 8
cc-pVDZ
****
$end
--------------------------------------------------------------
 ----------------------------------------------------------------
             Standard Nuclear Orientation (Angstroms)
    I     Atom           X                Y                Z
 ----------------------------------------------------------------
    1      C      -0.6645000000    -0.0000000000     1.0270977517
    2      C       0.6645000000     0.0000000000     1.0270977517
    3      H      -1.1590800000    -0.0000000000     0.0647487517
    4      H       1.1590800000     0.0000000000     0.0647487517
    5      H      -1.1590800000    -0.0000000000     1.9894457517
    6      H       1.1590800000     0.0000000000     1.9894457517
    7      O       0.0000000000    -0.0000000000    -1.7189525181
    8      H       0.0000000000    -0.0000000000    -2.6819418824
 ----------------------------------------------------------------
 Molecular Point Group                 C2v   NOp =  4
 Largest Abelian Subgroup              C2v   NOp =  4
 Nuclear Repulsion Energy =          64.38561153 hartrees
 There are       13 alpha and       13 beta electrons
 Requested basis set is non-standard
 There are 42 shells and 90 basis functions
 Total memory of 95000 MB is distributed as follows: 
   MEM_STATIC is set to 192 MB
   QALLOC/CCMAN JOB total memory use is  94808 MB
 Warning: actual memory use might exceed 95000 MB

 Total QAlloc Memory Limit  95000 MB
 Mega-Array Size       188 MB
 MEM_STATIC part       192 MB

                       Distance Matrix (Angstroms)
             C (  1)   C (  2)   H (  3)   H (  4)   H (  5)   H (  6)
   C (  2)  1.329000
   H (  3)  1.082000  2.061931
   H (  4)  2.061931  1.082000  2.318160
   H (  5)  1.082000  2.061931  1.924697  3.013026
   H (  6)  2.061931  1.082000  3.013026  1.924697  2.318160
   O (  7)  2.825306  2.825306  2.127218  2.127218  3.885316  3.885316
   H (  8)  3.768094  3.768094  2.981237  2.981237  4.813037  4.813037
             O (  7)
   H (  8)  0.962989
 
 A cutoff of  1.0D-14 yielded    903 shell pairs
 There are      4183 function pairs (      4573 Cartesian)
 Smallest overlap matrix eigenvalue = 2.07E-04

 Scale SEOQF with 1.000000e-01/1.000000e-01/1.000000e-01

 Standard Electronic Orientation quadrupole field applied
 Nucleus-field energy     =    -0.0000000051 hartrees
 ================ Generating on-the-fly SAD Guess ================
Attempting to make child job directory: /src/jdavis/qchem.scratch/qchem26063//Frg1/
Attempting to make child job directory: /src/jdavis/qchem.scratch/qchem26063//Frg2/
Attempting to make child job directory: /src/jdavis/qchem.scratch/qchem26063//Frg3/
Creating input file /src/jdavis/qchem.scratch/qchem26063/Frg1.input
using default PutDataFrgm: nothing
calling putenv with: QCSCRATCH=/src/jdavis/qchem.scratch/qchem26063/ 
Spawning Job For Fragment 0
Done Job For Fragment 0
calling putenv with: QCSCRATCH=/src/jdavis/qchem.scratch 
calling putenv with: QCTHREADS=1 
Creating input file /src/jdavis/qchem.scratch/qchem26063/Frg2.input
using default PutDataFrgm: nothing
calling putenv with: QCSCRATCH=/src/jdavis/qchem.scratch/qchem26063/ 
Spawning Job For Fragment 1
Done Job For Fragment 1
calling putenv with: QCSCRATCH=/src/jdavis/qchem.scratch 
calling putenv with: QCTHREADS=1 
Creating input file /src/jdavis/qchem.scratch/qchem26063/Frg3.input
using default PutDataFrgm: nothing
calling putenv with: QCSCRATCH=/src/jdavis/qchem.scratch/qchem26063/ 
Spawning Job For Fragment 2
Done Job For Fragment 2
calling putenv with: QCSCRATCH=/src/jdavis/qchem.scratch 
calling putenv with: QCTHREADS=1 
 Time for running child jobs:  CPU 1.77 s  wall 80.43 s
 ============= Method Specific SAD Guess Constructed =============
 Guess from on-the-fly superposition of atomic densities
 Warning: Energy on first SCF cycle will be non-variational
 A restricted Hartree-Fock SCF calculation will be
 performed using Pulay DIIS extrapolation
 SCF converges when DIIS error is below 1.0E-08
 using 10 threads for integral computing
 -------------------------------------------------------
 OpenMP Integral computing Module                
 Release: version 1.0, May 2013, Q-Chem Inc. Pittsburgh 
 -------------------------------------------------------
 ---------------------------------------
  Cycle       Energy         DIIS Error
 ---------------------------------------
    1    -153.5749429812      5.98E-02
    2    -153.2899165725      1.22E-02
    3    -153.3565983744      1.02E-02
    4    -153.4403858006      7.53E-04
    5    -153.4413028331      2.11E-04
    6    -153.4413756558      4.60E-05
    7    -153.4413809466      1.20E-05
    8    -153.4413815035      3.62E-06
    9    -153.4413815517      7.48E-07
   10    -153.4413815533      1.28E-07
   11    -153.4413815534      3.49E-08
   12    -153.4413815534      1.02E-08
   13    -153.4413815534      2.12E-09 Convergence criterion met
 ---------------------------------------
 SCF time:  CPU 15.04 s  wall 1.51 s
 SCF   energy in the final basis set = -153.44138155
 Total energy in the final basis set = -153.44138155
================================================================================
|                                                                              |
|                                 A D C  M A N                                 |
|                                                                              |
 ------------------------------------------------------------------------------ 
|                                                                              |
| Components:                                                                  |
|                                                                              |
| - libvmm - 1.3-trunk                                                         |
|   Authors:                                                                   |
|   Evgeny Epifanovsky, Ilya Kaliman                                           |
|                                                                              |
| - libtensor - 2.5-trunk                                                      |
|   Authors:                                                                   |
|   Evgeny Epifanovsky, Michael Wormit, Dmitry Zuev, Sam Manzer,               |
|   Ilya Kaliman                                                               |
|                                                                              |
| - libwfa - 1.1-trunk                                                         |
|   Authors:                                                                   |
|   Felix Plasser, Stefanie Mewes (Baeppler), Benjamin Thomitzni,              |
|   Michael Wormit, Feng Chen, Anna I. Krylov, Pavel Pokhilko                  |
|                                                                              |
| - libadc - 1.1-trunk                                                         |
|   Authors:                                                                   |
|   Michael Wormit, Adrian L. Dempwolff, Philipp H. P. Harbach,                |
|   Caroline Krauter, Dirk Rehn, Matthias Schneider, Jan Wenzel                |
|                                                                              |
| - adcman - 2.6-trunk                                                         |
|   Authors:                                                                   |
|   Michael Wormit, Adrian L. Dempwolff, Philipp H. P. Harbach,                |
|   Caroline Krauter, Daniel Lefrancois, Jan-Michael Mewes, Dirk Rehn,         |
|   Matthias Schneider, Jan Wenzel, Andreas Dreuw                              |
|                                                                              |
| Authors of earlier versions of ADCMAN:                                       |
| Andreas Dreuw, Jan Hendrik Starcke, Dirk Rehn, Michael Wormit                |
|                                                                              |
================================================================================

 
 Alpha MOs, Restricted
 -- Occupied --                  
-20.213 -11.049 -11.047  -0.930  -0.854  -0.598  -0.473  -0.384
  1 A1    2 A1    1 B1    3 A1    4 A1    2 B1    5 A1    6 A1                 
 -0.328  -0.271  -0.194  -0.130  -0.129
  3 B1    7 A1    1 B2    4 B1    2 B2                                         
 -- Virtual --                   
  0.182   0.191   0.219   0.222   0.225   0.243   0.295   0.330
  5 B1    8 A1    3 B2    9 A1    1 A2    6 B1   10 A1   11 A1                 
  0.342   0.353   0.438   0.442   0.457   0.482   0.495   0.511
  2 A2    7 B1   12 A1    4 B2    8 B1   13 A1    9 B1   14 A1                 
  0.513   0.520   0.566   0.577   0.589   0.591   0.702   0.724
  5 B2   10 B1   11 B1   15 A1   16 A1    3 A2   17 A1   12 B1                 
  0.799   0.995   1.034   1.121   1.129   1.153   1.198   1.199
 13 B1   18 A1   19 A1   20 A1   14 B1   21 A1   15 B1    6 B2                 
  1.271   1.286   1.291   1.314   1.328   1.335   1.335   1.336
 22 A1    7 B2    4 A2   16 B1    5 A2   23 A1   17 B1   24 A1                 
  1.370   1.464   1.474   1.483   1.655   1.667   1.719   1.744
  8 B2   18 B1    9 B2    6 A2   19 B1   25 A1   10 B2   20 B1                 
  1.874   1.942   2.034   2.064   2.129   2.131   2.177   2.213
 26 A1   21 B1   27 A1    7 A2   28 A1   11 B2   22 B1   12 B2                 
  2.263   2.337   2.367   2.394   2.438   2.530   2.579   2.604
 29 A1   30 A1    8 A2   13 B2   23 B1   24 B1   31 A1    9 A2                 
  2.768   2.769   2.854   3.038   3.061   3.121   3.458   3.567
 32 A1   25 B1   26 B1   33 A1   34 A1   35 A1   27 B1   28 B1                 
  3.923   3.946   3.972   4.090   4.546
 14 B2   10 A2   36 A1   29 B1   37 A1                                         
 
 Beta MOs, Restricted
 -- Occupied --                  
-20.213 -11.049 -11.047  -0.930  -0.854  -0.598  -0.473  -0.384
  1 A1    2 A1    1 B1    3 A1    4 A1    2 B1    5 A1    6 A1                 
 -0.328  -0.271  -0.194  -0.130  -0.129
  3 B1    7 A1    1 B2    4 B1    2 B2                                         
 -- Virtual --                   
  0.182   0.191   0.219   0.222   0.225   0.243   0.295   0.330
  5 B1    8 A1    3 B2    9 A1    1 A2    6 B1   10 A1   11 A1                 
  0.342   0.353   0.438   0.442   0.457   0.482   0.495   0.511
  2 A2    7 B1   12 A1    4 B2    8 B1   13 A1    9 B1   14 A1                 
  0.513   0.520   0.566   0.577   0.589   0.591   0.702   0.724
  5 B2   10 B1   11 B1   15 A1   16 A1    3 A2   17 A1   12 B1                 
  0.799   0.995   1.034   1.121   1.129   1.153   1.198   1.199
 13 B1   18 A1   19 A1   20 A1   14 B1   21 A1   15 B1    6 B2                 
  1.271   1.286   1.291   1.314   1.328   1.335   1.335   1.336
 22 A1    7 B2    4 A2   16 B1    5 A2   23 A1   17 B1   24 A1                 
  1.370   1.464   1.474   1.483   1.655   1.667   1.719   1.744
  8 B2   18 B1    9 B2    6 A2   19 B1   25 A1   10 B2   20 B1                 
  1.874   1.942   2.034   2.064   2.129   2.131   2.177   2.213
 26 A1   21 B1   27 A1    7 A2   28 A1   11 B2   22 B1   12 B2                 
  2.263   2.337   2.367   2.394   2.438   2.530   2.579   2.604
 29 A1   30 A1    8 A2   13 B2   23 B1   24 B1   31 A1    9 A2                 
  2.768   2.769   2.854   3.038   3.061   3.121   3.458   3.567
 32 A1   25 B1   26 B1   33 A1   34 A1   35 A1   27 B1   28 B1                 
  3.923   3.946   3.972   4.090   4.546
 14 B2   10 A2   36 A1   29 B1   37 A1                                         

--------------------------------------------------------------------------------
                                   HF Summary                                   
--------------------------------------------------------------------------------
  Energy:                                                 -153.4413815534 a.u.
  Dip. moment [a.u.]:                  [  -0.000000,   -0.000000,    2.077973]
  Total dipole [Debye]:                                               5.281681
  <r^2> [a.u.]:                        [  55.694265,   19.714683,  208.050419]
  Total <r^2> [a.u.]:                                               283.459367
--------------------------------------------------------------------------------

--------------------------------------------------------------------------------
                                 MP(2) Summary                                  
--------------------------------------------------------------------------------
  MP energy contribution:                                   -0.5294141219 a.u.
  Total energy:                                           -153.9707956753 a.u.
  Dip. moment [a.u.]:                  [  -0.000000,   -0.000000,    2.144949]
  Total dipole [Debye]:                                               5.451917
  <r^2> [a.u.]:                        [  56.655240,   20.377968,  209.297714]
  Total <r^2> [a.u.]:                                               286.330921

  Density matrix analysis:
  ------------------------
  NOs
    Occupation of frontier NOs:
       0.0447   1.9355
    Number of electrons: 26.000000
    Number of unpaired electrons: n_u =  0.71613, n_u,nl =  0.08552
    NO participation ratio (PR_NO): 23.026925
  
  
  Mulliken Population Analysis
  Atom      Charge (e)              h+              e-           Del q
  --------------------------------------------------------------------
   1 C       -0.234332        0.092730       -0.094999       -0.002270
   2 C       -0.234332        0.092730       -0.094999       -0.002270
   3 H        0.207407        0.017490       -0.013122        0.004368
   4 H        0.207407        0.017490       -0.013122        0.004368
   5 H        0.039737        0.019052       -0.012078        0.006974
   6 H        0.039737        0.019052       -0.012078        0.006974
   7 O       -1.073642        0.276832       -0.278566       -0.001734
   8 H        0.048017        0.015536       -0.031947       -0.016411
  --------------------------------------------------------------------
  Sum:       -1.000000        0.550912       -0.550912       -0.000000
  
  Multipole moment analysis of the density matrix
    Molecular charge:                      -1.000000
    Number of electrons:                   26.000000
      Center of electronic charge [Ang]: [  0.000000,   0.000000,  -0.043656]
    Total nuclear charge:                  25.000000
      Center of nuclear charge [Ang]:    [  0.000000,   0.000000,  -0.000000]
    Dipole moment [D]:                     5.451916
      Cartesian components [D]:          [ -0.000000,  -0.000000,   5.451916]
    RMS size of the density [Ang]:         1.755555
      Cartesian components [Ang]:        [  0.781150,   0.468484,   1.500766]
  
  Exciton analysis of the difference density matrix
    <r_h> [Ang]:                  [ -0.000000,   0.000000,  -0.471107]
    <r_e> [Ang]:                  [ -0.000000,   0.000000,  -0.535441]
    |<r_e - r_h>| [Ang]:            0.064334
    Hole size [Ang]:                1.931249
      Cartesian components [Ang]: [  0.854148,   0.721502,   1.574672]
    Electron size [Ang]:            2.263754
      Cartesian components [Ang]: [  1.103645,   0.926128,   1.746092]
--------------------------------------------------------------------------------
  Starting Davidson for singlet states of irrep B1 ... 
--------------------------------------------------------------------------------
   It NVec Conv  Avg. Norm  Max. Norm  Conv. states           Remark
--------------------------------------------------------------------------------
       100    0  1.582e-01  5.379e-01  0.2715 n n n n n n n n Guess.
    1  110    0  1.626e-02  7.515e-02  0.1067 n n n n n n n n 
    2  120    0  1.274e-02  1.206e-01  0.1054 n n n n n n n n 
    3  130    0  7.012e-03  5.450e-02  0.1054 n n n n n n n n 
    4  140    0  7.010e-03  6.209e-02  0.1054 n n n n n n n n 
    5  150    0  1.556e-03  1.465e-02  0.1054 n n n n n n n n 
    6  160    5  3.549e-04  3.355e-03  0.1054 y y y y n y n n 
    7  170    7  7.825e-05  7.362e-04  0.1054 y y y y y y n y 
    8  180    8  1.458e-05  1.349e-04  0.1054 y y y y y y y y 
    9  190    9  2.375e-06  2.241e-05  0.1054 y y y y y y y y 
   10  200   10  4.494e-07  4.190e-06  0.1054 y y y y y y y y Converged.
--------------------------------------------------------------------------------
  Davidson Summary: 
 ------------------------------------------------------------
  State  0: excitation energy =   0.1054 a.u.   (converged)
  State  1: excitation energy =   0.1120 a.u.   (converged)
  State  2: excitation energy =   0.1223 a.u.   (converged)
  State  3: excitation energy =   0.1458 a.u.   (converged)
  State  4: excitation energy =   0.1926 a.u.   (converged)
  State  5: excitation energy =   0.1947 a.u.   (converged)
  State  6: excitation energy =   0.2462 a.u.   (converged)
  State  7: excitation energy =   0.2653 a.u.   (converged)
  State  8: excitation energy =   0.2949 a.u.   (converged)
  State  9: excitation energy =   0.2982 a.u.   (converged)
 ------------------------------------------------------------


--------------------------------------------------------------------------------
                   State-averaged natural transition orbitals
--------------------------------------------------------------------------------
--------------------------------------------------------------------------------

--------------------------------------------------------------------------------
                             Excited State Summary
--------------------------------------------------------------------------------
--------------------------------------------------------------------------------

  Excited state 1 (singlet, B1)                                    [converged]
  ----------------------------------------------------------------------------
  Term symbol:  1 (1) B1                                    R^2 =  1.53948e-09

  Total energy:                                           -153.8654385670 a.u.
  Excitation energy:                                               2.866913 eV

  Osc. strength:                                                      0.008920
  Trans. dip. moment [a.u.]:           [   0.356361,    0.000000,   -0.000000]
  <i|r^2|0> [a.u.]:                    [  -0.000000,    0.000000,   -0.000000]

  Dip. moment [a.u.]:                  [   0.000000,   -0.000000,   -4.892059]
  Total dipole [Debye]:                                              12.434376
  <r^2> [a.u.]:                        [  82.021023,   26.933847,  220.350021]
  Total <r^2> [a.u.]:                                               329.304891

  V1^2 = 0.8670, V2^2 = 0.1330

  Important amplitudes:
      occ i      occ j       vir a       vir b          v   
    ---------------------------------------------------------
     4 (B1) A               8 (A1) A                 -0.6307
     4 (B1) A               9 (A1) A                  0.1399
    ---------------------------------------------------------

  Density matrix analysis:
  ------------------------
  NOs
    Occupation of frontier NOs:
       0.9626   0.9948
    Number of electrons: 26.000000
    Number of unpaired electrons: n_u =  2.75237, n_u,nl =  2.11537
    NO participation ratio (PR_NO):  3.889872
  
  
  Mulliken Population Analysis
  Atom      Charge (e)              h+              e-           Del q
  --------------------------------------------------------------------
   1 C       -0.748705        0.043930       -0.558304       -0.514373
   2 C       -0.748705        0.043930       -0.558304       -0.514373
   3 H        0.164897       -0.001834       -0.040676       -0.042510
   4 H        0.164897       -0.001834       -0.040676       -0.042510
   5 H        0.105465        0.051858        0.013870        0.065728
   6 H        0.105465        0.051858        0.013870        0.065728
   7 O       -0.244600        1.387605       -0.558563        0.829042
   8 H        0.201286        0.133289        0.019981        0.153269
  --------------------------------------------------------------------
  Sum:       -1.000000        1.708801       -1.708801       -0.000000
  
  Multipole moment analysis of the density matrix
    Molecular charge:                      -1.000000
    Number of electrons:                   26.000000
      Center of electronic charge [Ang]: [ -0.000000,   0.000000,   0.099568]
    Total nuclear charge:                  25.000000
      Center of nuclear charge [Ang]:    [  0.000000,   0.000000,  -0.000000]
    Dipole moment [D]:                     12.434372
      Cartesian components [D]:          [  0.000000,  -0.000000, -12.434372]
    RMS size of the density [Ang]:         1.880640
      Cartesian components [Ang]:        [  0.939890,   0.538597,   1.537312]
  
  Exciton analysis of the difference density matrix
    <r_h> [Ang]:                  [ -0.000000,   0.000000,  -1.392315]
    <r_e> [Ang]:                  [ -0.000000,   0.000000,   0.786888]
    |<r_e - r_h>| [Ang]:            2.179203
    Hole size [Ang]:                1.813356
      Cartesian components [Ang]: [  0.929152,   0.758047,   1.360258]
    Electron size [Ang]:            3.413200
      Cartesian components [Ang]: [  2.240563,   1.284124,   2.231779]

  Transition density matrix analysis:
  -----------------------------------
  
  CT numbers (Mulliken)
    omega =     0.8509
    <Phe> =    -0.0004
  
  Exciton analysis of the transition density matrix
    Trans. dipole moment [D]:             0.452890
      Cartesian components [D]:         [  0.452890,   0.000000,  -0.000000]
    <r_h> [Ang]:                        [  0.000000,   0.000000,  -1.711634]
    <r_e> [Ang]:                        [ -0.000000,  -0.000000,   2.154650]
    |<r_e - r_h>| [Ang]:                  3.866283
    Hole size [Ang]:                      1.151706
      Cartesian components [Ang]:       [  0.821264,   0.466993,   0.658688]
    Electron size [Ang]:                  3.653705
      Cartesian components [Ang]:       [  2.847133,   1.558708,   1.677446]
    RMS electron-hole separation [Ang]:   5.439115
      Cartesian components [Ang]:       [  2.958558,   1.626975,   4.264253]
    Covariance(r_h, r_e) [Ang^2]:         0.020082
    Correlation coefficient:              0.004772
    Center-of-mass size [Ang]:            1.918082
      Cartesian components [Ang]:       [  1.483932,   0.813673,   0.902730]

  Decomposition into state-averaged NTOs
    H- 0 -> L+ 2: -0.5262 ( 55.4%)
    H- 0 -> L+ 5: -0.2898 ( 16.8%)
    H- 0 -> L+ 1: -0.2412 ( 11.6%)
                   omega =  85.1%
  ----------------------------------------------------------------------------


  Excited state 2 (singlet, B1)                                    [converged]
  ----------------------------------------------------------------------------
  Term symbol:  2 (1) B1                                    R^2 =  1.54964e-09

  Total energy:                                           -153.8588221054 a.u.
  Excitation energy:                                               3.046956 eV

  Osc. strength:                                                      0.046612
  Trans. dip. moment [a.u.]:           [   0.790197,   -0.000000,   -0.000000]
  <i|r^2|0> [a.u.]:                    [  -0.000000,   -0.000000,   -0.000000]

  Dip. moment [a.u.]:                  [  -0.000000,   -0.000000,   -0.262689]
  Total dipole [Debye]:                                               0.667689
  <r^2> [a.u.]:                        [  67.594308,   27.304700,  224.271387]
  Total <r^2> [a.u.]:                                               319.170396

  V1^2 = 0.8832, V2^2 = 0.1168

  Important amplitudes:
      occ i      occ j       vir a       vir b          v   
    ---------------------------------------------------------
     4 (B1) A               9 (A1) A                  0.5153
     4 (B1) A              10 (A1) A                 -0.3375
    ---------------------------------------------------------

  Density matrix analysis:
  ------------------------
  NOs
    Occupation of frontier NOs:
       0.9680   0.9909
    Number of electrons: 26.000000
    Number of unpaired electrons: n_u =  2.74139, n_u,nl =  2.11123
    NO participation ratio (PR_NO):  3.856169
  
  
  Mulliken Population Analysis
  Atom      Charge (e)              h+              e-           Del q
  --------------------------------------------------------------------
   1 C       -0.718443        0.021743       -0.505854       -0.484111
   2 C       -0.718443        0.021743       -0.505854       -0.484111
   3 H        0.142842        0.001667       -0.066233       -0.064565
   4 H        0.142842        0.001667       -0.066233       -0.064565
   5 H        0.077670        0.029920        0.008013        0.037933
   6 H        0.077670        0.029920        0.008013        0.037933
   7 O       -0.421086        1.340752       -0.688197        0.652556
   8 H        0.416949        0.152376        0.216556        0.368932
  --------------------------------------------------------------------
  Sum:       -1.000000        1.599789       -1.599789       -0.000000
  
  Multipole moment analysis of the density matrix
    Molecular charge:                      -1.000000
    Number of electrons:                   26.000000
      Center of electronic charge [Ang]: [  0.000000,   0.000000,   0.005347]
    Total nuclear charge:                  25.000000
      Center of nuclear charge [Ang]:    [  0.000000,   0.000000,  -0.000000]
    Dipole moment [D]:                     0.667689
      Cartesian components [D]:          [ -0.000000,  -0.000000,  -0.667689]
    RMS size of the density [Ang]:         1.854061
      Cartesian components [Ang]:        [  0.853237,   0.542292,   1.554171]
  
  Exciton analysis of the difference density matrix
    <r_h> [Ang]:                  [ -0.000000,   0.000000,  -1.516563]
    <r_e> [Ang]:                  [  0.000000,   0.000000,  -0.720166]
    |<r_e - r_h>| [Ang]:            0.796397
    Hole size [Ang]:                1.716066
      Cartesian components [Ang]: [  0.920683,   0.757146,   1.234485]
    Electron size [Ang]:            3.236426
      Cartesian components [Ang]: [  1.662059,   1.336312,   2.434396]

  Transition density matrix analysis:
  -----------------------------------
  
  CT numbers (Mulliken)
    omega =     0.8664
    <Phe> =    -0.0060
  
  Exciton analysis of the transition density matrix
    Trans. dipole moment [D]:             1.004240
      Cartesian components [D]:         [  1.004240,  -0.000000,  -0.000000]
    <r_h> [Ang]:                        [  0.000000,   0.000000,  -1.723921]
    <r_e> [Ang]:                        [  0.000000,   0.000000,  -0.432253]
    |<r_e - r_h>| [Ang]:                  1.291669
    Hole size [Ang]:                      1.130325
      Cartesian components [Ang]:       [  0.816849,   0.468253,   0.625405]
    Electron size [Ang]:                  3.844375
      Cartesian components [Ang]:       [  1.999170,   1.584177,   2.876269]
    RMS electron-hole separation [Ang]:   4.198616
      Cartesian components [Ang]:       [  2.152082,   1.651466,   3.204619]
    Covariance(r_h, r_e) [Ang^2]:         0.048444
    Correlation coefficient:              0.011148
    Center-of-mass size [Ang]:            2.009586
      Cartesian components [Ang]:       [  1.083558,   0.826198,   1.477070]

  Decomposition into state-averaged NTOs
    H- 0 -> L+ 3: -0.3424 ( 23.4%)
    H- 0 -> L+ 2:  0.3404 ( 23.2%)
    H- 0 -> L+ 1: -0.3146 ( 19.8%)
    H- 0 -> L+ 5: -0.3135 ( 19.7%)
                   omega =  86.6%
  ----------------------------------------------------------------------------


  Excited state 3 (singlet, B1)                                    [converged]
  ----------------------------------------------------------------------------
  Term symbol:  3 (1) B1                                    R^2 =  1.10583e-09

  Total energy:                                           -153.8485343417 a.u.
  Excitation energy:                                               3.326900 eV

  Osc. strength:                                                      0.000344
  Trans. dip. moment [a.u.]:           [   0.064970,    0.000000,   -0.000000]
  <i|r^2|0> [a.u.]:                    [   0.000000,   -0.000000,    0.000000]

  Dip. moment [a.u.]:                  [  -0.000000,    0.000000,   -2.879374]
  Total dipole [Debye]:                                               7.318639
  <r^2> [a.u.]:                        [  72.889878,   34.542081,  204.364153]
  Total <r^2> [a.u.]:                                               311.796113

  V1^2 = 0.8716, V2^2 = 0.1284

  Important amplitudes:
      occ i      occ j       vir a       vir b          v   
    ---------------------------------------------------------
     2 (B2) A               1 (A2) A                 -0.6221
     2 (B2) A               2 (A2) A                 -0.2060
    ---------------------------------------------------------

  Density matrix analysis:
  ------------------------
  NOs
    Occupation of frontier NOs:
       0.9671   0.9917
    Number of electrons: 26.000000
    Number of unpaired electrons: n_u =  2.74270, n_u,nl =  2.11053
    NO participation ratio (PR_NO):  3.860842
  
  
  Mulliken Population Analysis
  Atom      Charge (e)              h+              e-           Del q
  --------------------------------------------------------------------
   1 C       -0.703612        0.044472       -0.513752       -0.469280
   2 C       -0.703612        0.044472       -0.513752       -0.469280
   3 H        0.159787        0.006580       -0.054200       -0.047620
   4 H        0.159787        0.006580       -0.054200       -0.047620
   5 H        0.053317        0.013676       -0.000096        0.013580
   6 H        0.053317        0.013676       -0.000096        0.013580
   7 O       -0.172428        1.382609       -0.481396        0.901213
   8 H        0.153443        0.127381       -0.021954        0.105426
  --------------------------------------------------------------------
  Sum:       -1.000000        1.639446       -1.639446        0.000000
  
  Multipole moment analysis of the density matrix
    Molecular charge:                      -1.000000
    Number of electrons:                   26.000000
      Center of electronic charge [Ang]: [  0.000000,  -0.000000,   0.058604]
    Total nuclear charge:                  25.000000
      Center of nuclear charge [Ang]:    [  0.000000,   0.000000,  -0.000000]
    Dipole moment [D]:                     7.318637
      Cartesian components [D]:          [ -0.000000,   0.000000,  -7.318637]
    RMS size of the density [Ang]:         1.831587
      Cartesian components [Ang]:        [  0.886029,   0.609942,   1.482442]
  
  Exciton analysis of the difference density matrix
    <r_h> [Ang]:                  [ -0.000000,   0.000000,  -1.525352]
    <r_e> [Ang]:                  [  0.000000,   0.000000,   0.096389]
    |<r_e - r_h>| [Ang]:            1.621741
    Hole size [Ang]:                1.646815
      Cartesian components [Ang]: [  0.800764,   0.849182,   1.161752]
    Electron size [Ang]:            3.062521
      Cartesian components [Ang]: [  1.847758,   1.772128,   1.680592]

  Transition density matrix analysis:
  -----------------------------------
  
  CT numbers (Mulliken)
    omega =     0.8513
    <Phe> =    -0.0004
  
  Exciton analysis of the transition density matrix
    Trans. dipole moment [D]:             0.082568
      Cartesian components [D]:         [  0.082568,   0.000000,  -0.000000]
    <r_h> [Ang]:                        [ -0.000000,  -0.000000,  -1.739071]
    <r_e> [Ang]:                        [  0.000000,  -0.000000,   1.015735]
    |<r_e - r_h>| [Ang]:                  2.754806
    Hole size [Ang]:                      1.096253
      Cartesian components [Ang]:       [  0.477691,   0.818516,   0.551012]
    Electron size [Ang]:                  3.414647
      Cartesian components [Ang]:       [  2.264510,   2.203579,   1.294624]
    RMS electron-hole separation [Ang]:   4.520397
      Cartesian components [Ang]:       [  2.314052,   2.347463,   3.093310]
    Covariance(r_h, r_e) [Ang^2]:         0.008276
    Correlation coefficient:              0.002211
    Center-of-mass size [Ang]:            1.794306
      Cartesian components [Ang]:       [  1.157319,   1.176953,   0.703512]

  Decomposition into state-averaged NTOs
    H- 2 -> L+ 0:  0.6506 ( 84.6%)
                   omega =  85.1%
  ----------------------------------------------------------------------------


  Excited state 4 (singlet, B1)                                    [converged]
  ----------------------------------------------------------------------------
  Term symbol:  4 (1) B1                                    R^2 =  2.32306e-09

  Total energy:                                           -153.8249779966 a.u.
  Excitation energy:                                               3.967901 eV

  Osc. strength:                                                      0.008048
  Trans. dip. moment [a.u.]:           [  -0.287725,    0.000000,    0.000000]
  <i|r^2|0> [a.u.]:                    [  -0.000000,   -0.000000,    0.000000]

  Dip. moment [a.u.]:                  [   0.000000,    0.000000,    0.453177]
  Total dipole [Debye]:                                               1.151862
  <r^2> [a.u.]:                        [  71.704411,   26.274642,  225.628592]
  Total <r^2> [a.u.]:                                               323.607644

  V1^2 = 0.8861, V2^2 = 0.1139

  Important amplitudes:
      occ i      occ j       vir a       vir b          v   
    ---------------------------------------------------------
     4 (B1) A              10 (A1) A                  0.4510
     4 (B1) A               9 (A1) A                  0.3769
    ---------------------------------------------------------

  Density matrix analysis:
  ------------------------
  NOs
    Occupation of frontier NOs:
       0.9649   0.9960
    Number of electrons: 26.000000
    Number of unpaired electrons: n_u =  2.73020, n_u,nl =  2.10653
    NO participation ratio (PR_NO):  3.819047
  
  
  Mulliken Population Analysis
  Atom      Charge (e)              h+              e-           Del q
  --------------------------------------------------------------------
   1 C       -0.477474        0.033071       -0.276213       -0.243142
   2 C       -0.477474        0.033071       -0.276213       -0.243142
   3 H        0.168168        0.000379       -0.039617       -0.039238
   4 H        0.168168        0.000379       -0.039617       -0.039238
   5 H        0.032984        0.030633       -0.037387       -0.006753
   6 H        0.032984        0.030633       -0.037387       -0.006753
   7 O       -1.119214        1.294823       -1.340395       -0.045572
   8 H        0.671858        0.177990        0.445851        0.623841
  --------------------------------------------------------------------
  Sum:       -1.000000        1.600979       -1.600979       -0.000000
  
  Multipole moment analysis of the density matrix
    Molecular charge:                      -1.000000
    Number of electrons:                   26.000000
      Center of electronic charge [Ang]: [ -0.000000,  -0.000000,  -0.009224]
    Total nuclear charge:                  25.000000
      Center of nuclear charge [Ang]:    [  0.000000,   0.000000,  -0.000000]
    Dipole moment [D]:                     1.151862
      Cartesian components [D]:          [  0.000000,   0.000000,   1.151862]
    RMS size of the density [Ang]:         1.866889
      Cartesian components [Ang]:        [  0.878795,   0.531965,   1.558849]
  
  Exciton analysis of the difference density matrix
    <r_h> [Ang]:                  [ -0.000000,   0.000000,  -1.495940]
    <r_e> [Ang]:                  [ -0.000000,  -0.000000,  -0.936752]
    |<r_e - r_h>| [Ang]:            0.559187
    Hole size [Ang]:                1.734726
      Cartesian components [Ang]: [  0.928947,   0.755895,   1.254972]
    Electron size [Ang]:            3.299955
      Cartesian components [Ang]: [  1.869547,   1.266005,   2.406602]

  Transition density matrix analysis:
  -----------------------------------
  
  CT numbers (Mulliken)
    omega =     0.8688
    <Phe> =    -0.0058
  
  Exciton analysis of the transition density matrix
    Trans. dipole moment [D]:             0.365661
      Cartesian components [D]:         [ -0.365661,   0.000000,   0.000000]
    <r_h> [Ang]:                        [  0.000000,   0.000000,  -1.727688]
    <r_e> [Ang]:                        [ -0.000000,  -0.000000,  -0.823252]
    |<r_e - r_h>| [Ang]:                  0.904435
    Hole size [Ang]:                      1.124661
      Cartesian components [Ang]:       [  0.817063,   0.465711,   0.616752]
    Electron size [Ang]:                  3.945249
      Cartesian components [Ang]:       [  2.259966,   1.487193,   2.871550]
    RMS electron-hole separation [Ang]:   4.189556
      Cartesian components [Ang]:       [  2.398030,   1.558233,   3.061657]
    Covariance(r_h, r_e) [Ang^2]:         0.047740
    Correlation coefficient:              0.010759
    Center-of-mass size [Ang]:            2.057021
      Cartesian components [Ang]:       [  1.204111,   0.779289,   1.474503]

  Decomposition into state-averaged NTOs
    H- 0 -> L+ 1:  0.4991 ( 49.8%)
    H- 0 -> L+ 5: -0.4262 ( 36.3%)
                   omega =  86.9%
  ----------------------------------------------------------------------------


  Excited state 5 (singlet, B1)                                    [converged]
  ----------------------------------------------------------------------------
  Term symbol:  5 (1) B1                                    R^2 =  5.16755e-09

  Total energy:                                           -153.7781759709 a.u.
  Excitation energy:                                               5.241449 eV

  Osc. strength:                                                      0.001217
  Trans. dip. moment [a.u.]:           [  -0.097332,   -0.000000,    0.000000]
  <i|r^2|0> [a.u.]:                    [   0.000000,   -0.000000,    0.000000]

  Dip. moment [a.u.]:                  [  -0.000000,   -0.000000,   -1.435700]
  Total dipole [Debye]:                                               3.649185
  <r^2> [a.u.]:                        [  63.342439,   33.659010,  209.101346]
  Total <r^2> [a.u.]:                                               306.102794

  V1^2 = 0.8825, V2^2 = 0.1175

  Important amplitudes:
      occ i      occ j       vir a       vir b          v   
    ---------------------------------------------------------
     4 (B1) A              11 (A1) A                 -0.5671
     4 (B1) A              10 (A1) A                 -0.3246
    ---------------------------------------------------------

  Density matrix analysis:
  ------------------------
  NOs
    Occupation of frontier NOs:
       0.9661   0.9941
    Number of electrons: 26.000000
    Number of unpaired electrons: n_u =  2.73859, n_u,nl =  2.10926
    NO participation ratio (PR_NO):  3.844108
  
  
  Mulliken Population Analysis
  Atom      Charge (e)              h+              e-           Del q
  --------------------------------------------------------------------
   1 C       -0.708465        0.052498       -0.526630       -0.474133
   2 C       -0.708465        0.052498       -0.526630       -0.474133
   3 H        0.248577       -0.000418        0.041588        0.041170
   4 H        0.248577       -0.000418        0.041588        0.041170
   5 H        0.151141        0.012997        0.098406        0.111404
   6 H        0.151141        0.012997        0.098406        0.111404
   7 O       -0.631243        1.335373       -0.892975        0.442398
   8 H        0.248736        0.137665        0.063055        0.200719
  --------------------------------------------------------------------
  Sum:       -1.000000        1.603192       -1.603192       -0.000000
  
  Multipole moment analysis of the density matrix
    Molecular charge:                      -1.000000
    Number of electrons:                   26.000000
      Center of electronic charge [Ang]: [  0.000000,   0.000000,   0.029221]
    Total nuclear charge:                  25.000000
      Center of nuclear charge [Ang]:    [  0.000000,   0.000000,  -0.000000]
    Dipole moment [D]:                     3.649184
      Cartesian components [D]:          [ -0.000000,  -0.000000,  -3.649184]
    RMS size of the density [Ang]:         1.815482
      Cartesian components [Ang]:        [  0.825965,   0.602095,   1.500412]
  
  Exciton analysis of the difference density matrix
    <r_h> [Ang]:                  [ -0.000000,   0.000000,  -1.507770]
    <r_e> [Ang]:                  [  0.000000,   0.000000,  -0.325879]
    |<r_e - r_h>| [Ang]:            1.181891
    Hole size [Ang]:                1.676964
      Cartesian components [Ang]: [  0.899071,   0.751197,   1.199827]
    Electron size [Ang]:            2.903950
      Cartesian components [Ang]: [  1.405837,   1.698260,   1.890095]

  Transition density matrix analysis:
  -----------------------------------
  
  CT numbers (Mulliken)
    omega =     0.8653
    <Phe> =    -0.0011
  
  Exciton analysis of the transition density matrix
    Trans. dipole moment [D]:             0.123697
      Cartesian components [D]:         [ -0.123697,  -0.000000,   0.000000]
    <r_h> [Ang]:                        [  0.000000,   0.000000,  -1.719344]
    <r_e> [Ang]:                        [  0.000000,   0.000000,   0.230523]
    |<r_e - r_h>| [Ang]:                  1.949867
    Hole size [Ang]:                      1.135526
      Cartesian components [Ang]:       [  0.817488,   0.465912,   0.635655]
    Electron size [Ang]:                  3.326620
      Cartesian components [Ang]:       [  1.656113,   2.067389,   2.012359]
    RMS electron-hole separation [Ang]:   4.012925
      Cartesian components [Ang]:       [  1.842949,   2.118524,   2.866873]
    Covariance(r_h, r_e) [Ang^2]:         0.027115
    Correlation coefficient:              0.007178
    Center-of-mass size [Ang]:            1.761395
      Cartesian components [Ang]:       [  0.925410,   1.059976,   1.059518]

  Decomposition into state-averaged NTOs
    H- 0 -> L+ 3: -0.5572 ( 62.1%)
    H- 0 -> L+ 5:  0.2473 ( 12.2%)
    H- 0 -> L+ 1:  0.1773 (  6.3%)
    H- 0 -> L+ 2: -0.1699 (  5.8%)
                   omega =  86.5%
  ----------------------------------------------------------------------------


  Excited state 6 (singlet, B1)                                    [converged]
  ----------------------------------------------------------------------------
  Term symbol:  6 (1) B1                                    R^2 =  2.75961e-09

  Total energy:                                           -153.7760711485 a.u.
  Excitation energy:                                               5.298724 eV

  Osc. strength:                                                      0.003122
  Trans. dip. moment [a.u.]:           [   0.155090,    0.000000,    0.000000]
  <i|r^2|0> [a.u.]:                    [   0.000000,   -0.000000,    0.000000]

  Dip. moment [a.u.]:                  [  -0.000000,   -0.000000,   -2.900207]
  Total dipole [Debye]:                                               7.371592
  <r^2> [a.u.]:                        [  69.758435,   31.161897,  203.841796]
  Total <r^2> [a.u.]:                                               304.762128

  V1^2 = 0.8651, V2^2 = 0.1349

  Important amplitudes:
      occ i      occ j       vir a       vir b          v   
    ---------------------------------------------------------
     2 (B2) A               2 (A2) A                  0.6126
     2 (B2) A               1 (A2) A                 -0.2082
    ---------------------------------------------------------

  Density matrix analysis:
  ------------------------
  NOs
    Occupation of frontier NOs:
       0.9642   0.9927
    Number of electrons: 26.000000
    Number of unpaired electrons: n_u =  2.73122, n_u,nl =  2.10452
    NO participation ratio (PR_NO):  3.838621
  
  
  Mulliken Population Analysis
  Atom      Charge (e)              h+              e-           Del q
  --------------------------------------------------------------------
   1 C       -0.653590        0.094807       -0.514065       -0.419258
   2 C       -0.653590        0.094807       -0.514065       -0.419258
   3 H        0.138043        0.006501       -0.075866       -0.069364
   4 H        0.138043        0.006501       -0.075866       -0.069364
   5 H        0.024009        0.006823       -0.022552       -0.015729
   6 H        0.024009        0.006823       -0.022552       -0.015729
   7 O       -0.164134        1.366654       -0.457146        0.909508
   8 H        0.147211        0.120375       -0.021181        0.099194
  --------------------------------------------------------------------
  Sum:       -1.000000        1.703293       -1.703293        0.000000
  
  Multipole moment analysis of the density matrix
    Molecular charge:                      -1.000000
    Number of electrons:                   26.000000
      Center of electronic charge [Ang]: [  0.000000,   0.000000,   0.059028]
    Total nuclear charge:                  25.000000
      Center of nuclear charge [Ang]:    [  0.000000,   0.000000,  -0.000000]
    Dipole moment [D]:                     7.371590
      Cartesian components [D]:          [ -0.000000,  -0.000000,  -7.371590]
    RMS size of the density [Ang]:         1.810774
      Cartesian components [Ang]:        [  0.866788,   0.579331,   1.480526]
  
  Exciton analysis of the difference density matrix
    <r_h> [Ang]:                  [ -0.000000,   0.000000,  -1.397771]
    <r_e> [Ang]:                  [  0.000000,   0.000000,   0.169653]
    |<r_e - r_h>| [Ang]:            1.567424
    Hole size [Ang]:                1.689565
      Cartesian components [Ang]: [  0.790039,   0.829175,   1.242150]
    Electron size [Ang]:            2.794598
      Cartesian components [Ang]: [  1.666848,   1.568583,   1.603415]

  Transition density matrix analysis:
  -----------------------------------
  
  CT numbers (Mulliken)
    omega =     0.8399
    <Phe> =    -0.0007
  
  Exciton analysis of the transition density matrix
    Trans. dipole moment [D]:             0.197099
      Cartesian components [D]:         [  0.197099,   0.000000,   0.000000]
    <r_h> [Ang]:                        [ -0.000000,  -0.000000,  -1.740820]
    <r_e> [Ang]:                        [  0.000000,  -0.000000,   1.025676]
    |<r_e - r_h>| [Ang]:                  2.766496
    Hole size [Ang]:                      1.091672
      Cartesian components [Ang]:       [  0.475337,   0.818756,   0.543545]
    Electron size [Ang]:                  3.048776
      Cartesian components [Ang]:       [  2.029487,   1.966526,   1.144114]
    RMS electron-hole separation [Ang]:   4.257600
      Cartesian components [Ang]:       [  2.083961,   2.127624,   3.042611]
    Covariance(r_h, r_e) [Ang^2]:         0.006563
    Correlation coefficient:              0.001972
    Center-of-mass size [Ang]:            1.620178
      Cartesian components [Ang]:       [  1.042428,   1.066347,   0.633422]

  Decomposition into state-averaged NTOs
    H- 2 -> L+ 7: -0.6476 ( 83.9%)
                   omega =  84.0%
  ----------------------------------------------------------------------------


  Excited state 7 (singlet, B1)                                    [converged]
  ----------------------------------------------------------------------------
  Term symbol:  7 (1) B1                                    R^2 =  1.08589e-07

  Total energy:                                           -153.7246013985 a.u.
  Excitation energy:                                               6.699287 eV

  Osc. strength:                                                      0.001139
  Trans. dip. moment [a.u.]:           [   0.083316,    0.000000,   -0.000000]
  <i|r^2|0> [a.u.]:                    [  -0.000000,   -0.000000,   -0.000000]

  Dip. moment [a.u.]:                  [  -0.000000,   -0.000000,   -3.434430]
  Total dipole [Debye]:                                               8.729453
  <r^2> [a.u.]:                        [  96.984263,   27.575860,  209.826991]
  Total <r^2> [a.u.]:                                               334.387114

  V1^2 = 0.8736, V2^2 = 0.1264

  Important amplitudes:
      occ i      occ j       vir a       vir b          v   
    ---------------------------------------------------------
     7 (A1) A               5 (B1) A                  0.6386
     7 (A1) A               6 (B1) A                  0.1437
    ---------------------------------------------------------

  Density matrix analysis:
  ------------------------
  NOs
    Occupation of frontier NOs:
       0.9817   0.9966
    Number of electrons: 26.000000
    Number of unpaired electrons: n_u =  2.80032, n_u,nl =  2.12870
    NO participation ratio (PR_NO):  3.938466
  
  
  Mulliken Population Analysis
  Atom      Charge (e)              h+              e-           Del q
  --------------------------------------------------------------------
   1 C       -0.689753        0.055460       -0.510881       -0.455421
   2 C       -0.689753        0.055460       -0.510881       -0.455421
   3 H        0.167229        0.007719       -0.047897       -0.040178
   4 H        0.167229        0.007719       -0.047897       -0.040178
   5 H        0.055518        0.047883       -0.032103        0.015780
   6 H        0.055518        0.047883       -0.032103        0.015780
   7 O       -0.388444        1.182410       -0.497212        0.685198
   8 H        0.322456        0.290595       -0.016156        0.274439
  --------------------------------------------------------------------
  Sum:       -1.000000        1.695130       -1.695130       -0.000000
  
  Multipole moment analysis of the density matrix
    Molecular charge:                      -1.000000
    Number of electrons:                   26.000000
      Center of electronic charge [Ang]: [  0.000000,   0.000000,   0.069901]
    Total nuclear charge:                  25.000000
      Center of nuclear charge [Ang]:    [  0.000000,   0.000000,  -0.000000]
    Dipole moment [D]:                     8.729451
      Cartesian components [D]:          [ -0.000000,  -0.000000,  -8.729451]
    RMS size of the density [Ang]:         1.896463
      Cartesian components [Ang]:        [  1.022033,   0.544978,   1.501672]
  
  Exciton analysis of the difference density matrix
    <r_h> [Ang]:                  [ -0.000000,   0.000000,  -1.348246]
    <r_e> [Ang]:                  [  0.000000,   0.000000,   0.393497]
    |<r_e - r_h>| [Ang]:            1.741743
    Hole size [Ang]:                1.839554
      Cartesian components [Ang]: [  0.850661,   0.753597,   1.446522]
    Electron size [Ang]:            3.603550
      Cartesian components [Ang]: [  2.717685,   1.325508,   1.960303]

  Transition density matrix analysis:
  -----------------------------------
  
  CT numbers (Mulliken)
    omega =     0.8561
    <Phe> =    -0.0000
  
  Exciton analysis of the transition density matrix
    Trans. dipole moment [D]:             0.105884
      Cartesian components [D]:         [  0.105884,   0.000000,  -0.000000]
    <r_h> [Ang]:                        [ -0.000000,   0.000000,  -1.678638]
    <r_e> [Ang]:                        [  0.000000,   0.000000,   1.416987]
    |<r_e - r_h>| [Ang]:                  3.095625
    Hole size [Ang]:                      1.182562
      Cartesian components [Ang]:       [  0.466977,   0.405558,   1.007922]
    Electron size [Ang]:                  4.159011
      Cartesian components [Ang]:       [  3.463843,   1.607446,   1.647811]
    RMS electron-hole separation [Ang]:   5.310625
      Cartesian components [Ang]:       [  3.490314,   1.658492,   3.642780]
    Covariance(r_h, r_e) [Ang^2]:         0.037993
    Correlation coefficient:              0.007725
    Center-of-mass size [Ang]:            2.166322
      Cartesian components [Ang]:       [  1.750019,   0.828572,   0.971522]

  Decomposition into state-averaged NTOs
    H- 1 -> L+ 6: -0.4881 ( 47.7%)
    H- 1 -> L+ 4:  0.4350 ( 37.9%)
                   omega =  85.6%
  ----------------------------------------------------------------------------


  Excited state 8 (singlet, B1)                                    [converged]
  ----------------------------------------------------------------------------
  Term symbol:  8 (1) B1                                    R^2 =  3.60789e-08

  Total energy:                                           -153.7055010097 a.u.
  Excitation energy:                                               7.219035 eV

  Osc. strength:                                                      0.236953
  Trans. dip. moment [a.u.]:           [  -1.157478,    0.000000,   -0.000000]
  <i|r^2|0> [a.u.]:                    [   0.000000,    0.000000,   -0.000000]

  Dip. moment [a.u.]:                  [  -0.000000,    0.000000,    2.020967]
  Total dipole [Debye]:                                               5.136786
  <r^2> [a.u.]:                        [  69.709815,   32.955366,  211.596646]
  Total <r^2> [a.u.]:                                               314.261828

  V1^2 = 0.9516, V2^2 = 0.0484

  Important amplitudes:
      occ i      occ j       vir a       vir b          v   
    ---------------------------------------------------------
     1 (B2) A               1 (A2) A                  0.6340
     1 (B2) A               2 (A2) A                  0.2378
    ---------------------------------------------------------

  Density matrix analysis:
  ------------------------
  NOs
    Occupation of frontier NOs:
       0.9641   1.0083
    Number of electrons: 26.000000
    Number of unpaired electrons: n_u =  2.64458, n_u,nl =  2.07548
    NO participation ratio (PR_NO):  3.617701
  
  
  Mulliken Population Analysis
  Atom      Charge (e)              h+              e-           Del q
  --------------------------------------------------------------------
   1 C       -0.372022        0.512399       -0.650090       -0.137690
   2 C       -0.372022        0.512399       -0.650090       -0.137690
   3 H        0.261497        0.060880       -0.006791        0.054090
   4 H        0.261497        0.060880       -0.006791        0.054090
   5 H        0.118628        0.084372       -0.005481        0.078891
   6 H        0.118628        0.084372       -0.005481        0.078891
   7 O       -1.077414        0.045771       -0.049544       -0.003773
   8 H        0.061209        0.016290       -0.003099        0.013192
  --------------------------------------------------------------------
  Sum:       -1.000000        1.377364       -1.377364        0.000000
  
  Multipole moment analysis of the density matrix
    Molecular charge:                      -1.000000
    Number of electrons:                   26.000000
      Center of electronic charge [Ang]: [  0.000000,  -0.000000,  -0.041133]
    Total nuclear charge:                  25.000000
      Center of nuclear charge [Ang]:    [  0.000000,   0.000000,  -0.000000]
    Dipole moment [D]:                     5.136784
      Cartesian components [D]:          [ -0.000000,   0.000000,   5.136784]
    RMS size of the density [Ang]:         1.839296
      Cartesian components [Ang]:        [  0.866486,   0.595768,   1.509064]
  
  Exciton analysis of the difference density matrix
    <r_h> [Ang]:                  [  0.000000,   0.000000,   0.884465]
    <r_e> [Ang]:                  [  0.000000,  -0.000000,   0.932099]
    |<r_e - r_h>| [Ang]:            0.047633
    Hole size [Ang]:                1.752322
      Cartesian components [Ang]: [  1.036129,   0.906776,   1.083894]
    Electron size [Ang]:            2.943241
      Cartesian components [Ang]: [  1.930714,   1.838293,   1.247272]

  Transition density matrix analysis:
  -----------------------------------
  
  CT numbers (Mulliken)
    omega =     0.9252
    <Phe> =    -0.0571
  
  Exciton analysis of the transition density matrix
    Trans. dipole moment [D]:             1.471008
      Cartesian components [D]:         [ -1.471008,   0.000000,  -0.000000]
    <r_h> [Ang]:                        [ -0.000000,   0.000000,   0.992445]
    <r_e> [Ang]:                        [  0.000000,  -0.000000,   1.025482]
    |<r_e - r_h>| [Ang]:                  0.033037
    Hole size [Ang]:                      1.335379
      Cartesian components [Ang]:       [  0.773278,   0.881898,   0.638383]
    Electron size [Ang]:                  3.279677
      Cartesian components [Ang]:       [  2.174719,   2.110489,   1.254077]
    RMS electron-hole separation [Ang]:   3.529179
      Cartesian components [Ang]:       [  2.321881,   2.273008,   1.377466]
    Covariance(r_h, r_e) [Ang^2]:         0.042750
    Correlation coefficient:              0.009761
    Center-of-mass size [Ang]:            1.776585
      Cartesian components [Ang]:       [  1.147126,   1.150788,   0.718360]

  Decomposition into state-averaged NTOs
    H- 3 -> L+ 0: -0.6689 ( 89.5%)
                   omega =  92.5%
  ----------------------------------------------------------------------------


  Excited state 9 (singlet, B1)                                    [converged]
  ----------------------------------------------------------------------------
  Term symbol:  9 (1) B1                                    R^2 =  4.19025e-06

  Total energy:                                           -153.6758465638 a.u.
  Excitation energy:                                               8.025974 eV

  Osc. strength:                                                      0.001326
  Trans. dip. moment [a.u.]:           [   0.082104,   -0.000000,   -0.000000]
  <i|r^2|0> [a.u.]:                    [  -0.000000,   -0.000000,   -0.000000]

  Dip. moment [a.u.]:                  [  -0.000000,   -0.000000,   -2.784016]
  Total dipole [Debye]:                                               7.076264
  <r^2> [a.u.]:                        [  84.210881,   27.369841,  221.455936]
  Total <r^2> [a.u.]:                                               333.036658

  V1^2 = 0.8788, V2^2 = 0.1212

  Important amplitudes:
      occ i      occ j       vir a       vir b          v   
    ---------------------------------------------------------
     7 (A1) A               6 (B1) A                  0.6381
     7 (A1) A               5 (B1) A                 -0.1425
    ---------------------------------------------------------

  Density matrix analysis:
  ------------------------
  NOs
    Occupation of frontier NOs:
       0.9854   0.9956
    Number of electrons: 26.000000
    Number of unpaired electrons: n_u =  2.79703, n_u,nl =  2.12632
    NO participation ratio (PR_NO):  3.919699
  
  
  Mulliken Population Analysis
  Atom      Charge (e)              h+              e-           Del q
  --------------------------------------------------------------------
   1 C       -0.665932        0.044994       -0.476594       -0.431600
   2 C       -0.665932        0.044994       -0.476594       -0.431600
   3 H        0.119369        0.002149       -0.090187       -0.088038
   4 H        0.119369        0.002149       -0.090187       -0.088038
   5 H        0.027726        0.047693       -0.059704       -0.012011
   6 H        0.027726        0.047693       -0.059704       -0.012011
   7 O       -0.285255        1.190341       -0.401954        0.788387
   8 H        0.322929        0.291102       -0.016189        0.274912
  --------------------------------------------------------------------
  Sum:       -1.000000        1.671116       -1.671116        0.000000
  
  Multipole moment analysis of the density matrix
    Molecular charge:                      -1.000000
    Number of electrons:                   26.000000
      Center of electronic charge [Ang]: [  0.000000,   0.000000,   0.056663]
    Total nuclear charge:                  25.000000
      Center of nuclear charge [Ang]:    [  0.000000,   0.000000,  -0.000000]
    Dipole moment [D]:                     7.076262
      Cartesian components [D]:          [ -0.000000,  -0.000000,  -7.076262]
    RMS size of the density [Ang]:         1.893067
      Cartesian components [Ang]:        [  0.952354,   0.542938,   1.543354]
  
  Exciton analysis of the difference density matrix
    <r_h> [Ang]:                  [ -0.000000,   0.000000,  -1.349745]
    <r_e> [Ang]:                  [ -0.000000,   0.000000,   0.211066]
    |<r_e - r_h>| [Ang]:            1.560811
    Hole size [Ang]:                1.852421
      Cartesian components [Ang]: [  0.833113,   0.753159,   1.473139]
    Electron size [Ang]:            3.610429
      Cartesian components [Ang]: [  2.304684,   1.318664,   2.446375]

  Transition density matrix analysis:
  -----------------------------------
  
  CT numbers (Mulliken)
    omega =     0.8607
    <Phe> =     0.0002
  
  Exciton analysis of the transition density matrix
    Trans. dipole moment [D]:             0.104344
      Cartesian components [D]:         [  0.104344,  -0.000000,  -0.000000]
    <r_h> [Ang]:                        [ -0.000000,   0.000000,  -1.688447]
    <r_e> [Ang]:                        [ -0.000000,   0.000000,   1.039356]
    |<r_e - r_h>| [Ang]:                  2.727803
    Hole size [Ang]:                      1.172641
      Cartesian components [Ang]:       [  0.462189,   0.406855,   0.997966]
    Electron size [Ang]:                  4.220206
      Cartesian components [Ang]:       [  2.896906,   1.588382,   2.625855]
    RMS electron-hole separation [Ang]:   5.143987
      Cartesian components [Ang]:       [  2.928226,   1.639684,   3.898401]
    Covariance(r_h, r_e) [Ang^2]:         0.082767
    Correlation coefficient:              0.016725
    Center-of-mass size [Ang]:            2.199475
      Cartesian components [Ang]:       [  1.469426,   0.819819,   1.416465]

  Decomposition into state-averaged NTOs
    H- 1 -> L+ 4:  0.4918 ( 48.4%)
    H- 1 -> L+ 6:  0.4314 ( 37.2%)
                   omega =  86.1%
  ----------------------------------------------------------------------------


  Excited state 10 (singlet, B1)                                    [converged]
  ----------------------------------------------------------------------------
  Term symbol:  10 (1) B1                                   R^2 =  1.61959e-06

  Total energy:                                           -153.6726026672 a.u.
  Excitation energy:                                               8.114244 eV

  Osc. strength:                                                      0.059503
  Trans. dip. moment [a.u.]:           [  -0.547099,    0.000000,    0.000000]
  <i|r^2|0> [a.u.]:                    [   0.000000,    0.000000,    0.000000]

  Dip. moment [a.u.]:                  [   0.000000,   -0.000000,   -2.989426]
  Total dipole [Debye]:                                               7.598363
  <r^2> [a.u.]:                        [  60.384641,   24.071044,  215.007369]
  Total <r^2> [a.u.]:                                               299.463054

  V1^2 = 0.8815, V2^2 = 0.1185

  Important amplitudes:
      occ i      occ j       vir a       vir b          v   
    ---------------------------------------------------------
     4 (B1) A              12 (A1) A                  0.5933
     4 (B1) A              14 (A1) A                  0.2143
    ---------------------------------------------------------

  Density matrix analysis:
  ------------------------
  NOs
    Occupation of frontier NOs:
       0.9457   1.0090
    Number of electrons: 26.000000
    Number of unpaired electrons: n_u =  2.81004, n_u,nl =  2.12981
    NO participation ratio (PR_NO):  4.129007
  
  
  Mulliken Population Analysis
  Atom      Charge (e)              h+              e-           Del q
  --------------------------------------------------------------------
   1 C       -0.306289        0.078550       -0.150507       -0.071957
   2 C       -0.306289        0.078550       -0.150507       -0.071957
   3 H        0.017714       -0.003269       -0.186423       -0.189692
   4 H        0.017714       -0.003269       -0.186423       -0.189692
   5 H       -0.052924        0.032153       -0.124815       -0.092661
   6 H       -0.052924        0.032153       -0.124815       -0.092661
   7 O       -0.457388        1.248784       -0.632531        0.616253
   8 H        0.140384        0.113679       -0.021312        0.092367
  --------------------------------------------------------------------
  Sum:       -1.000000        1.577332       -1.577332       -0.000000
  
  Multipole moment analysis of the density matrix
    Molecular charge:                      -1.000000
    Number of electrons:                   26.000000
      Center of electronic charge [Ang]: [ -0.000000,   0.000000,   0.060844]
    Total nuclear charge:                  25.000000
      Center of nuclear charge [Ang]:    [  0.000000,   0.000000,  -0.000000]
    Dipole moment [D]:                     7.598361
      Cartesian components [D]:          [  0.000000,  -0.000000,  -7.598361]
    RMS size of the density [Ang]:         1.794885
      Cartesian components [Ang]:        [  0.806450,   0.509169,   1.520526]
  
  Exciton analysis of the difference density matrix
    <r_h> [Ang]:                  [ -0.000000,   0.000000,  -1.337553]
    <r_e> [Ang]:                  [ -0.000000,   0.000000,   0.384972]
    |<r_e - r_h>| [Ang]:            1.722525
    Hole size [Ang]:                1.774982
      Cartesian components [Ang]: [  0.892065,   0.719428,   1.355435]
    Electron size [Ang]:            2.668856
      Cartesian components [Ang]: [  1.207423,   1.083152,   2.119364]

  Transition density matrix analysis:
  -----------------------------------
  
  CT numbers (Mulliken)
    omega =     0.8616
    <Phe> =    -0.0048
  
  Exciton analysis of the transition density matrix
    Trans. dipole moment [D]:             0.695293
      Cartesian components [D]:         [ -0.695293,   0.000000,   0.000000]
    <r_h> [Ang]:                        [  0.000000,   0.000000,  -1.556230]
    <r_e> [Ang]:                        [ -0.000000,   0.000000,   1.254465]
    |<r_e - r_h>| [Ang]:                  2.810695
    Hole size [Ang]:                      1.327091
      Cartesian components [Ang]:       [  0.828400,   0.470871,   0.923690]
    Electron size [Ang]:                  2.721649
      Cartesian components [Ang]:       [  1.369384,   1.233192,   2.002847]
    RMS electron-hole separation [Ang]:   4.093934
      Cartesian components [Ang]:       [  1.588609,   1.319556,   3.534882]
    Covariance(r_h, r_e) [Ang^2]:         0.154129
    Correlation coefficient:              0.042673
    Center-of-mass size [Ang]:            1.539221
      Cartesian components [Ang]:       [  0.806108,   0.660253,   1.132897]

  Decomposition into state-averaged NTOs
    H- 0 -> L+ 8:  0.6356 ( 80.8%)
    H- 4 -> L+ 2:  0.1076 (  2.3%)
                   omega =  86.2%
  ----------------------------------------------------------------------------


--------------------------------------------------------------------------------
  Time of ADC calculation:  CPU 270.33 s  wall 72.82 s
================================================================================
 
 --------------------------------------------------------------
             Orbital Energies (a.u.) and Symmetries
 --------------------------------------------------------------
 
 Alpha MOs, Restricted
 -- Occupied --                  
-20.213 -11.049 -11.047  -0.930  -0.854  -0.598  -0.473  -0.384
  1 A1    2 A1    1 B1    3 A1    4 A1    2 B1    5 A1    6 A1                 
 -0.328  -0.271  -0.194  -0.130  -0.129
  3 B1    7 A1    1 B2    4 B1    2 B2                                         
 -- Virtual --                   
  0.182   0.191   0.219   0.222   0.225   0.243   0.295   0.330
  5 B1    8 A1    3 B2    9 A1    1 A2    6 B1   10 A1   11 A1                 
  0.342   0.353   0.438   0.442   0.457   0.482   0.495   0.511
  2 A2    7 B1   12 A1    4 B2    8 B1   13 A1    9 B1   14 A1                 
  0.513   0.520   0.566   0.577   0.589   0.591   0.702   0.724
  5 B2   10 B1   11 B1   15 A1   16 A1    3 A2   17 A1   12 B1                 
  0.799   0.995   1.034   1.121   1.129   1.153   1.198   1.199
 13 B1   18 A1   19 A1   20 A1   14 B1   21 A1   15 B1    6 B2                 
  1.271   1.286   1.291   1.314   1.328   1.335   1.335   1.336
 22 A1    7 B2    4 A2   16 B1    5 A2   23 A1   17 B1   24 A1                 
  1.370   1.464   1.474   1.483   1.655   1.667   1.719   1.744
  8 B2   18 B1    9 B2    6 A2   19 B1   25 A1   10 B2   20 B1                 
  1.874   1.942   2.034   2.064   2.129   2.131   2.177   2.213
 26 A1   21 B1   27 A1    7 A2   28 A1   11 B2   22 B1   12 B2                 
  2.263   2.337   2.367   2.394   2.438   2.530   2.579   2.604
 29 A1   30 A1    8 A2   13 B2   23 B1   24 B1   31 A1    9 A2                 
  2.768   2.769   2.854   3.038   3.061   3.121   3.458   3.567
 32 A1   25 B1   26 B1   33 A1   34 A1   35 A1   27 B1   28 B1                 
  3.923   3.946   3.972   4.090   4.546
 14 B2   10 A2   36 A1   29 B1   37 A1                                         
 
 Beta MOs, Restricted
 -- Occupied --                  
-20.213 -11.049 -11.047  -0.930  -0.854  -0.598  -0.473  -0.384
  1 A1    2 A1    1 B1    3 A1    4 A1    2 B1    5 A1    6 A1                 
 -0.328  -0.271  -0.194  -0.130  -0.129
  3 B1    7 A1    1 B2    4 B1    2 B2                                         
 -- Virtual --                   
  0.182   0.191   0.219   0.222   0.225   0.243   0.295   0.330
  5 B1    8 A1    3 B2    9 A1    1 A2    6 B1   10 A1   11 A1                 
  0.342   0.353   0.438   0.442   0.457   0.482   0.495   0.511
  2 A2    7 B1   12 A1    4 B2    8 B1   13 A1    9 B1   14 A1                 
  0.513   0.520   0.566   0.577   0.589   0.591   0.702   0.724
  5 B2   10 B1   11 B1   15 A1   16 A1    3 A2   17 A1   12 B1                 
  0.799   0.995   1.034   1.121   1.129   1.153   1.198   1.199
 13 B1   18 A1   19 A1   20 A1   14 B1   21 A1   15 B1    6 B2                 
  1.271   1.286   1.291   1.314   1.328   1.335   1.335   1.336
 22 A1    7 B2    4 A2   16 B1    5 A2   23 A1   17 B1   24 A1                 
  1.370   1.464   1.474   1.483   1.655   1.667   1.719   1.744
  8 B2   18 B1    9 B2    6 A2   19 B1   25 A1   10 B2   20 B1                 
  1.874   1.942   2.034   2.064   2.129   2.131   2.177   2.213
 26 A1   21 B1   27 A1    7 A2   28 A1   11 B2   22 B1   12 B2                 
  2.263   2.337   2.367   2.394   2.438   2.530   2.579   2.604
 29 A1   30 A1    8 A2   13 B2   23 B1   24 B1   31 A1    9 A2                 
  2.768   2.769   2.854   3.038   3.061   3.121   3.458   3.567
 32 A1   25 B1   26 B1   33 A1   34 A1   35 A1   27 B1   28 B1                 
  3.923   3.946   3.972   4.090   4.546
 14 B2   10 A2   36 A1   29 B1   37 A1                                         
 --------------------------------------------------------------
 
          Ground-State Mulliken Net Atomic Charges

     Atom                 Charge (a.u.)
  ----------------------------------------
      1 C                    -0.232062
      2 C                    -0.232062
      3 H                     0.203039
      4 H                     0.203039
      5 H                     0.032763
      6 H                     0.032763
      7 O                    -1.071908
      8 H                     0.064428
  ----------------------------------------
  Sum of atomic charges =    -1.000000

 -----------------------------------------------------------------
                    Cartesian Multipole Moments
 -----------------------------------------------------------------
    Charge (ESU x 10^10)
                -4.8032
    Dipole Moment (Debye)
         X      -0.0000      Y      -0.0000      Z       5.2817
       Tot       5.2817
    Quadrupole Moments (Debye-Ang)
        XX     -23.6481     XY      -0.0000     YY     -26.5169
        XZ       0.0000     YZ      -0.0000     ZZ     -32.8805
    Octopole Moments (Debye-Ang^2)
       XXX       0.0000    XXY      -0.0000    XYY      -0.0000
       YYY      -0.0000    XXZ       1.0292    XYZ      -0.0000
       YYZ      -0.1651    XZZ       0.0000    YZZ      -0.0000
       ZZZ       6.3337
    Hexadecapole Moments (Debye-Ang^3)
      XXXX     -87.6509   XXXY      -0.0000   XXYY     -21.7975
      XYYY       0.0000   YYYY     -40.1294   XXXZ       0.0000
      XXYZ      -0.0000   XYYZ      -0.0000   YYYZ      -0.0000
      XXZZ     -70.3754   XYZZ      -0.0000   YYZZ     -65.4057
      XZZZ       0.0000   YZZZ      -0.0000   ZZZZ    -292.5055
 -----------------------------------------------------------------
 Total job time:  181.58s(wall), 319.17s(cpu) 
 Wed Mar  2 17:59:08 2022

        *************************************************************
        *                                                           *
        *  Thank you very much for using Q-Chem.  Have a nice day.  *
        *                                                           *
        *************************************************************


