/src/tsommerfeld/qchem/exe/qcprog.exe .input1.333333.3745.qcin.1 /src/jdavis/qchem.scratch/qchem3745/

                  Welcome to Q-Chem
     A Quantum Leap Into The Future Of Chemistry


 Q-Chem 5.4 (devel), Q-Chem, Inc., Pleasanton, CA (2021)

 E. Epifanovsky,  A. T. B. Gilbert,  Xintian Feng,  Joonho Lee,  Yuezhi Mao,  
 N. Mardirossian,  P. Pokhilko,  A. White,  M. Wormit,  M. P. Coons,  
 A. L. Dempwolff,  Zhengting Gan,  D. Hait,  P. R. Horn,  L. D. Jacobson,  
 I. Kaliman,  J. Kussmann,  A. W. Lange,  Ka Un Lao,  D. S. Levine,  Jie Liu,  
 S. C. McKenzie,  A. F. Morrison,  K. Nanda,  F. Plasser,  D. R. Rehn,  
 M. L. Vidal,  Zhi-Qiang You,  Ying Zhu,  B. Alam,  B. Albrecht,  
 A. Aldossary,  E. Alguire,  J. H. Andersen,  D. Barton,  K. Begam,  A. Behn,  
 Y. A. Bernard,  E. J. Berquist,  H. Burton,  A. Carreras,  K. Carter-Fenk,  
 R. Chakraborty,  A. D. Chien,  K. D. Closser,  V. Cofer-Shabica,  
 S. Dasgupta,  Jia Deng,  M. de Wergifosse,  M. Diedenhofen,  Hainam Do,  
 S. Ehlert,  Po-Tung Fang,  S. Fatehi,  Qingguo Feng,  T. Friedhoff,  
 J. Gayvert,  Qinghui Ge,  G. Gidofalvi,  M. Goldey,  J. Gomes,  
 C. Gonzalez-Espinoza,  S. Gulania,  A. Gunina,  M. W. D. Hanson-Heine,  
 P. H. P. Harbach,  A. W. Hauser,  M. F. Herbst,  M. Hernandez Vera,  
 M. Hodecker,  Z. C. Holden,  S. Houck,  Xunkun Huang,  Kerwin Hui,  
 B. C. Huynh,  M. Ivanov,  Hyunjun Ji,  Hanjie Jiang,  B. Kaduk,  S. Kaehler,  
 K. Khistyaev,  Jaehoon Kim,  P. Klunzinger,  Z. Koczor-Benda,  
 Joong Hoon Koh,  D. Kosenkov,  L. Koulias,  T. Kowalczyk,  C. M. Krauter,  
 K. Kue,  A. Kunitsa,  T. Kus,  A. Landau,  K. V. Lawler,  D. Lefrancois,  
 S. Lehtola,  Rain Li,  Yi-Pei Li,  Jiashu Liang,  M. Liebenthal,  
 Hung-Hsuan Lin,  You-Sheng Lin,  Fenglai Liu,  Kuan-Yu Liu,  
 M. Loipersberger,  A. Luenser,  A. Manjanath,  P. Manohar,  E. Mansoor,  
 S. F. Manzer,  Shan-Ping Mao,  A. V. Marenich,  T. Markovich,  S. Mason,  
 S. A. Maurer,  P. F. McLaughlin,  M. F. S. J. Menger,  J.-M. Mewes,  
 S. A. Mewes,  P. Morgante,  J. W. Mullinax,  K. J. Oosterbaan,  G. Paran,  
 Alexander C. Paul,  Suranjan K. Paul,  F. Pavosevic,  Zheng Pei,  S. Prager,  
 E. I. Proynov,  E. Ramos,  B. Rana,  A. E. Rask,  A. Rettig,  R. M. Richard,  
 F. Rob,  E. Rossomme,  T. Scheele,  M. Scheurer,  M. Schneider,  
 N. Sergueev,  S. M. Sharada,  W. Skomorowski,  D. W. Small,  C. J. Stein,  
 Yu-Chuan Su,  E. J. Sundstrom,  Zhen Tao,  J. Thirman,  T. Tsuchimochi,  
 N. M. Tubman,  S. P. Veccham,  O. Vydrov,  J. Wenzel,  J. Witte,  A. Yamada,  
 Kun Yao,  S. Yeganeh,  S. R. Yost,  A. Zech,  Igor Ying Zhang,  Xing Zhang,  
 Yu Zhang,  D. Zuev,  A. Aspuru-Guzik,  A. T. Bell,  N. A. Besley,  
 K. B. Bravaya,  B. R. Brooks,  D. Casanova,  Jeng-Da Chai,  S. Coriani,  
 C. J. Cramer,  A. E. DePrince, III,  R. A. DiStasio Jr.,  A. Dreuw,  
 B. D. Dunietz,  T. R. Furlani,  W. A. Goddard III,  S. Grimme,  
 S. Hammes-Schiffer,  T. Head-Gordon,  W. J. Hehre,  Chao-Ping Hsu,  
 T.-C. Jagau,  Yousung Jung,  A. Klamt,  Jing Kong,  D. S. Lambrecht,  
 WanZhen Liang,  N. J. Mayhall,  C. W. McCurdy,  J. B. Neaton,  
 C. Ochsenfeld,  J. A. Parkhill,  R. Peverati,  V. A. Rassolov,  Yihan Shao,  
 L. V. Slipchenko,  T. Stauch,  R. P. Steele,  J. E. Subotnik,  
 A. J. W. Thom,  A. Tkatchenko,  D. G. Truhlar,  T. Van Voorhis,  
 T. A. Wesolowski,  K. B. Whaley,  H. L. Woodcock III,  P. M. Zimmerman,  
 S. Faraji,  P. M. W. Gill,  M. Head-Gordon,  J. M. Herbert,  A. I. Krylov

 Additional authors for Version 5.4.1: 
 S. Kotaru,  Shaozhi Li,  Xiangyuan Li,  F. Matz,  A. Molle,  Haisheng Ren,  
 Yingli Su,  Hung-Yi Tsai,  C. Utku,  Fang Wang

 Contributors to earlier versions of Q-Chem not listed above: 
 R. D. Adamson,  B. Austin,  R. Baer,  J. Baker,  G. J. O. Beran,  
 K. Brandhorst,  S. T. Brown,  E. F. C. Byrd,  A. K. Chakraborty,  
 G. K. L. Chan,  Chun-Min Chang,  Yunqing Chen,  C.-L. Cheng,  
 Siu Hung Chien,  D. M. Chipman,  D. L. Crittenden,  H. Dachsel,  
 R. J. Doerksen,  A. D. Dutoi,  R. G. Edgar,  J. Fosso-Tande,  
 L. Fusti-Molnar,  D. Ghosh,  A. Ghysels,  A. Golubeva-Zadorozhnaya,  
 J. Gonthier,  M. S. Gordon,  S. R. Gwaltney,  G. Hawkins,  J. E. Herr,  
 A. Heyden,  S. Hirata,  E. G. Hohenstein,  G. Kedziora,  F. J. Keil,  
 C. Kelley,  Jihan Kim,  R. A. King,  R. Z. Khaliullin,  P. P. Korambath,  
 W. Kurlancheek,  A. Laurent,  A. M. Lee,  M. S. Lee,  S. V. Levchenko,  
 Ching Yeh Lin,  D. Liotard,  E. Livshits,  R. C. Lochan,  I. Lotan,  
 L. A. Martinez-Martinez,  P. E. Maslen,  N. Nair,  D. P. O'Neill,  
 D. Neuhauser,  E. Neuscamman,  C. M. Oana,  R. Olivares-Amaya,  R. Olson,  
 T. M. Perrine,  B. Peters,  P. A. Pieniazek,  A. Prociuk,  Y. M. Rhee,  
 J. Ritchie,  M. A. Rohrdanz,  E. Rosta,  N. J. Russ,  H. F. Schaefer III,  
 M. W. Schmidt,  N. E. Schultz,  S. Sharma,  N. Shenvi,  C. D. Sherrill,  
 A. C. Simmonett,  A. Sodt,  T. Stein,  D. Stuck,  K. S. Thanthiriwatte,  
 V. Vanovschi,  L. Vogt,  Tao Wang,  A. Warshel,  M. A. Watson,  
 C. F. Williams,  Q. Wu,  X. Xu,  Jun Yang,  W. Zhang,  Yan Zhao

 Please cite Q-Chem as follows:
 Y. Shao et al., Mol. Phys. 113, 184-215 (2015)
 DOI: 10.1080/00268976.2014.952696

 Q-Chem 5.4.1 for Intel X86 EM64T Linux

 Parts of Q-Chem use Armadillo 9.900.5 (Nocturnal Misbehaviour).
 http://arma.sourceforge.net/

 Q-Chem begins on Fri Mar 25 14:21:28 2022  

 Host: node01
0

     Scratch files written to /src/jdavis/qchem.scratch/qchem3745//
 Processing $rem in /src/tsommerfeld/qchem/config/preferences:
 Processing $rem in /home/jdavis/.qchemrc:

 Checking the input file for inconsistencies... 	...done.

--------------------------------------------------------------
User input:
--------------------------------------------------------------
$molecule
-1 1
C         0.0000000000    0.0000000000    0.8417902907
C         0.0000000000    0.0000000000   -0.4872097093
H         0.9623488518    0.0000000000    1.3363703127
H         0.9623489048    0.0000000000   -0.9817896873
H        -0.9623488518    0.0000000000    1.3363703127
H        -0.9623489048    0.0000000000   -0.9817896873
H         0.0000000000    0.0000000000   -2.8366446508
$end

$rem
   METHOD adc(2)
   BASIS gen
   PURECART 11
   EE_STATES [0,0,0,10]
   scf_convergence 8
   ADC_DAVIDSON_MAXITER 120
   ADC_DAVIDSON_MAXSUBSPACE 200
   adc_nguess_singles 100
   THRESH 14
   S2THRESH 14
   adc_davidson_conv 5
   adc_davidson_thresh 14
   THREADS 10
   MEM_TOTAL 95000
   STATE_ANALYSIS TRUE
$end
$basis
C 1
S   9   1.00
      6.665000D+03           6.920000D-04
      1.000000D+03           5.329000D-03
      2.280000D+02           2.707700D-02
      6.471000D+01           1.017180D-01
      2.106000D+01           2.747400D-01
      7.495000D+00           4.485640D-01
      2.797000D+00           2.850740D-01
      5.215000D-01           1.520400D-02
      1.596000D-01          -3.191000D-03
S   9   1.00
      6.665000D+03          -1.460000D-04
      1.000000D+03          -1.154000D-03
      2.280000D+02          -5.725000D-03
      6.471000D+01          -2.331200D-02
      2.106000D+01          -6.395500D-02
      7.495000D+00          -1.499810D-01
      2.797000D+00          -1.272620D-01
      5.215000D-01           5.445290D-01
      1.596000D-01           5.804960D-01
S   1   1.00
      1.596000D-01           1.000000D+00
S   1   1.00
      0.0469000              1.0000000
P   4   1.00
      9.439000D+00           3.810900D-02
      2.002000D+00           2.094800D-01
      5.456000D-01           5.085570D-01
      1.517000D-01           4.688420D-01
P   1   1.00
      1.517000D-01           1.000000D+00
P   1   1.00
      0.0809067      1.0000000
P   1   1.00
      0.0404533      1.0000000
D   1   1.00
      5.500000D-01           1.0000000
****
C 2
S   9   1.00
      6.665000D+03           6.920000D-04
      1.000000D+03           5.329000D-03
      2.280000D+02           2.707700D-02
      6.471000D+01           1.017180D-01
      2.106000D+01           2.747400D-01
      7.495000D+00           4.485640D-01
      2.797000D+00           2.850740D-01
      5.215000D-01           1.520400D-02
      1.596000D-01          -3.191000D-03
S   9   1.00
      6.665000D+03          -1.460000D-04
      1.000000D+03          -1.154000D-03
      2.280000D+02          -5.725000D-03
      6.471000D+01          -2.331200D-02
      2.106000D+01          -6.395500D-02
      7.495000D+00          -1.499810D-01
      2.797000D+00          -1.272620D-01
      5.215000D-01           5.445290D-01
      1.596000D-01           5.804960D-01
S   1   1.00
      1.596000D-01           1.000000D+00
S   1   1.00
      0.0469000              1.0000000
P   4   1.00
      9.439000D+00           3.810900D-02
      2.002000D+00           2.094800D-01
      5.456000D-01           5.085570D-01
      1.517000D-01           4.688420D-01
P   1   1.00
      1.517000D-01           1.000000D+00
P   1   1.00
      0.0809067      1.0000000
P   1   1.00
      0.0404533      1.0000000
D   1   1.00
      5.500000D-01           1.0000000
****
H 3
cc-pVDZ
****
H 4
cc-pVDZ
****
H 5
cc-pVDZ
****
H 6
cc-pVDZ
****
H 7
aug-cc-pVDZ
****
$end
--------------------------------------------------------------
 ----------------------------------------------------------------
             Standard Nuclear Orientation (Angstroms)
    I     Atom           X                Y                Z
 ----------------------------------------------------------------
    1      C       0.0000000000     0.0000000000     0.8417902855
    2      C       0.0000000000     0.0000000000    -0.4872097145
    3      H       0.9623488518     0.0000000000     1.3363703075
    4      H       0.9623489048     0.0000000000    -0.9817896925
    5      H      -0.9623488518     0.0000000000     1.3363703075
    6      H      -0.9623489048     0.0000000000    -0.9817896925
    7      H       0.0000000000     0.0000000000    -2.8366446560
 ----------------------------------------------------------------
 Molecular Point Group                 C2v   NOp =  4
 Largest Abelian Subgroup              C2v   NOp =  4
 Nuclear Repulsion Energy =          36.55739271 hartrees
 There are        9 alpha and        9 beta electrons
 Requested basis set is non-standard
 There are 33 shells and 67 basis functions
 Total memory of 95000 MB is distributed as follows: 
   MEM_STATIC is set to 192 MB
   QALLOC/CCMAN JOB total memory use is  94808 MB
 Warning: actual memory use might exceed 95000 MB

 Total QAlloc Memory Limit  95000 MB
 Mega-Array Size       188 MB
 MEM_STATIC part       192 MB

                       Distance Matrix (Angstroms)
             C (  1)   C (  2)   H (  3)   H (  4)   H (  5)   H (  6)
   C (  2)  1.329000
   H (  3)  1.082000  2.061931
   H (  4)  2.061931  1.082000  2.318160
   H (  5)  1.082000  2.061931  1.924698  3.013026
   H (  6)  2.061931  1.082000  3.013026  1.924698  2.318160
   H (  7)  3.678435  2.349435  4.282542  2.089642  4.282542  2.089642

 
 A cutoff of  1.0D-14 yielded    561 shell pairs
 There are      2337 function pairs (      2484 Cartesian)
 Smallest overlap matrix eigenvalue = 1.64E-04

 Scale SEOQF with 1.000000e-01/1.000000e-01/1.000000e-01

 Standard Electronic Orientation quadrupole field applied
 Nucleus-field energy     =    -0.0000000019 hartrees
 ================ Generating on-the-fly SAD Guess ================
Attempting to make child job directory: /src/jdavis/qchem.scratch/qchem3745//Frg1/
Attempting to make child job directory: /src/jdavis/qchem.scratch/qchem3745//Frg2/
Creating input file /src/jdavis/qchem.scratch/qchem3745/Frg1.input
using default PutDataFrgm: nothing
calling putenv with: QCSCRATCH=/src/jdavis/qchem.scratch/qchem3745/ 
Spawning Job For Fragment 0
Done Job For Fragment 0
calling putenv with: QCSCRATCH=/src/jdavis/qchem.scratch 
calling putenv with: QCTHREADS=1 
Creating input file /src/jdavis/qchem.scratch/qchem3745/Frg2.input
using default PutDataFrgm: nothing
calling putenv with: QCSCRATCH=/src/jdavis/qchem.scratch/qchem3745/ 
Spawning Job For Fragment 1
Done Job For Fragment 1
calling putenv with: QCSCRATCH=/src/jdavis/qchem.scratch 
calling putenv with: QCTHREADS=1 
 Time for running child jobs:  CPU 1.76 s  wall 54.30 s
 ============= Method Specific SAD Guess Constructed =============
 Guess from on-the-fly superposition of atomic densities
 Warning: Energy on first SCF cycle will be non-variational
 A restricted Hartree-Fock SCF calculation will be
 performed using Pulay DIIS extrapolation
 SCF converges when DIIS error is below 1.0E-08
 using 10 threads for integral computing
 -------------------------------------------------------
 OpenMP Integral computing Module                
 Release: version 1.0, May 2013, Q-Chem Inc. Pittsburgh 
 -------------------------------------------------------
 ---------------------------------------
  Cycle       Energy         DIIS Error
 ---------------------------------------
    1     -78.8397351787      7.39E-02
    2     -78.4382778943      7.16E-03
    3     -78.4953509558      2.34E-03
    4     -78.4994991385      8.98E-04
    5     -78.5002659686      2.37E-04
    6     -78.5003497155      7.56E-05
    7     -78.5003617025      3.65E-05
    8     -78.5003643074      7.36E-06
    9     -78.5003644413      1.42E-06
   10     -78.5003644464      2.45E-07
   11     -78.5003644466      4.99E-08
   12     -78.5003644466      1.11E-08
   13     -78.5003644466      1.89E-09 Convergence criterion met
 ---------------------------------------
 SCF time:  CPU 12.82 s  wall 1.29 s
 SCF   energy in the final basis set = -78.50036445
 Total energy in the final basis set = -78.50036445
================================================================================
|                                                                              |
|                                 A D C  M A N                                 |
|                                                                              |
 ------------------------------------------------------------------------------ 
|                                                                              |
| Components:                                                                  |
|                                                                              |
| - libvmm - 1.3-trunk                                                         |
|   Authors:                                                                   |
|   Evgeny Epifanovsky, Ilya Kaliman                                           |
|                                                                              |
| - libtensor - 2.5-trunk                                                      |
|   Authors:                                                                   |
|   Evgeny Epifanovsky, Michael Wormit, Dmitry Zuev, Sam Manzer,               |
|   Ilya Kaliman                                                               |
|                                                                              |
| - libwfa - 1.1-trunk                                                         |
|   Authors:                                                                   |
|   Felix Plasser, Stefanie Mewes (Baeppler), Benjamin Thomitzni,              |
|   Michael Wormit, Feng Chen, Anna I. Krylov, Pavel Pokhilko                  |
|                                                                              |
| - libadc - 1.1-trunk                                                         |
|   Authors:                                                                   |
|   Michael Wormit, Adrian L. Dempwolff, Philipp H. P. Harbach,                |
|   Caroline Krauter, Dirk Rehn, Matthias Schneider, Jan Wenzel                |
|                                                                              |
| - adcman - 2.6-trunk                                                         |
|   Authors:                                                                   |
|   Michael Wormit, Adrian L. Dempwolff, Philipp H. P. Harbach,                |
|   Caroline Krauter, Daniel Lefrancois, Jan-Michael Mewes, Dirk Rehn,         |
|   Matthias Schneider, Jan Wenzel, Andreas Dreuw                              |
|                                                                              |
| Authors of earlier versions of ADCMAN:                                       |
| Andreas Dreuw, Jan Hendrik Starcke, Dirk Rehn, Michael Wormit                |
|                                                                              |
================================================================================

 
 Alpha MOs, Restricted
 -- Occupied --                  
-11.074 -11.069  -0.881  -0.619  -0.500  -0.404  -0.352  -0.218
  1 A1    2 A1    3 A1    4 A1    1 B1    5 A1    2 B1    1 B2                 
 -0.033
  6 A1                                                                         
 -- Virtual --                   
  0.171   0.193   0.200   0.243   0.248   0.258   0.328   0.334
  7 A1    3 B1    2 B2    3 B2    4 B1    8 A1    9 A1    4 B2                 
  0.348   0.405   0.453   0.463   0.493   0.494   0.508   0.516
 10 A1   11 A1    5 B1   12 A1    5 B2    6 B1   13 A1    7 B1                 
  0.593   0.595   0.699   0.772   0.992   1.007   1.090   1.109
  6 B2   14 A1    8 B1   15 A1   16 A1    9 B1   17 A1   18 A1                 
  1.137   1.181   1.203   1.225   1.273   1.274   1.326   1.336
 19 A1   10 B1   11 B1   20 A1    7 B2    1 A2    8 B2   21 A1                 
  1.447   1.452   1.493   1.612   1.767   1.811   1.860   1.887
  2 A2    9 B2   22 A1   12 B1   23 A1   13 B1   14 B1   10 B2                 
  1.994   2.033   2.062   2.109   2.178   2.236   2.262   2.305
 15 B1   11 B2   24 A1   12 B2    3 A2   25 A1   16 B1   26 A1                 
  2.347   2.530   2.574   2.636   2.737   2.746   3.004   3.008
 13 B2   27 A1    4 A2   28 A1   17 B1   29 A1   18 B1   30 A1                 
  3.449   3.508
 31 A1   19 B1                                                                 
 
 Beta MOs, Restricted
 -- Occupied --                  
-11.074 -11.069  -0.881  -0.619  -0.500  -0.404  -0.352  -0.218
  1 A1    2 A1    3 A1    4 A1    1 B1    5 A1    2 B1    1 B2                 
 -0.033
  6 A1                                                                         
 -- Virtual --                   
  0.171   0.193   0.200   0.243   0.248   0.258   0.328   0.334
  7 A1    3 B1    2 B2    3 B2    4 B1    8 A1    9 A1    4 B2                 
  0.348   0.405   0.453   0.463   0.493   0.494   0.508   0.516
 10 A1   11 A1    5 B1   12 A1    5 B2    6 B1   13 A1    7 B1                 
  0.593   0.595   0.699   0.772   0.992   1.007   1.090   1.109
  6 B2   14 A1    8 B1   15 A1   16 A1    9 B1   17 A1   18 A1                 
  1.137   1.181   1.203   1.225   1.273   1.274   1.326   1.336
 19 A1   10 B1   11 B1   20 A1    7 B2    1 A2    8 B2   21 A1                 
  1.447   1.452   1.493   1.612   1.767   1.811   1.860   1.887
  2 A2    9 B2   22 A1   12 B1   23 A1   13 B1   14 B1   10 B2                 
  1.994   2.033   2.062   2.109   2.178   2.236   2.262   2.305
 15 B1   11 B2   24 A1   12 B2    3 A2   25 A1   16 B1   26 A1                 
  2.347   2.530   2.574   2.636   2.737   2.746   3.004   3.008
 13 B2   27 A1    4 A2   28 A1   17 B1   29 A1   18 B1   30 A1                 
  3.449   3.508
 31 A1   19 B1                                                                 

--------------------------------------------------------------------------------
                                   HF Summary                                   
--------------------------------------------------------------------------------
  Energy:                                                  -78.5003644466 a.u.
  Dip. moment [a.u.]:                  [   0.000000,   -0.000000,    4.828940]
  Total dipole [Debye]:                                              12.273942
  <r^2> [a.u.]:                        [  27.668925,   17.672394,  114.230791]
  Total <r^2> [a.u.]:                                               159.572110
--------------------------------------------------------------------------------

--------------------------------------------------------------------------------
                                 MP(2) Summary                                  
--------------------------------------------------------------------------------
  MP energy contribution:                                   -0.3079366705 a.u.
  Total energy:                                            -78.8083011171 a.u.
  Dip. moment [a.u.]:                  [   0.000000,    0.000000,    4.819602]
  Total dipole [Debye]:                                              12.250210
  <r^2> [a.u.]:                        [  27.938432,   17.726243,  114.072896]
  Total <r^2> [a.u.]:                                               159.737571

  Density matrix analysis:
  ------------------------
  NOs
    Occupation of frontier NOs:
       0.0436   1.9373
    Number of electrons: 18.000000
    Number of unpaired electrons: n_u =  0.47251, n_u,nl =  0.05163
    NO participation ratio (PR_NO): 16.619720
  
  
  Mulliken Population Analysis
  Atom      Charge (e)              h+              e-           Del q
  --------------------------------------------------------------------
   1 C       -1.154505        0.120843       -0.118731        0.002113
   2 C       -0.050170        0.059263       -0.119037       -0.059773
   3 H        0.062407        0.019566       -0.012331        0.007234
   4 H        0.172013        0.016397       -0.013635        0.002762
   5 H        0.062407        0.019566       -0.012331        0.007234
   6 H        0.172013        0.016397       -0.013635        0.002762
   7 H       -0.264164        0.051318       -0.013651        0.037668
  --------------------------------------------------------------------
  Sum:       -1.000000        0.303351       -0.303351       -0.000000
  
  Multipole moment analysis of the density matrix
    Molecular charge:                      -1.000000
    Number of electrons:                   18.000000
      Center of electronic charge [Ang]: [ -0.000000,  -0.000000,  -0.141690]
    Total nuclear charge:                  17.000000
      Center of nuclear charge [Ang]:    [ -0.000000,   0.000000,  -0.000000]
    Dipole moment [D]:                     12.250206
      Cartesian components [D]:          [  0.000000,   0.000000,  12.250206]
    RMS size of the density [Ang]:         1.570027
      Cartesian components [Ang]:        [  0.659274,   0.525138,   1.324603]
  
  Exciton analysis of the difference density matrix
    <r_h> [Ang]:                  [  0.000000,  -0.000000,  -0.199136]
    <r_e> [Ang]:                  [ -0.000000,  -0.000000,  -0.182848]
    |<r_e - r_h>| [Ang]:            0.016288
    Hole size [Ang]:                1.895422
      Cartesian components [Ang]: [  0.758883,   0.766433,   1.558621]
    Electron size [Ang]:            1.936901
      Cartesian components [Ang]: [  0.908124,   0.798204,   1.513197]
--------------------------------------------------------------------------------
  Starting Davidson for singlet states of irrep B2 ... 
--------------------------------------------------------------------------------
   It NVec Conv  Avg. Norm  Max. Norm  Conv. states           Remark
--------------------------------------------------------------------------------
       100    0  1.066e-01  4.399e-01  0.1527 n n n n n n n n Guess.
    1  110    0  7.432e-03  3.970e-02  0.0958 n n n n n n n n 
    2  120    0  1.384e-03  8.887e-03  0.0953 n n n n n n n n 
    3  130    0  7.118e-03  7.117e-02  0.0953 n n n n n n n n 
    4  140    5  6.062e-04  6.062e-03  0.0953 y y y y y n n n 
    5  150    9  1.700e-05  1.700e-04  0.0953 y y y y y y y y 
    6  160   10  5.654e-07  5.654e-06  0.0953 y y y y y y y y Converged.
--------------------------------------------------------------------------------
  Davidson Summary: 
 ------------------------------------------------------------
  State  0: excitation energy =   0.0953 a.u.   (converged)
  State  1: excitation energy =   0.1032 a.u.   (converged)
  State  2: excitation energy =   0.1660 a.u.   (converged)
  State  3: excitation energy =   0.2337 a.u.   (converged)
  State  4: excitation energy =   0.2837 a.u.   (converged)
  State  5: excitation energy =   0.3507 a.u.   (converged)
  State  6: excitation energy =   0.3535 a.u.   (converged)
  State  7: excitation energy =   0.3741 a.u.   (converged)
  State  8: excitation energy =   0.3841 a.u.   (converged)
  State  9: excitation energy =   0.4035 a.u.   (converged)
 ------------------------------------------------------------


--------------------------------------------------------------------------------
                   State-averaged natural transition orbitals
--------------------------------------------------------------------------------
--------------------------------------------------------------------------------

--------------------------------------------------------------------------------
                             Excited State Summary
--------------------------------------------------------------------------------
--------------------------------------------------------------------------------

  Excited state 1 (singlet, B2)                                    [converged]
  ----------------------------------------------------------------------------
  Term symbol:  1 (1) B2                                    R^2 =  9.82228e-10

  Total energy:                                            -78.7130327519 a.u.
  Excitation energy:                                               2.592384 eV

  Osc. strength:                                                      0.050742
  Trans. dip. moment [a.u.]:           [  -0.000000,    0.893832,   -0.000000]
  <i|r^2|0> [a.u.]:                    [  -0.000000,   -0.000000,   -0.000000]

  Dip. moment [a.u.]:                  [   0.000000,   -0.000000,   -0.943945]
  Total dipole [Debye]:                                               2.399270
  <r^2> [a.u.]:                        [  28.904892,   26.845563,   96.356955]
  Total <r^2> [a.u.]:                                               152.107410

  V1^2 = 0.9311, V2^2 = 0.0689

  Important amplitudes:
      occ i      occ j       vir a       vir b          v   
    ---------------------------------------------------------
     6 (A1) A               3 (B2) A                 -0.4618
     6 (A1) A               2 (B2) A                  0.4043
    ---------------------------------------------------------

  Density matrix analysis:
  ------------------------
  NOs
    Occupation of frontier NOs:
       0.9912   0.9922
    Number of electrons: 18.000000
    Number of unpaired electrons: n_u =  2.41620, n_u,nl =  2.04430
    NO participation ratio (PR_NO):  2.950759
  
  
  Mulliken Population Analysis
  Atom      Charge (e)              h+              e-           Del q
  --------------------------------------------------------------------
   1 C       -0.949290        0.851779       -0.646564        0.205215
   2 C       -0.477146        0.024005       -0.450980       -0.426975
   3 H        0.060250        0.009509       -0.011666       -0.002157
   4 H        0.100690       -0.007476       -0.063846       -0.071322
   5 H        0.060250        0.009509       -0.011666       -0.002157
   6 H        0.100690       -0.007476       -0.063846       -0.071322
   7 H        0.104555        0.403153       -0.034434        0.368719
  --------------------------------------------------------------------
  Sum:       -1.000000        1.283002       -1.283002        0.000000
  
  Multipole moment analysis of the density matrix
    Molecular charge:                      -1.000000
    Number of electrons:                   18.000000
      Center of electronic charge [Ang]: [ -0.000000,   0.000000,   0.027751]
    Total nuclear charge:                  17.000000
      Center of nuclear charge [Ang]:    [ -0.000000,   0.000000,  -0.000000]
    Dipole moment [D]:                     2.399269
      Cartesian components [D]:          [  0.000000,  -0.000000,  -2.399269]
    RMS size of the density [Ang]:         1.538046
      Cartesian components [Ang]:        [  0.670580,   0.646251,   1.224038]
  
  Exciton analysis of the difference density matrix
    <r_h> [Ang]:                  [  0.000000,  -0.000000,  -2.262736]
    <r_e> [Ang]:                  [ -0.000000,   0.000000,   0.114452]
    |<r_e - r_h>| [Ang]:            2.377188
    Hole size [Ang]:                2.152450
      Cartesian components [Ang]: [  1.017691,   1.032804,   1.590806]
    Electron size [Ang]:            2.841576
      Cartesian components [Ang]: [  1.116528,   1.748448,   1.941868]

  Transition density matrix analysis:
  -----------------------------------
  
  CT numbers (Mulliken)
    omega =     0.9089
    <Phe> =    -0.0128
  
  Exciton analysis of the transition density matrix
    Trans. dipole moment [D]:             1.135948
      Cartesian components [D]:         [ -0.000000,   1.135948,  -0.000000]
    <r_h> [Ang]:                        [ -0.000000,   0.000000,  -2.809874]
    <r_e> [Ang]:                        [ -0.000000,   0.000000,   0.438947]
    |<r_e - r_h>| [Ang]:                  3.248821
    Hole size [Ang]:                      1.593713
      Cartesian components [Ang]:       [  0.886495,   0.890179,   0.980627]
    Electron size [Ang]:                  2.903418
      Cartesian components [Ang]:       [  1.095107,   1.886668,   1.916001]
    RMS electron-hole separation [Ang]:   4.640769
      Cartesian components [Ang]:       [  1.408825,   2.086265,   3.898647]
    Covariance(r_h, r_e) [Ang^2]:        -0.006072
    Correlation coefficient:             -0.001312
    Center-of-mass size [Ang]:            1.655114
      Cartesian components [Ang]:       [  0.704534,   1.042997,   1.074798]

  Decomposition into state-averaged NTOs
    H- 0 -> L+ 0:  0.6249 ( 78.1%)
    H- 0 -> L+ 3:  0.2394 ( 11.5%)
                   omega =  90.9%
  ----------------------------------------------------------------------------


  Excited state 2 (singlet, B2)                                    [converged]
  ----------------------------------------------------------------------------
  Term symbol:  2 (1) B2                                    R^2 =  5.52818e-10

  Total energy:                                            -78.7050763646 a.u.
  Excitation energy:                                               2.808888 eV

  Osc. strength:                                                      0.044244
  Trans. dip. moment [a.u.]:           [   0.000000,   -0.801831,   -0.000000]
  <i|r^2|0> [a.u.]:                    [   0.000000,    0.000000,   -0.000000]

  Dip. moment [a.u.]:                  [   0.000000,    0.000000,    0.145256]
  Total dipole [Debye]:                                               0.369203
  <r^2> [a.u.]:                        [  33.399356,   42.050921,   91.514577]
  Total <r^2> [a.u.]:                                               166.964854

  V1^2 = 0.9333, V2^2 = 0.0667

  Important amplitudes:
      occ i      occ j       vir a       vir b          v   
    ---------------------------------------------------------
     6 (A1) A               2 (B2) A                  0.5111
     6 (A1) A               3 (B2) A                  0.4497
    ---------------------------------------------------------

  Density matrix analysis:
  ------------------------
  NOs
    Occupation of frontier NOs:
       0.9928   0.9956
    Number of electrons: 18.000000
    Number of unpaired electrons: n_u =  2.42013, n_u,nl =  2.04818
    NO participation ratio (PR_NO):  2.943965
  
  
  Mulliken Population Analysis
  Atom      Charge (e)              h+              e-           Del q
  --------------------------------------------------------------------
   1 C       -0.580971        0.938864       -0.365330        0.573534
   2 C       -0.867559       -0.042188       -0.775201       -0.817388
   3 H        0.067789        0.008998       -0.003615        0.005382
   4 H        0.116562       -0.013958       -0.041493       -0.055451
   5 H        0.067789        0.008998       -0.003615        0.005382
   6 H        0.116562       -0.013958       -0.041493       -0.055451
   7 H        0.079827        0.391798       -0.047806        0.343992
  --------------------------------------------------------------------
  Sum:       -1.000000        1.278553       -1.278553        0.000000
  
  Multipole moment analysis of the density matrix
    Molecular charge:                      -1.000000
    Number of electrons:                   18.000000
      Center of electronic charge [Ang]: [ -0.000000,  -0.000000,  -0.004270]
    Total nuclear charge:                  17.000000
      Center of nuclear charge [Ang]:    [ -0.000000,   0.000000,  -0.000000]
    Dipole moment [D]:                     0.369203
      Cartesian components [D]:          [  0.000000,   0.000000,   0.369203]
    RMS size of the density [Ang]:         1.611669
      Cartesian components [Ang]:        [  0.720832,   0.808821,   1.193183]
  
  Exciton analysis of the difference density matrix
    <r_h> [Ang]:                  [  0.000000,   0.000000,  -2.303361]
    <r_e> [Ang]:                  [  0.000000,  -0.000000,  -0.368707]
    |<r_e - r_h>| [Ang]:            1.934654
    Hole size [Ang]:                2.203358
      Cartesian components [Ang]: [  1.053426,   1.065828,   1.615269]
    Electron size [Ang]:            3.406939
      Cartesian components [Ang]: [  1.518472,   2.542357,   1.684606]

  Transition density matrix analysis:
  -----------------------------------
  
  CT numbers (Mulliken)
    omega =     0.9184
    <Phe> =    -0.0086
  
  Exciton analysis of the transition density matrix
    Trans. dipole moment [D]:             1.019026
      Cartesian components [D]:         [  0.000000,  -1.019026,  -0.000000]
    <r_h> [Ang]:                        [ -0.000000,   0.000000,  -2.834530]
    <r_e> [Ang]:                        [ -0.000000,  -0.000000,  -0.138806]
    |<r_e - r_h>| [Ang]:                  2.695724
    Hole size [Ang]:                      1.580046
      Cartesian components [Ang]:       [  0.891892,   0.896406,   0.947380]
    Electron size [Ang]:                  3.667173
      Cartesian components [Ang]:       [  1.633302,   2.828819,   1.666812]
    RMS electron-hole separation [Ang]:   4.816019
      Cartesian components [Ang]:       [  1.860933,   2.967857,   3.304965]
    Covariance(r_h, r_e) [Ang^2]:         0.008793
    Correlation coefficient:              0.001518
    Center-of-mass size [Ang]:            1.997642
      Cartesian components [Ang]:       [  0.930487,   1.483522,   0.961212]

  Decomposition into state-averaged NTOs
    H- 0 -> L+ 1: -0.6217 ( 77.3%)
    H- 0 -> L+ 3: -0.2402 ( 11.5%)
    H- 0 -> L+ 0:  0.1189 (  2.8%)
                   omega =  91.8%
  ----------------------------------------------------------------------------


  Excited state 3 (singlet, B2)                                    [converged]
  ----------------------------------------------------------------------------
  Term symbol:  3 (1) B2                                    R^2 =  1.08322e-09

  Total energy:                                            -78.6422777426 a.u.
  Excitation energy:                                               4.517726 eV

  Osc. strength:                                                      0.123620
  Trans. dip. moment [a.u.]:           [   0.000000,   -1.056830,   -0.000000]
  <i|r^2|0> [a.u.]:                    [  -0.000000,   -0.000000,   -0.000000]

  Dip. moment [a.u.]:                  [   0.000000,    0.000000,   -0.351088]
  Total dipole [Debye]:                                               0.892377
  <r^2> [a.u.]:                        [  30.487972,   31.594273,  100.693080]
  Total <r^2> [a.u.]:                                               162.775324

  V1^2 = 0.9246, V2^2 = 0.0754

  Important amplitudes:
      occ i      occ j       vir a       vir b          v   
    ---------------------------------------------------------
     6 (A1) A               4 (B2) A                 -0.6027
     6 (A1) A               3 (B2) A                  0.2274
    ---------------------------------------------------------

  Density matrix analysis:
  ------------------------
  NOs
    Occupation of frontier NOs:
       0.9855   0.9911
    Number of electrons: 18.000000
    Number of unpaired electrons: n_u =  2.42755, n_u,nl =  2.04821
    NO participation ratio (PR_NO):  2.997187
  
  
  Mulliken Population Analysis
  Atom      Charge (e)              h+              e-           Del q
  --------------------------------------------------------------------
   1 C       -0.708045        0.870645       -0.424185        0.446460
   2 C       -0.688173        0.021333       -0.659336       -0.638002
   3 H        0.049397        0.007631       -0.020641       -0.013010
   4 H        0.096741       -0.009306       -0.065965       -0.075271
   5 H        0.049397        0.007631       -0.020641       -0.013010
   6 H        0.096741       -0.009306       -0.065965       -0.075271
   7 H        0.103941        0.406112       -0.038007        0.368105
  --------------------------------------------------------------------
  Sum:       -1.000000        1.294740       -1.294740        0.000000
  
  Multipole moment analysis of the density matrix
    Molecular charge:                      -1.000000
    Number of electrons:                   18.000000
      Center of electronic charge [Ang]: [ -0.000000,  -0.000000,   0.010322]
    Total nuclear charge:                  17.000000
      Center of nuclear charge [Ang]:    [ -0.000000,   0.000000,  -0.000000]
    Dipole moment [D]:                     0.892377
      Cartesian components [D]:          [  0.000000,   0.000000,  -0.892377]
    RMS size of the density [Ang]:         1.591293
      Cartesian components [Ang]:        [  0.688699,   0.701082,   1.251555]
  
  Exciton analysis of the difference density matrix
    <r_h> [Ang]:                  [  0.000000,  -0.000000,  -2.274764]
    <r_e> [Ang]:                  [ -0.000000,  -0.000000,  -0.161435]
    |<r_e - r_h>| [Ang]:            2.113329
    Hole size [Ang]:                2.150244
      Cartesian components [Ang]: [  1.018731,   1.031227,   1.588177]
    Electron size [Ang]:            3.229404
      Cartesian components [Ang]: [  1.260648,   2.015646,   2.185632]

  Transition density matrix analysis:
  -----------------------------------
  
  CT numbers (Mulliken)
    omega =     0.9037
    <Phe> =    -0.0069
  
  Exciton analysis of the transition density matrix
    Trans. dipole moment [D]:             1.343097
      Cartesian components [D]:         [  0.000000,  -1.343097,  -0.000000]
    <r_h> [Ang]:                        [ -0.000000,   0.000000,  -2.815984]
    <r_e> [Ang]:                        [ -0.000000,  -0.000000,   0.112190]
    |<r_e - r_h>| [Ang]:                  2.928175
    Hole size [Ang]:                      1.592131
      Cartesian components [Ang]:       [  0.888010,   0.892231,   0.974804]
    Electron size [Ang]:                  3.438695
      Cartesian components [Ang]:       [  1.291658,   2.229362,   2.277321]
    RMS electron-hole separation [Ang]:   4.787379
      Cartesian components [Ang]:       [  1.567385,   2.400877,   3.833809]
    Covariance(r_h, r_e) [Ang^2]:         0.007355
    Correlation coefficient:              0.001343
    Center-of-mass size [Ang]:            1.895667
      Cartesian components [Ang]:       [  0.783771,   1.200839,   1.239856]

  Decomposition into state-averaged NTOs
    H- 0 -> L+ 3: -0.5729 ( 65.7%)
    H- 0 -> L+ 1:  0.2569 ( 13.2%)
    H- 0 -> L+ 0:  0.2116 (  9.0%)
    H- 0 -> L+ 5:  0.1068 (  2.3%)
                   omega =  90.4%
  ----------------------------------------------------------------------------


  Excited state 4 (singlet, B2)                                    [converged]
  ----------------------------------------------------------------------------
  Term symbol:  4 (1) B2                                    R^2 =  8.74231e-10

  Total energy:                                            -78.5746171094 a.u.
  Excitation energy:                                               6.358865 eV

  Osc. strength:                                                      0.056244
  Trans. dip. moment [a.u.]:           [  -0.000000,    0.600854,   -0.000000]
  <i|r^2|0> [a.u.]:                    [   0.000000,    0.000000,   -0.000000]

  Dip. moment [a.u.]:                  [   0.000000,    0.000000,   -0.008047]
  Total dipole [Debye]:                                               0.020455
  <r^2> [a.u.]:                        [  33.216139,   22.137932,  143.967518]
  Total <r^2> [a.u.]:                                               199.321589

  V1^2 = 0.9451, V2^2 = 0.0549

  Important amplitudes:
      occ i      occ j       vir a       vir b          v   
    ---------------------------------------------------------
     1 (B2) A               7 (A1) A                 -0.6460
     1 (B2) A               8 (A1) A                 -0.2108
    ---------------------------------------------------------

  Density matrix analysis:
  ------------------------
  NOs
    Occupation of frontier NOs:
       0.9840   0.9967
    Number of electrons: 18.000000
    Number of unpaired electrons: n_u =  2.35556, n_u,nl =  2.02995
    NO participation ratio (PR_NO):  2.817205
  
  
  Mulliken Population Analysis
  Atom      Charge (e)              h+              e-           Del q
  --------------------------------------------------------------------
   1 C       -0.243855        0.707734        0.202916        0.910650
   2 C       -1.299223        0.391446       -1.640499       -1.249053
   3 H        0.169952        0.114712       -0.007167        0.107545
   4 H        0.247067        0.066986        0.008068        0.075054
   5 H        0.169952        0.114712       -0.007167        0.107545
   6 H        0.247067        0.066986        0.008068        0.075054
   7 H       -0.290959        0.009810       -0.036605       -0.026795
  --------------------------------------------------------------------
  Sum:       -1.000000        1.472386       -1.472386       -0.000000
  
  Multipole moment analysis of the density matrix
    Molecular charge:                      -1.000000
    Number of electrons:                   18.000000
      Center of electronic charge [Ang]: [ -0.000000,  -0.000000,   0.000237]
    Total nuclear charge:                  17.000000
      Center of nuclear charge [Ang]:    [ -0.000000,   0.000000,  -0.000000]
    Dipole moment [D]:                     0.020455
      Cartesian components [D]:          [  0.000000,   0.000000,  -0.020455]
    RMS size of the density [Ang]:         1.760930
      Cartesian components [Ang]:        [  0.718852,   0.586859,   1.496570]
  
  Exciton analysis of the difference density matrix
    <r_h> [Ang]:                  [ -0.000000,  -0.000000,   0.220331]
    <r_e> [Ang]:                  [ -0.000000,  -0.000000,   1.955394]
    |<r_e - r_h>| [Ang]:            1.735063
    Hole size [Ang]:                1.797687
      Cartesian components [Ang]: [  0.837351,   0.925032,   1.294156]
    Electron size [Ang]:            2.642919
      Cartesian components [Ang]: [  1.305721,   1.301818,   1.893512]

  Transition density matrix analysis:
  -----------------------------------
  
  CT numbers (Mulliken)
    omega =     0.9145
    <Phe> =    -0.0062
  
  Exciton analysis of the transition density matrix
    Trans. dipole moment [D]:             0.763610
      Cartesian components [D]:         [ -0.000000,   0.763610,  -0.000000]
    <r_h> [Ang]:                        [  0.000000,   0.000000,   0.277958]
    <r_e> [Ang]:                        [ -0.000000,  -0.000000,   2.880339]
    |<r_e - r_h>| [Ang]:                  2.602381
    Hole size [Ang]:                      1.280174
      Cartesian components [Ang]:       [  0.522679,   0.885973,   0.762040]
    Electron size [Ang]:                  2.518874
      Cartesian components [Ang]:       [  1.503275,   1.518875,   1.333382]
    RMS electron-hole separation [Ang]:   3.837055
      Cartesian components [Ang]:       [  1.591055,   1.751730,   3.020427]
    Covariance(r_h, r_e) [Ang^2]:         0.016483
    Correlation coefficient:              0.005112
    Center-of-mass size [Ang]:            1.415674
      Cartesian components [Ang]:       [  0.796022,   0.882511,   0.769193]

  Decomposition into state-averaged NTOs
    H- 1 -> L+ 4:  0.6028 ( 72.7%)
    H- 1 -> L+ 2:  0.2391 ( 11.4%)
    H- 1 -> L+ 6: -0.1855 (  6.9%)
                   omega =  91.4%
  ----------------------------------------------------------------------------


  Excited state 5 (singlet, B2)                                    [converged]
  ----------------------------------------------------------------------------
  Term symbol:  5 (1) B2                                    R^2 =  3.28028e-09

  Total energy:                                            -78.5245955761 a.u.
  Excitation energy:                                               7.720020 eV

  Osc. strength:                                                      0.171967
  Trans. dip. moment [a.u.]:           [  -0.000000,    0.953531,   -0.000000]
  <i|r^2|0> [a.u.]:                    [   0.000000,   -0.000000,   -0.000000]

  Dip. moment [a.u.]:                  [  -0.000000,   -0.000000,    3.712654]
  Total dipole [Debye]:                                               9.436628
  <r^2> [a.u.]:                        [  35.244018,   24.176964,  123.863204]
  Total <r^2> [a.u.]:                                               183.284185

  V1^2 = 0.9495, V2^2 = 0.0505

  Important amplitudes:
      occ i      occ j       vir a       vir b          v   
    ---------------------------------------------------------
     1 (B2) A               8 (A1) A                 -0.6302
     1 (B2) A               7 (A1) A                  0.2056
    ---------------------------------------------------------

  Density matrix analysis:
  ------------------------
  NOs
    Occupation of frontier NOs:
       0.9830   0.9903
    Number of electrons: 18.000000
    Number of unpaired electrons: n_u =  2.35724, n_u,nl =  2.03045
    NO participation ratio (PR_NO):  2.842012
  
  
  Mulliken Population Analysis
  Atom      Charge (e)              h+              e-           Del q
  --------------------------------------------------------------------
   1 C       -5.843742        0.446255       -5.135492       -4.689237
   2 C        4.342105        0.640910        3.751366        4.392276
   3 H        0.156477        0.089580        0.004490        0.094070
   4 H        0.241134        0.065314        0.003807        0.069121
   5 H        0.156477        0.089580        0.004490        0.094070
   6 H        0.241134        0.065314        0.003807        0.069121
   7 H       -0.293585        0.006819       -0.036240       -0.029421
  --------------------------------------------------------------------
  Sum:       -1.000000        1.403771       -1.403771       -0.000000
  
  Multipole moment analysis of the density matrix
    Molecular charge:                      -1.000000
    Number of electrons:                   18.000000
      Center of electronic charge [Ang]: [  0.000000,   0.000000,  -0.109147]
    Total nuclear charge:                  17.000000
      Center of nuclear charge [Ang]:    [ -0.000000,   0.000000,  -0.000000]
    Dipole moment [D]:                     9.436625
      Cartesian components [D]:          [ -0.000000,  -0.000000,   9.436625]
    RMS size of the density [Ang]:         1.685071
      Cartesian components [Ang]:        [  0.740470,   0.613290,   1.383851]
  
  Exciton analysis of the difference density matrix
    <r_h> [Ang]:                  [ -0.000000,  -0.000000,   0.198866]
    <r_e> [Ang]:                  [  0.000000,  -0.000000,   0.616151]
    |<r_e - r_h>| [Ang]:            0.417284
    Hole size [Ang]:                1.716785
      Cartesian components [Ang]: [  0.811900,   0.921567,   1.199535]
    Electron size [Ang]:            2.702666
      Cartesian components [Ang]: [  1.454827,   1.461538,   1.746937]

  Transition density matrix analysis:
  -----------------------------------
  
  CT numbers (Mulliken)
    omega =     0.9187
    <Phe> =    -0.0156
  
  Exciton analysis of the transition density matrix
    Trans. dipole moment [D]:             1.211817
      Cartesian components [D]:         [ -0.000000,   1.211817,  -0.000000]
    <r_h> [Ang]:                        [  0.000000,   0.000000,   0.269214]
    <r_e> [Ang]:                        [  0.000000,   0.000000,   0.818515]
    |<r_e - r_h>| [Ang]:                  0.549301
    Hole size [Ang]:                      1.280785
      Cartesian components [Ang]:       [  0.522384,   0.885199,   0.764164]
    Electron size [Ang]:                  3.014627
      Cartesian components [Ang]:       [  1.664295,   1.686542,   1.863778]
    RMS electron-hole separation [Ang]:   3.310124
      Cartesian components [Ang]:       [  1.743566,   1.894865,   2.079997]
    Covariance(r_h, r_e) [Ang^2]:         0.036598
    Correlation coefficient:              0.009479
    Center-of-mass size [Ang]:            1.643288
      Cartesian components [Ang]:       [  0.872569,   0.957274,   1.011259]

  Decomposition into state-averaged NTOs
    H- 1 -> L+ 2:  0.5820 ( 67.8%)
    H- 1 -> L+ 7: -0.2527 ( 12.8%)
    H- 1 -> L+ 4: -0.2276 ( 10.4%)
                   omega =  91.9%
  ----------------------------------------------------------------------------


  Excited state 6 (singlet, B2)                                    [converged]
  ----------------------------------------------------------------------------
  Term symbol:  6 (1) B2                                    R^2 =  8.57341e-09

  Total energy:                                            -78.4575619479 a.u.
  Excitation energy:                                               9.544098 eV

  Osc. strength:                                                      0.001170
  Trans. dip. moment [a.u.]:           [   0.000000,    0.070748,   -0.000000]
  <i|r^2|0> [a.u.]:                    [   0.000000,   -0.000000,   -0.000000]

  Dip. moment [a.u.]:                  [   0.000000,    0.000000,   -0.255295]
  Total dipole [Debye]:                                               0.648896
  <r^2> [a.u.]:                        [  30.499242,   32.081818,   88.900521]
  Total <r^2> [a.u.]:                                               151.481581

  V1^2 = 0.9292, V2^2 = 0.0708

  Important amplitudes:
      occ i      occ j       vir a       vir b          v   
    ---------------------------------------------------------
     6 (A1) A               5 (B2) A                  0.6609
     6 (A1) A               6 (B2) A                  0.1389
    ---------------------------------------------------------

  Density matrix analysis:
  ------------------------
  NOs
    Occupation of frontier NOs:
       0.9771   0.9961
    Number of electrons: 18.000000
    Number of unpaired electrons: n_u =  2.45190, n_u,nl =  2.05779
    NO participation ratio (PR_NO):  3.063450
  
  
  Mulliken Population Analysis
  Atom      Charge (e)              h+              e-           Del q
  --------------------------------------------------------------------
   1 C       -0.706704        0.871945       -0.424144        0.447801
   2 C       -0.685092        0.020562       -0.655484       -0.634922
   3 H        0.048590        0.003589       -0.017406       -0.013817
   4 H        0.096915       -0.011885       -0.063212       -0.075097
   5 H        0.048590        0.003589       -0.017406       -0.013817
   6 H        0.096915       -0.011885       -0.063212       -0.075097
   7 H        0.100786        0.402000       -0.037050        0.364950
  --------------------------------------------------------------------
  Sum:       -1.000000        1.277914       -1.277914        0.000000
  
  Multipole moment analysis of the density matrix
    Molecular charge:                      -1.000000
    Number of electrons:                   18.000000
      Center of electronic charge [Ang]: [ -0.000000,  -0.000000,   0.007505]
    Total nuclear charge:                  17.000000
      Center of nuclear charge [Ang]:    [ -0.000000,   0.000000,  -0.000000]
    Dipole moment [D]:                     0.648896
      Cartesian components [D]:          [  0.000000,   0.000000,  -0.648896]
    RMS size of the density [Ang]:         1.535110
      Cartesian components [Ang]:        [  0.688826,   0.706471,   1.176002]
  
  Exciton analysis of the difference density matrix
    <r_h> [Ang]:                  [  0.000000,  -0.000000,  -2.265419]
    <r_e> [Ang]:                  [ -0.000000,  -0.000000,  -0.163933]
    |<r_e - r_h>| [Ang]:            2.101487
    Hole size [Ang]:                2.138021
      Cartesian components [Ang]: [  1.014201,   1.018340,   1.582882]
    Electron size [Ang]:            2.804863
      Cartesian components [Ang]: [  1.260854,   2.045176,   1.447329]

  Transition density matrix analysis:
  -----------------------------------
  
  CT numbers (Mulliken)
    omega =     0.9133
    <Phe> =    -0.0010
  
  Exciton analysis of the transition density matrix
    Trans. dipole moment [D]:             0.089912
      Cartesian components [D]:         [  0.000000,   0.089912,  -0.000000]
    <r_h> [Ang]:                        [ -0.000000,   0.000000,  -2.796513]
    <r_e> [Ang]:                        [ -0.000000,  -0.000000,   0.101844]
    |<r_e - r_h>| [Ang]:                  2.898357
    Hole size [Ang]:                      1.606131
      Cartesian components [Ang]:       [  0.885951,   0.889151,   1.002077]
    Electron size [Ang]:                  2.921786
      Cartesian components [Ang]:       [  1.306186,   2.257169,   1.317533]
    RMS electron-hole separation [Ang]:   4.413316
      Cartesian components [Ang]:       [  1.578278,   2.425285,   3.332325]
    Covariance(r_h, r_e) [Ang^2]:         0.019801
    Correlation coefficient:              0.004220
    Center-of-mass size [Ang]:            1.670037
      Cartesian components [Ang]:       [  0.789162,   1.213342,   0.833095]

  Decomposition into state-averaged NTOs
    H- 0 -> L+ 5:  0.6613 ( 87.5%)
    H- 0 -> L+ 3:  0.1184 (  2.8%)
                   omega =  91.3%
  ----------------------------------------------------------------------------


  Excited state 7 (singlet, B2)                                    [converged]
  ----------------------------------------------------------------------------
  Term symbol:  7 (1) B2                                    R^2 =  7.83961e-08

  Total energy:                                            -78.4548257562 a.u.
  Excitation energy:                                               9.618554 eV

  Osc. strength:                                                      0.000387
  Trans. dip. moment [a.u.]:           [   0.000000,   -0.040518,   -0.000000]
  <i|r^2|0> [a.u.]:                    [  -0.000000,   -0.000000,    0.000000]

  Dip. moment [a.u.]:                  [  -0.000000,    0.000000,    4.282186]
  Total dipole [Debye]:                                              10.884232
  <r^2> [a.u.]:                        [  28.039493,   21.954164,  114.783959]
  Total <r^2> [a.u.]:                                               164.777617

  V1^2 = 0.9495, V2^2 = 0.0505

  Important amplitudes:
      occ i      occ j       vir a       vir b          v   
    ---------------------------------------------------------
     5 (A1) A               4 (B2) A                 -0.4921
     5 (A1) A               3 (B2) A                 -0.3270
    ---------------------------------------------------------

  Density matrix analysis:
  ------------------------
  NOs
    Occupation of frontier NOs:
       0.9783   1.0200
    Number of electrons: 18.000000
    Number of unpaired electrons: n_u =  2.42872, n_u,nl =  2.04943
    NO participation ratio (PR_NO):  3.055056
  
  
  Mulliken Population Analysis
  Atom      Charge (e)              h+              e-           Del q
  --------------------------------------------------------------------
   1 C       -1.253426        0.477346       -0.576267       -0.098921
   2 C       -0.216982        0.386317       -0.553128       -0.166811
   3 H        0.129044        0.074074       -0.007437        0.066637
   4 H        0.236529        0.073131       -0.008615        0.064516
   5 H        0.129044        0.074074       -0.007437        0.066637
   6 H        0.236529        0.073131       -0.008615        0.064516
   7 H       -0.260739        0.015301       -0.011876        0.003425
  --------------------------------------------------------------------
  Sum:       -1.000000        1.173374       -1.173374       -0.000000
  
  Multipole moment analysis of the density matrix
    Molecular charge:                      -1.000000
    Number of electrons:                   18.000000
      Center of electronic charge [Ang]: [  0.000000,  -0.000000,  -0.125891]
    Total nuclear charge:                  17.000000
      Center of nuclear charge [Ang]:    [ -0.000000,   0.000000,  -0.000000]
    Dipole moment [D]:                     10.884229
      Cartesian components [D]:          [ -0.000000,   0.000000,  10.884229]
    RMS size of the density [Ang]:         1.596127
      Cartesian components [Ang]:        [  0.660465,   0.584418,   1.330361]
  
  Exciton analysis of the difference density matrix
    <r_h> [Ang]:                  [ -0.000000,  -0.000000,   0.016647]
    <r_e> [Ang]:                  [  0.000000,  -0.000000,   0.259015]
    |<r_e - r_h>| [Ang]:            0.242368
    Hole size [Ang]:                1.560056
      Cartesian components [Ang]: [  0.715382,   0.585665,   1.256582]
    Electron size [Ang]:            1.889386
      Cartesian components [Ang]: [  0.732045,   1.162758,   1.296875]

  Transition density matrix analysis:
  -----------------------------------
  
  CT numbers (Mulliken)
    omega =     0.9187
    <Phe> =    -0.0157
  
  Exciton analysis of the transition density matrix
    Trans. dipole moment [D]:             0.051493
      Cartesian components [D]:         [  0.000000,  -0.051493,  -0.000000]
    <r_h> [Ang]:                        [ -0.000000,  -0.000000,   0.019193]
    <r_e> [Ang]:                        [  0.000000,  -0.000000,   0.288452]
    |<r_e - r_h>| [Ang]:                  0.269258
    Hole size [Ang]:                      1.362880
      Cartesian components [Ang]:       [  0.602707,   0.428017,   1.144983]
    Electron size [Ang]:                  1.942643
      Cartesian components [Ang]:       [  0.739974,   1.225585,   1.313104]
    RMS electron-hole separation [Ang]:   2.377303
      Cartesian components [Ang]:       [  0.954736,   1.296996,   1.748671]
    Covariance(r_h, r_e) [Ang^2]:         0.026118
    Correlation coefficient:              0.009865
    Center-of-mass size [Ang]:            1.192009
      Cartesian components [Ang]:       [  0.477000,   0.649676,   0.878224]

  Decomposition into state-averaged NTOs
    H- 2 -> L+ 0:  0.6607 ( 87.3%)
    H- 2 -> L+ 1:  0.1122 (  2.5%)
                   omega =  91.9%
  ----------------------------------------------------------------------------


  Excited state 8 (singlet, B2)                                    [converged]
  ----------------------------------------------------------------------------
  Term symbol:  8 (1) B2                                    R^2 =  3.06608e-08

  Total energy:                                            -78.4341766631 a.u.
  Excitation energy:                                              10.180444 eV

  Osc. strength:                                                      0.054349
  Trans. dip. moment [a.u.]:           [  -0.000000,    0.466801,   -0.000000]
  <i|r^2|0> [a.u.]:                    [   0.000000,    0.000000,   -0.000000]

  Dip. moment [a.u.]:                  [   0.000000,    0.000000,    4.668977]
  Total dipole [Debye]:                                              11.867357
  <r^2> [a.u.]:                        [  35.651481,   22.253850,  124.397713]
  Total <r^2> [a.u.]:                                               182.303044

  V1^2 = 0.9470, V2^2 = 0.0530

  Important amplitudes:
      occ i      occ j       vir a       vir b          v   
    ---------------------------------------------------------
     1 (B2) A               9 (A1) A                  0.4775
     1 (B2) A              10 (A1) A                 -0.3478
    ---------------------------------------------------------

  Density matrix analysis:
  ------------------------
  NOs
    Occupation of frontier NOs:
       0.9747   0.9929
    Number of electrons: 18.000000
    Number of unpaired electrons: n_u =  2.38335, n_u,nl =  2.03614
    NO participation ratio (PR_NO):  2.919575
  
  
  Mulliken Population Analysis
  Atom      Charge (e)              h+              e-           Del q
  --------------------------------------------------------------------
   1 C        0.916606        0.490873        1.580238        2.071111
   2 C       -2.039087        0.594246       -2.583163       -1.988917
   3 H       -0.050001        0.070069       -0.182476       -0.112408
   4 H        0.260723        0.073632        0.015078        0.088710
   5 H       -0.050001        0.070069       -0.182476       -0.112408
   6 H        0.260723        0.073632        0.015078        0.088710
   7 H       -0.298963        0.010098       -0.044897       -0.034799
  --------------------------------------------------------------------
  Sum:       -1.000000        1.382618       -1.382618       -0.000000
  
  Multipole moment analysis of the density matrix
    Molecular charge:                      -1.000000
    Number of electrons:                   18.000000
      Center of electronic charge [Ang]: [ -0.000000,  -0.000000,  -0.137262]
    Total nuclear charge:                  17.000000
      Center of nuclear charge [Ang]:    [ -0.000000,   0.000000,  -0.000000]
    Dipole moment [D]:                     11.867354
      Cartesian components [D]:          [  0.000000,   0.000000,  11.867354]
    RMS size of the density [Ang]:         1.678473
      Cartesian components [Ang]:        [  0.744738,   0.588393,   1.384352]
  
  Exciton analysis of the difference density matrix
    <r_h> [Ang]:                  [ -0.000000,  -0.000000,   0.179065]
    <r_e> [Ang]:                  [ -0.000000,  -0.000000,   0.236715]
    |<r_e - r_h>| [Ang]:            0.057650
    Hole size [Ang]:                1.693491
      Cartesian components [Ang]: [  0.793498,   0.903113,   1.192753]
    Electron size [Ang]:            2.722910
      Cartesian components [Ang]: [  1.480473,   1.316287,   1.868108]

  Transition density matrix analysis:
  -----------------------------------
  
  CT numbers (Mulliken)
    omega =     0.9149
    <Phe> =    -0.0055
  
  Exciton analysis of the transition density matrix
    Trans. dipole moment [D]:             0.593245
      Cartesian components [D]:         [ -0.000000,   0.593245,  -0.000000]
    <r_h> [Ang]:                        [ -0.000000,   0.000000,   0.259708]
    <r_e> [Ang]:                        [ -0.000000,  -0.000000,   0.326817]
    |<r_e - r_h>| [Ang]:                  0.067110
    Hole size [Ang]:                      1.287264
      Cartesian components [Ang]:       [  0.523761,   0.880554,   0.779326]
    Electron size [Ang]:                  3.061327
      Cartesian components [Ang]:       [  1.691098,   1.501521,   2.063333]
    RMS electron-hole separation [Ang]:   3.313761
      Cartesian components [Ang]:       [  1.768001,   1.734211,   2.201748]
    Covariance(r_h, r_e) [Ang^2]:         0.026132
    Correlation coefficient:              0.006631
    Center-of-mass size [Ang]:            1.664409
      Cartesian components [Ang]:       [  0.886348,   0.873555,   1.105237]

  Decomposition into state-averaged NTOs
    H- 1 -> L+ 6: -0.5149 ( 53.0%)
    H- 1 -> L+ 7: -0.3805 ( 29.0%)
    H- 1 -> L+ 2: -0.1596 (  5.1%)
    H- 1 -> L+ 4: -0.1243 (  3.1%)
                   omega =  91.5%
  ----------------------------------------------------------------------------


  Excited state 9 (singlet, B2)                                    [converged]
  ----------------------------------------------------------------------------
  Term symbol:  9 (1) B2                                    R^2 =  1.35610e-08

  Total energy:                                            -78.4242047233 a.u.
  Excitation energy:                                              10.451794 eV

  Osc. strength:                                                      0.083541
  Trans. dip. moment [a.u.]:           [   0.000000,   -0.571183,    0.000000]
  <i|r^2|0> [a.u.]:                    [   0.000000,    0.000000,    0.000000]

  Dip. moment [a.u.]:                  [  -0.000000,    0.000000,    4.061123]
  Total dipole [Debye]:                                              10.322347
  <r^2> [a.u.]:                        [  33.686777,   22.703552,  121.592541]
  Total <r^2> [a.u.]:                                               177.982870

  V1^2 = 0.9507, V2^2 = 0.0493

  Important amplitudes:
      occ i      occ j       vir a       vir b          v   
    ---------------------------------------------------------
     1 (B2) A              11 (A1) A                 -0.5859
     1 (B2) A               9 (A1) A                  0.2333
    ---------------------------------------------------------

  Density matrix analysis:
  ------------------------
  NOs
    Occupation of frontier NOs:
       0.9748   0.9892
    Number of electrons: 18.000000
    Number of unpaired electrons: n_u =  2.37854, n_u,nl =  2.03494
    NO participation ratio (PR_NO):  2.918886
  
  
  Mulliken Population Analysis
  Atom      Charge (e)              h+              e-           Del q
  --------------------------------------------------------------------
   1 C       -0.888361        0.698814       -0.432670        0.266144
   2 C       -0.133849        0.389148       -0.472826       -0.083679
   3 H        0.088749        0.067880       -0.041537        0.026343
   4 H        0.057015        0.052196       -0.167194       -0.114997
   5 H        0.088749        0.067880       -0.041537        0.026343
   6 H        0.057015        0.052196       -0.167194       -0.114997
   7 H       -0.269320        0.007874       -0.013029       -0.005156
  --------------------------------------------------------------------
  Sum:       -1.000000        1.335988       -1.335988       -0.000000
  
  Multipole moment analysis of the density matrix
    Molecular charge:                      -1.000000
    Number of electrons:                   18.000000
      Center of electronic charge [Ang]: [  0.000000,  -0.000000,  -0.119392]
    Total nuclear charge:                  17.000000
      Center of nuclear charge [Ang]:    [ -0.000000,   0.000000,  -0.000000]
    Dipole moment [D]:                     10.322344
      Cartesian components [D]:          [ -0.000000,   0.000000,  10.322344]
    RMS size of the density [Ang]:         1.659714
      Cartesian components [Ang]:        [  0.723927,   0.594308,   1.370174]
  
  Exciton analysis of the difference density matrix
    <r_h> [Ang]:                  [ -0.000000,  -0.000000,   0.224497]
    <r_e> [Ang]:                  [  0.000000,  -0.000000,   0.524927]
    |<r_e - r_h>| [Ang]:            0.300429
    Hole size [Ang]:                1.637708
      Cartesian components [Ang]: [  0.771824,   0.903799,   1.126731]
    Electron size [Ang]:            2.506238
      Cartesian components [Ang]: [  1.341860,   1.363861,   1.618803]

  Transition density matrix analysis:
  -----------------------------------
  
  CT numbers (Mulliken)
    omega =     0.9191
    <Phe> =    -0.0084
  
  Exciton analysis of the transition density matrix
    Trans. dipole moment [D]:             0.725902
      Cartesian components [D]:         [  0.000000,  -0.725902,   0.000000]
    <r_h> [Ang]:                        [  0.000000,   0.000000,   0.260207]
    <r_e> [Ang]:                        [  0.000000,  -0.000000,   0.631507]
    |<r_e - r_h>| [Ang]:                  0.371299
    Hole size [Ang]:                      1.292290
      Cartesian components [Ang]:       [  0.524216,   0.881099,   0.786686]
    Electron size [Ang]:                  2.764692
      Cartesian components [Ang]:       [  1.506888,   1.534862,   1.736954]
    RMS electron-hole separation [Ang]:   3.063563
      Cartesian components [Ang]:       [  1.592082,   1.761294,   1.936113]
    Covariance(r_h, r_e) [Ang^2]:         0.032991
    Correlation coefficient:              0.009234
    Center-of-mass size [Ang]:            1.531300
      Cartesian components [Ang]:       [  0.799422,   0.889117,   0.956700]

  Decomposition into state-averaged NTOs
    H- 1 -> L+ 7:  0.4909 ( 48.2%)
    H- 1 -> L+ 6: -0.3856 ( 29.7%)
    H- 1 -> L+ 2:  0.1965 (  7.7%)
    H- 1 -> L+ 4: -0.1609 (  5.2%)
                   omega =  91.9%
  ----------------------------------------------------------------------------


  Excited state 10 (singlet, B2)                                    [converged]
  ----------------------------------------------------------------------------
  Term symbol:  10 (1) B2                                   R^2 =  5.65368e-06

  Total energy:                                            -78.4048455205 a.u.
  Excitation energy:                                              10.978585 eV

  Osc. strength:                                                      0.018420
  Trans. dip. moment [a.u.]:           [  -0.000000,    0.261691,    0.000000]
  <i|r^2|0> [a.u.]:                    [  -0.000000,   -0.000000,    0.000000]

  Dip. moment [a.u.]:                  [  -0.000000,    0.000000,    3.137648]
  Total dipole [Debye]:                                               7.975107
  <r^2> [a.u.]:                        [  33.415878,   41.439622,  117.337966]
  Total <r^2> [a.u.]:                                               192.193467

  V1^2 = 0.9177, V2^2 = 0.0823

  Important amplitudes:
      occ i      occ j       vir a       vir b          v   
    ---------------------------------------------------------
     5 (A1) A               2 (B2) A                  0.5749
     5 (A1) A               3 (B2) A                  0.2809
    ---------------------------------------------------------

  Density matrix analysis:
  ------------------------
  NOs
    Occupation of frontier NOs:
       0.9769   1.0293
    Number of electrons: 18.000000
    Number of unpaired electrons: n_u =  2.49652, n_u,nl =  2.07386
    NO participation ratio (PR_NO):  3.251428
  
  
  Mulliken Population Analysis
  Atom      Charge (e)              h+              e-           Del q
  --------------------------------------------------------------------
   1 C       -1.780603        0.518022       -1.144121       -0.626098
   2 C        0.167482        0.463959       -0.246306        0.217652
   3 H        0.166239        0.112751       -0.008919        0.103832
   4 H        0.282501        0.120427       -0.009938        0.110489
   5 H        0.166239        0.112751       -0.008919        0.103832
   6 H        0.282501        0.120427       -0.009938        0.110489
   7 H       -0.284359        0.019262       -0.039457       -0.020195
  --------------------------------------------------------------------
  Sum:       -1.000000        1.467599       -1.467599       -0.000000
  
  Multipole moment analysis of the density matrix
    Molecular charge:                      -1.000000
    Number of electrons:                   18.000000
      Center of electronic charge [Ang]: [  0.000000,  -0.000000,  -0.092243]
    Total nuclear charge:                  17.000000
      Center of nuclear charge [Ang]:    [ -0.000000,   0.000000,  -0.000000]
    Dipole moment [D]:                     7.975104
      Cartesian components [D]:          [ -0.000000,   0.000000,   7.975104]
    RMS size of the density [Ang]:         1.726694
      Cartesian components [Ang]:        [  0.721010,   0.802921,   1.347937]
  
  Exciton analysis of the difference density matrix
    <r_h> [Ang]:                  [ -0.000000,  -0.000000,  -0.030196]
    <r_e> [Ang]:                  [ -0.000000,  -0.000000,   0.576272]
    |<r_e - r_h>| [Ang]:            0.606468
    Hole size [Ang]:                1.842247
      Cartesian components [Ang]: [  0.875079,   0.714907,   1.454999]
    Electron size [Ang]:            3.042288
      Cartesian components [Ang]: [  1.345696,   2.244054,   1.552045]

  Transition density matrix analysis:
  -----------------------------------
  
  CT numbers (Mulliken)
    omega =     0.8990
    <Phe> =    -0.0022
  
  Exciton analysis of the transition density matrix
    Trans. dipole moment [D]:             0.332576
      Cartesian components [D]:         [ -0.000000,   0.332576,   0.000000]
    <r_h> [Ang]:                        [ -0.000000,  -0.000000,   0.028394]
    <r_e> [Ang]:                        [ -0.000000,  -0.000000,   0.895595]
    |<r_e - r_h>| [Ang]:                  0.867201
    Hole size [Ang]:                      1.405521
      Cartesian components [Ang]:       [  0.622095,   0.426597,   1.185960]
    Electron size [Ang]:                  3.459373
      Cartesian components [Ang]:       [  1.546282,   2.676476,   1.553303]
    RMS electron-hole separation [Ang]:   3.798516
      Cartesian components [Ang]:       [  1.666642,   2.709709,   2.075694]
    Covariance(r_h, r_e) [Ang^2]:         0.133031
    Correlation coefficient:              0.027360
    Center-of-mass size [Ang]:            1.884729
      Cartesian components [Ang]:       [  0.833409,   1.355405,   1.010202]

  Decomposition into state-averaged NTOs
    H- 2 -> L+ 1: -0.6538 ( 85.5%)
    H- 2 -> L+ 0:  0.1093 (  2.4%)
    H- 0 -> L+ 8:  0.0793 (  1.3%)
                   omega =  89.9%
  ----------------------------------------------------------------------------


--------------------------------------------------------------------------------
  Time of ADC calculation:  CPU 137.33 s  wall 40.02 s
================================================================================
 
 --------------------------------------------------------------
             Orbital Energies (a.u.) and Symmetries
 --------------------------------------------------------------
 
 Alpha MOs, Restricted
 -- Occupied --                  
-11.074 -11.069  -0.881  -0.619  -0.500  -0.404  -0.352  -0.218
  1 A1    2 A1    3 A1    4 A1    1 B1    5 A1    2 B1    1 B2                 
 -0.033
  6 A1                                                                         
 -- Virtual --                   
  0.171   0.193   0.200   0.243   0.248   0.258   0.328   0.334
  7 A1    3 B1    2 B2    3 B2    4 B1    8 A1    9 A1    4 B2                 
  0.348   0.405   0.453   0.463   0.493   0.494   0.508   0.516
 10 A1   11 A1    5 B1   12 A1    5 B2    6 B1   13 A1    7 B1                 
  0.593   0.595   0.699   0.772   0.992   1.007   1.090   1.109
  6 B2   14 A1    8 B1   15 A1   16 A1    9 B1   17 A1   18 A1                 
  1.137   1.181   1.203   1.225   1.273   1.274   1.326   1.336
 19 A1   10 B1   11 B1   20 A1    7 B2    1 A2    8 B2   21 A1                 
  1.447   1.452   1.493   1.612   1.767   1.811   1.860   1.887
  2 A2    9 B2   22 A1   12 B1   23 A1   13 B1   14 B1   10 B2                 
  1.994   2.033   2.062   2.109   2.178   2.236   2.262   2.305
 15 B1   11 B2   24 A1   12 B2    3 A2   25 A1   16 B1   26 A1                 
  2.347   2.530   2.574   2.636   2.737   2.746   3.004   3.008
 13 B2   27 A1    4 A2   28 A1   17 B1   29 A1   18 B1   30 A1                 
  3.449   3.508
 31 A1   19 B1                                                                 
 
 Beta MOs, Restricted
 -- Occupied --                  
-11.074 -11.069  -0.881  -0.619  -0.500  -0.404  -0.352  -0.218
  1 A1    2 A1    3 A1    4 A1    1 B1    5 A1    2 B1    1 B2                 
 -0.033
  6 A1                                                                         
 -- Virtual --                   
  0.171   0.193   0.200   0.243   0.248   0.258   0.328   0.334
  7 A1    3 B1    2 B2    3 B2    4 B1    8 A1    9 A1    4 B2                 
  0.348   0.405   0.453   0.463   0.493   0.494   0.508   0.516
 10 A1   11 A1    5 B1   12 A1    5 B2    6 B1   13 A1    7 B1                 
  0.593   0.595   0.699   0.772   0.992   1.007   1.090   1.109
  6 B2   14 A1    8 B1   15 A1   16 A1    9 B1   17 A1   18 A1                 
  1.137   1.181   1.203   1.225   1.273   1.274   1.326   1.336
 19 A1   10 B1   11 B1   20 A1    7 B2    1 A2    8 B2   21 A1                 
  1.447   1.452   1.493   1.612   1.767   1.811   1.860   1.887
  2 A2    9 B2   22 A1   12 B1   23 A1   13 B1   14 B1   10 B2                 
  1.994   2.033   2.062   2.109   2.178   2.236   2.262   2.305
 15 B1   11 B2   24 A1   12 B2    3 A2   25 A1   16 B1   26 A1                 
  2.347   2.530   2.574   2.636   2.737   2.746   3.004   3.008
 13 B2   27 A1    4 A2   28 A1   17 B1   29 A1   18 B1   30 A1                 
  3.449   3.508
 31 A1   19 B1                                                                 
 --------------------------------------------------------------
 
          Ground-State Mulliken Net Atomic Charges

     Atom                 Charge (a.u.)
  ----------------------------------------
      1 C                    -1.156618
      2 C                     0.009603
      3 H                     0.055172
      4 H                     0.169251
      5 H                     0.055172
      6 H                     0.169251
      7 H                    -0.301832
  ----------------------------------------
  Sum of atomic charges =    -1.000000

 -----------------------------------------------------------------
                    Cartesian Multipole Moments
 -----------------------------------------------------------------
    Charge (ESU x 10^10)
                -4.8032
    Dipole Moment (Debye)
         X       0.0000      Y      -0.0000      Z      12.2739
       Tot      12.2739
    Quadrupole Moments (Debye-Ang)
        XX     -19.4224     XY      -0.0000     YY     -23.7700
        XZ      -0.0000     YZ       0.0000     ZZ     -61.3169
    Octopole Moments (Debye-Ang^2)
       XXX       0.0000    XXY      -0.0000    XYY       0.0000
       YYY      -0.0000    XXZ      16.4852    XYZ       0.0000
       YYZ      16.3086    XZZ       0.0000    YZZ      -0.0000
       ZZZ     157.3185
    Hexadecapole Moments (Debye-Ang^3)
      XXXX     -57.7086   XXXY      -0.0000   XXYY     -19.5397
      XYYY      -0.0000   YYYY     -54.1729   XXXZ      -0.0000
      XXYZ       0.0000   XYYZ      -0.0000   YYYZ       0.0000
      XXZZ     -82.2974   XYZZ      -0.0000   YYZZ     -85.7362
      XZZZ      -0.0000   YZZZ       0.0000   ZZZZ    -726.2250
 -----------------------------------------------------------------
 Total job time:  122.78s(wall), 184.17s(cpu) 
 Fri Mar 25 14:23:31 2022

        *************************************************************
        *                                                           *
        *  Thank you very much for using Q-Chem.  Have a nice day.  *
        *                                                           *
        *************************************************************


