/src/tsommerfeld/qchem/exe/qcprog.exe .input0.611111.1772.qcin.1 /src/jdavis/qchem.scratch/qchem1772/

                  Welcome to Q-Chem
     A Quantum Leap Into The Future Of Chemistry


 Q-Chem 5.4 (devel), Q-Chem, Inc., Pleasanton, CA (2021)

 E. Epifanovsky,  A. T. B. Gilbert,  Xintian Feng,  Joonho Lee,  Yuezhi Mao,  
 N. Mardirossian,  P. Pokhilko,  A. White,  M. Wormit,  M. P. Coons,  
 A. L. Dempwolff,  Zhengting Gan,  D. Hait,  P. R. Horn,  L. D. Jacobson,  
 I. Kaliman,  J. Kussmann,  A. W. Lange,  Ka Un Lao,  D. S. Levine,  Jie Liu,  
 S. C. McKenzie,  A. F. Morrison,  K. Nanda,  F. Plasser,  D. R. Rehn,  
 M. L. Vidal,  Zhi-Qiang You,  Ying Zhu,  B. Alam,  B. Albrecht,  
 A. Aldossary,  E. Alguire,  J. H. Andersen,  D. Barton,  K. Begam,  A. Behn,  
 Y. A. Bernard,  E. J. Berquist,  H. Burton,  A. Carreras,  K. Carter-Fenk,  
 R. Chakraborty,  A. D. Chien,  K. D. Closser,  V. Cofer-Shabica,  
 S. Dasgupta,  Jia Deng,  M. de Wergifosse,  M. Diedenhofen,  Hainam Do,  
 S. Ehlert,  Po-Tung Fang,  S. Fatehi,  Qingguo Feng,  T. Friedhoff,  
 J. Gayvert,  Qinghui Ge,  G. Gidofalvi,  M. Goldey,  J. Gomes,  
 C. Gonzalez-Espinoza,  S. Gulania,  A. Gunina,  M. W. D. Hanson-Heine,  
 P. H. P. Harbach,  A. W. Hauser,  M. F. Herbst,  M. Hernandez Vera,  
 M. Hodecker,  Z. C. Holden,  S. Houck,  Xunkun Huang,  Kerwin Hui,  
 B. C. Huynh,  M. Ivanov,  Hyunjun Ji,  Hanjie Jiang,  B. Kaduk,  S. Kaehler,  
 K. Khistyaev,  Jaehoon Kim,  P. Klunzinger,  Z. Koczor-Benda,  
 Joong Hoon Koh,  D. Kosenkov,  L. Koulias,  T. Kowalczyk,  C. M. Krauter,  
 K. Kue,  A. Kunitsa,  T. Kus,  A. Landau,  K. V. Lawler,  D. Lefrancois,  
 S. Lehtola,  Rain Li,  Yi-Pei Li,  Jiashu Liang,  M. Liebenthal,  
 Hung-Hsuan Lin,  You-Sheng Lin,  Fenglai Liu,  Kuan-Yu Liu,  
 M. Loipersberger,  A. Luenser,  A. Manjanath,  P. Manohar,  E. Mansoor,  
 S. F. Manzer,  Shan-Ping Mao,  A. V. Marenich,  T. Markovich,  S. Mason,  
 S. A. Maurer,  P. F. McLaughlin,  M. F. S. J. Menger,  J.-M. Mewes,  
 S. A. Mewes,  P. Morgante,  J. W. Mullinax,  K. J. Oosterbaan,  G. Paran,  
 Alexander C. Paul,  Suranjan K. Paul,  F. Pavosevic,  Zheng Pei,  S. Prager,  
 E. I. Proynov,  E. Ramos,  B. Rana,  A. E. Rask,  A. Rettig,  R. M. Richard,  
 F. Rob,  E. Rossomme,  T. Scheele,  M. Scheurer,  M. Schneider,  
 N. Sergueev,  S. M. Sharada,  W. Skomorowski,  D. W. Small,  C. J. Stein,  
 Yu-Chuan Su,  E. J. Sundstrom,  Zhen Tao,  J. Thirman,  T. Tsuchimochi,  
 N. M. Tubman,  S. P. Veccham,  O. Vydrov,  J. Wenzel,  J. Witte,  A. Yamada,  
 Kun Yao,  S. Yeganeh,  S. R. Yost,  A. Zech,  Igor Ying Zhang,  Xing Zhang,  
 Yu Zhang,  D. Zuev,  A. Aspuru-Guzik,  A. T. Bell,  N. A. Besley,  
 K. B. Bravaya,  B. R. Brooks,  D. Casanova,  Jeng-Da Chai,  S. Coriani,  
 C. J. Cramer,  A. E. DePrince, III,  R. A. DiStasio Jr.,  A. Dreuw,  
 B. D. Dunietz,  T. R. Furlani,  W. A. Goddard III,  S. Grimme,  
 S. Hammes-Schiffer,  T. Head-Gordon,  W. J. Hehre,  Chao-Ping Hsu,  
 T.-C. Jagau,  Yousung Jung,  A. Klamt,  Jing Kong,  D. S. Lambrecht,  
 WanZhen Liang,  N. J. Mayhall,  C. W. McCurdy,  J. B. Neaton,  
 C. Ochsenfeld,  J. A. Parkhill,  R. Peverati,  V. A. Rassolov,  Yihan Shao,  
 L. V. Slipchenko,  T. Stauch,  R. P. Steele,  J. E. Subotnik,  
 A. J. W. Thom,  A. Tkatchenko,  D. G. Truhlar,  T. Van Voorhis,  
 T. A. Wesolowski,  K. B. Whaley,  H. L. Woodcock III,  P. M. Zimmerman,  
 S. Faraji,  P. M. W. Gill,  M. Head-Gordon,  J. M. Herbert,  A. I. Krylov

 Additional authors for Version 5.4.1: 
 S. Kotaru,  Shaozhi Li,  Xiangyuan Li,  F. Matz,  A. Molle,  Haisheng Ren,  
 Yingli Su,  Hung-Yi Tsai,  C. Utku,  Fang Wang

 Contributors to earlier versions of Q-Chem not listed above: 
 R. D. Adamson,  B. Austin,  R. Baer,  J. Baker,  G. J. O. Beran,  
 K. Brandhorst,  S. T. Brown,  E. F. C. Byrd,  A. K. Chakraborty,  
 G. K. L. Chan,  Chun-Min Chang,  Yunqing Chen,  C.-L. Cheng,  
 Siu Hung Chien,  D. M. Chipman,  D. L. Crittenden,  H. Dachsel,  
 R. J. Doerksen,  A. D. Dutoi,  R. G. Edgar,  J. Fosso-Tande,  
 L. Fusti-Molnar,  D. Ghosh,  A. Ghysels,  A. Golubeva-Zadorozhnaya,  
 J. Gonthier,  M. S. Gordon,  S. R. Gwaltney,  G. Hawkins,  J. E. Herr,  
 A. Heyden,  S. Hirata,  E. G. Hohenstein,  G. Kedziora,  F. J. Keil,  
 C. Kelley,  Jihan Kim,  R. A. King,  R. Z. Khaliullin,  P. P. Korambath,  
 W. Kurlancheek,  A. Laurent,  A. M. Lee,  M. S. Lee,  S. V. Levchenko,  
 Ching Yeh Lin,  D. Liotard,  E. Livshits,  R. C. Lochan,  I. Lotan,  
 L. A. Martinez-Martinez,  P. E. Maslen,  N. Nair,  D. P. O'Neill,  
 D. Neuhauser,  E. Neuscamman,  C. M. Oana,  R. Olivares-Amaya,  R. Olson,  
 T. M. Perrine,  B. Peters,  P. A. Pieniazek,  A. Prociuk,  Y. M. Rhee,  
 J. Ritchie,  M. A. Rohrdanz,  E. Rosta,  N. J. Russ,  H. F. Schaefer III,  
 M. W. Schmidt,  N. E. Schultz,  S. Sharma,  N. Shenvi,  C. D. Sherrill,  
 A. C. Simmonett,  A. Sodt,  T. Stein,  D. Stuck,  K. S. Thanthiriwatte,  
 V. Vanovschi,  L. Vogt,  Tao Wang,  A. Warshel,  M. A. Watson,  
 C. F. Williams,  Q. Wu,  X. Xu,  Jun Yang,  W. Zhang,  Yan Zhao

 Please cite Q-Chem as follows:
 Y. Shao et al., Mol. Phys. 113, 184-215 (2015)
 DOI: 10.1080/00268976.2014.952696

 Q-Chem 5.4.1 for Intel X86 EM64T Linux

 Parts of Q-Chem use Armadillo 9.900.5 (Nocturnal Misbehaviour).
 http://arma.sourceforge.net/

 Q-Chem begins on Fri Mar 25 13:28:43 2022  

 Host: node01
0

     Scratch files written to /src/jdavis/qchem.scratch/qchem1772//
 Processing $rem in /src/tsommerfeld/qchem/config/preferences:
 Processing $rem in /home/jdavis/.qchemrc:

 Checking the input file for inconsistencies... 	...done.

--------------------------------------------------------------
User input:
--------------------------------------------------------------
$molecule
-1 1
C         0.0000000000    0.0000000000    0.8417902907
C         0.0000000000    0.0000000000   -0.4872097093
H         0.9623488518    0.0000000000    1.3363703127
H         0.9623489048    0.0000000000   -0.9817896873
H        -0.9623488518    0.0000000000    1.3363703127
H        -0.9623489048    0.0000000000   -0.9817896873
H         0.0000000000    0.0000000000   -2.8366446508
$end

$rem
   METHOD adc(2)
   BASIS gen
   PURECART 11
   EE_STATES [0,0,0,10]
   scf_convergence 8
   ADC_DAVIDSON_MAXITER 120
   ADC_DAVIDSON_MAXSUBSPACE 200
   adc_nguess_singles 100
   THRESH 14
   S2THRESH 14
   adc_davidson_conv 5
   adc_davidson_thresh 14
   THREADS 10
   MEM_TOTAL 95000
   STATE_ANALYSIS TRUE
$end
$basis
C 1
S   9   1.00
      6.665000D+03           6.920000D-04
      1.000000D+03           5.329000D-03
      2.280000D+02           2.707700D-02
      6.471000D+01           1.017180D-01
      2.106000D+01           2.747400D-01
      7.495000D+00           4.485640D-01
      2.797000D+00           2.850740D-01
      5.215000D-01           1.520400D-02
      1.596000D-01          -3.191000D-03
S   9   1.00
      6.665000D+03          -1.460000D-04
      1.000000D+03          -1.154000D-03
      2.280000D+02          -5.725000D-03
      6.471000D+01          -2.331200D-02
      2.106000D+01          -6.395500D-02
      7.495000D+00          -1.499810D-01
      2.797000D+00          -1.272620D-01
      5.215000D-01           5.445290D-01
      1.596000D-01           5.804960D-01
S   1   1.00
      1.596000D-01           1.000000D+00
S   1   1.00
      0.0469000              1.0000000
P   4   1.00
      9.439000D+00           3.810900D-02
      2.002000D+00           2.094800D-01
      5.456000D-01           5.085570D-01
      1.517000D-01           4.688420D-01
P   1   1.00
      1.517000D-01           1.000000D+00
P   1   1.00
      0.0370822      1.0000000
P   1   1.00
      0.0185411      1.0000000
D   1   1.00
      5.500000D-01           1.0000000
****
C 2
S   9   1.00
      6.665000D+03           6.920000D-04
      1.000000D+03           5.329000D-03
      2.280000D+02           2.707700D-02
      6.471000D+01           1.017180D-01
      2.106000D+01           2.747400D-01
      7.495000D+00           4.485640D-01
      2.797000D+00           2.850740D-01
      5.215000D-01           1.520400D-02
      1.596000D-01          -3.191000D-03
S   9   1.00
      6.665000D+03          -1.460000D-04
      1.000000D+03          -1.154000D-03
      2.280000D+02          -5.725000D-03
      6.471000D+01          -2.331200D-02
      2.106000D+01          -6.395500D-02
      7.495000D+00          -1.499810D-01
      2.797000D+00          -1.272620D-01
      5.215000D-01           5.445290D-01
      1.596000D-01           5.804960D-01
S   1   1.00
      1.596000D-01           1.000000D+00
S   1   1.00
      0.0469000              1.0000000
P   4   1.00
      9.439000D+00           3.810900D-02
      2.002000D+00           2.094800D-01
      5.456000D-01           5.085570D-01
      1.517000D-01           4.688420D-01
P   1   1.00
      1.517000D-01           1.000000D+00
P   1   1.00
      0.0370822      1.0000000
P   1   1.00
      0.0185411      1.0000000
D   1   1.00
      5.500000D-01           1.0000000
****
H 3
cc-pVDZ
****
H 4
cc-pVDZ
****
H 5
cc-pVDZ
****
H 6
cc-pVDZ
****
H 7
aug-cc-pVDZ
****
$end
--------------------------------------------------------------
 ----------------------------------------------------------------
             Standard Nuclear Orientation (Angstroms)
    I     Atom           X                Y                Z
 ----------------------------------------------------------------
    1      C       0.0000000000     0.0000000000     0.8417902855
    2      C       0.0000000000     0.0000000000    -0.4872097145
    3      H       0.9623488518     0.0000000000     1.3363703075
    4      H       0.9623489048     0.0000000000    -0.9817896925
    5      H      -0.9623488518     0.0000000000     1.3363703075
    6      H      -0.9623489048     0.0000000000    -0.9817896925
    7      H       0.0000000000     0.0000000000    -2.8366446560
 ----------------------------------------------------------------
 Molecular Point Group                 C2v   NOp =  4
 Largest Abelian Subgroup              C2v   NOp =  4
 Nuclear Repulsion Energy =          36.55739271 hartrees
 There are        9 alpha and        9 beta electrons
 Requested basis set is non-standard
 There are 33 shells and 67 basis functions
 Total memory of 95000 MB is distributed as follows: 
   MEM_STATIC is set to 192 MB
   QALLOC/CCMAN JOB total memory use is  94808 MB
 Warning: actual memory use might exceed 95000 MB

 Total QAlloc Memory Limit  95000 MB
 Mega-Array Size       188 MB
 MEM_STATIC part       192 MB

                       Distance Matrix (Angstroms)
             C (  1)   C (  2)   H (  3)   H (  4)   H (  5)   H (  6)
   C (  2)  1.329000
   H (  3)  1.082000  2.061931
   H (  4)  2.061931  1.082000  2.318160
   H (  5)  1.082000  2.061931  1.924698  3.013026
   H (  6)  2.061931  1.082000  3.013026  1.924698  2.318160
   H (  7)  3.678435  2.349435  4.282542  2.089642  4.282542  2.089642

 
 A cutoff of  1.0D-14 yielded    561 shell pairs
 There are      2337 function pairs (      2484 Cartesian)
 Smallest overlap matrix eigenvalue = 3.75E-04

 Scale SEOQF with 1.000000e-01/1.000000e-01/1.000000e-01

 Standard Electronic Orientation quadrupole field applied
 Nucleus-field energy     =    -0.0000000019 hartrees
 ================ Generating on-the-fly SAD Guess ================
Attempting to make child job directory: /src/jdavis/qchem.scratch/qchem1772//Frg1/
Attempting to make child job directory: /src/jdavis/qchem.scratch/qchem1772//Frg2/
Creating input file /src/jdavis/qchem.scratch/qchem1772/Frg1.input
using default PutDataFrgm: nothing
calling putenv with: QCSCRATCH=/src/jdavis/qchem.scratch/qchem1772/ 
Spawning Job For Fragment 0
Done Job For Fragment 0
calling putenv with: QCSCRATCH=/src/jdavis/qchem.scratch 
calling putenv with: QCTHREADS=1 
Creating input file /src/jdavis/qchem.scratch/qchem1772/Frg2.input
using default PutDataFrgm: nothing
calling putenv with: QCSCRATCH=/src/jdavis/qchem.scratch/qchem1772/ 
Spawning Job For Fragment 1
Done Job For Fragment 1
calling putenv with: QCSCRATCH=/src/jdavis/qchem.scratch 
calling putenv with: QCTHREADS=1 
 Time for running child jobs:  CPU 1.77 s  wall 54.29 s
 ============= Method Specific SAD Guess Constructed =============
 Guess from on-the-fly superposition of atomic densities
 Warning: Energy on first SCF cycle will be non-variational
 A restricted Hartree-Fock SCF calculation will be
 performed using Pulay DIIS extrapolation
 SCF converges when DIIS error is below 1.0E-08
 using 10 threads for integral computing
 -------------------------------------------------------
 OpenMP Integral computing Module                
 Release: version 1.0, May 2013, Q-Chem Inc. Pittsburgh 
 -------------------------------------------------------
 ---------------------------------------
  Cycle       Energy         DIIS Error
 ---------------------------------------
    1     -78.8385212452      7.39E-02
    2     -78.4377307183      7.16E-03
    3     -78.4954832973      2.36E-03
    4     -78.4996162471      8.92E-04
    5     -78.5003617211      2.36E-04
    6     -78.5004392294      7.22E-05
    7     -78.5004492826      3.47E-05
    8     -78.5004514943      7.41E-06
    9     -78.5004516487      1.58E-06
   10     -78.5004516586      2.88E-07
   11     -78.5004516590      5.52E-08
   12     -78.5004516590      1.19E-08
   13     -78.5004516590      3.12E-09 Convergence criterion met
 ---------------------------------------
 SCF time:  CPU 12.18 s  wall 1.23 s
 SCF   energy in the final basis set = -78.50045166
 Total energy in the final basis set = -78.50045166
================================================================================
|                                                                              |
|                                 A D C  M A N                                 |
|                                                                              |
 ------------------------------------------------------------------------------ 
|                                                                              |
| Components:                                                                  |
|                                                                              |
| - libvmm - 1.3-trunk                                                         |
|   Authors:                                                                   |
|   Evgeny Epifanovsky, Ilya Kaliman                                           |
|                                                                              |
| - libtensor - 2.5-trunk                                                      |
|   Authors:                                                                   |
|   Evgeny Epifanovsky, Michael Wormit, Dmitry Zuev, Sam Manzer,               |
|   Ilya Kaliman                                                               |
|                                                                              |
| - libwfa - 1.1-trunk                                                         |
|   Authors:                                                                   |
|   Felix Plasser, Stefanie Mewes (Baeppler), Benjamin Thomitzni,              |
|   Michael Wormit, Feng Chen, Anna I. Krylov, Pavel Pokhilko                  |
|                                                                              |
| - libadc - 1.1-trunk                                                         |
|   Authors:                                                                   |
|   Michael Wormit, Adrian L. Dempwolff, Philipp H. P. Harbach,                |
|   Caroline Krauter, Dirk Rehn, Matthias Schneider, Jan Wenzel                |
|                                                                              |
| - adcman - 2.6-trunk                                                         |
|   Authors:                                                                   |
|   Michael Wormit, Adrian L. Dempwolff, Philipp H. P. Harbach,                |
|   Caroline Krauter, Daniel Lefrancois, Jan-Michael Mewes, Dirk Rehn,         |
|   Matthias Schneider, Jan Wenzel, Andreas Dreuw                              |
|                                                                              |
| Authors of earlier versions of ADCMAN:                                       |
| Andreas Dreuw, Jan Hendrik Starcke, Dirk Rehn, Michael Wormit                |
|                                                                              |
================================================================================

 
 Alpha MOs, Restricted
 -- Occupied --                  
-11.076 -11.072  -0.884  -0.621  -0.502  -0.406  -0.354  -0.220
  1 A1    2 A1    3 A1    4 A1    1 B1    5 A1    2 B1    1 B2                 
 -0.036
  6 A1                                                                         
 -- Virtual --                   
  0.121   0.122   0.127   0.157   0.163   0.182   0.208   0.261
  7 A1    3 B1    2 B2    4 B1    3 B2    8 A1    9 A1    4 B2                 
  0.263   0.294   0.301   0.304   0.371   0.399   0.410   0.435
  5 B1   10 A1    6 B1    5 B2   11 A1    6 B2   12 A1   13 A1                 
  0.481   0.505   0.599   0.696   0.848   0.907   1.000   1.012
  7 B1   14 A1    8 B1   15 A1   16 A1    9 B1    7 B2   17 A1                 
  1.052   1.069   1.088   1.143   1.165   1.193   1.201   1.272
 10 B1    8 B2   18 A1   19 A1   20 A1   11 B1   21 A1    1 A2                 
  1.443   1.445   1.490   1.503   1.752   1.761   1.835   1.876
  9 B2    2 A2   22 A1   12 B1   23 A1   13 B1   14 B1   10 B2                 
  1.947   2.005   2.036   2.100   2.140   2.176   2.196   2.290
 15 B1   11 B2   24 A1   12 B2   25 A1    3 A2   16 B1   26 A1                 
  2.333   2.469   2.571   2.599   2.703   2.736   2.960   2.968
 13 B2   27 A1    4 A2   28 A1   17 B1   29 A1   30 A1   18 B1                 
  3.424   3.504
 31 A1   19 B1                                                                 
 
 Beta MOs, Restricted
 -- Occupied --                  
-11.076 -11.072  -0.884  -0.621  -0.502  -0.406  -0.354  -0.220
  1 A1    2 A1    3 A1    4 A1    1 B1    5 A1    2 B1    1 B2                 
 -0.036
  6 A1                                                                         
 -- Virtual --                   
  0.121   0.122   0.127   0.157   0.163   0.182   0.208   0.261
  7 A1    3 B1    2 B2    4 B1    3 B2    8 A1    9 A1    4 B2                 
  0.263   0.294   0.301   0.304   0.371   0.399   0.410   0.435
  5 B1   10 A1    6 B1    5 B2   11 A1    6 B2   12 A1   13 A1                 
  0.481   0.505   0.599   0.696   0.848   0.907   1.000   1.012
  7 B1   14 A1    8 B1   15 A1   16 A1    9 B1    7 B2   17 A1                 
  1.052   1.069   1.088   1.143   1.165   1.193   1.201   1.272
 10 B1    8 B2   18 A1   19 A1   20 A1   11 B1   21 A1    1 A2                 
  1.443   1.445   1.490   1.503   1.752   1.761   1.835   1.876
  9 B2    2 A2   22 A1   12 B1   23 A1   13 B1   14 B1   10 B2                 
  1.947   2.005   2.036   2.100   2.140   2.176   2.196   2.290
 15 B1   11 B2   24 A1   12 B2   25 A1    3 A2   16 B1   26 A1                 
  2.333   2.469   2.571   2.599   2.703   2.736   2.960   2.968
 13 B2   27 A1    4 A2   28 A1   17 B1   29 A1   30 A1   18 B1                 
  3.424   3.504
 31 A1   19 B1                                                                 

--------------------------------------------------------------------------------
                                   HF Summary                                   
--------------------------------------------------------------------------------
  Energy:                                                  -78.5004516590 a.u.
  Dip. moment [a.u.]:                  [   0.000000,    0.000000,    4.859707]
  Total dipole [Debye]:                                              12.352144
  <r^2> [a.u.]:                        [  28.298724,   18.268302,  115.512025]
  Total <r^2> [a.u.]:                                               162.079052
--------------------------------------------------------------------------------

--------------------------------------------------------------------------------
                                 MP(2) Summary                                  
--------------------------------------------------------------------------------
  MP energy contribution:                                   -0.3065424073 a.u.
  Total energy:                                            -78.8069940663 a.u.
  Dip. moment [a.u.]:                  [  -0.000000,    0.000000,    4.850216]
  Total dipole [Debye]:                                              12.328021
  <r^2> [a.u.]:                        [  28.848798,   18.610765,  115.854896]
  Total <r^2> [a.u.]:                                               163.314459

  Density matrix analysis:
  ------------------------
  NOs
    Occupation of frontier NOs:
       0.0437   1.9374
    Number of electrons: 18.000000
    Number of unpaired electrons: n_u =  0.47598, n_u,nl =  0.05255
    NO participation ratio (PR_NO): 16.571000
  
  
  Mulliken Population Analysis
  Atom      Charge (e)              h+              e-           Del q
  --------------------------------------------------------------------
   1 C       -0.252009        0.131487       -0.083066        0.048421
   2 C       -0.739637        0.060691       -0.171069       -0.110378
   3 H        0.037702        0.018491       -0.012086        0.006406
   4 H        0.135993        0.016503       -0.012141        0.004362
   5 H        0.037702        0.018491       -0.012086        0.006406
   6 H        0.135993        0.016503       -0.012141        0.004362
   7 H       -0.355744        0.055847       -0.015426        0.040421
  --------------------------------------------------------------------
  Sum:       -1.000000        0.318013       -0.318013       -0.000000
  
  Multipole moment analysis of the density matrix
    Molecular charge:                      -1.000000
    Number of electrons:                   18.000000
      Center of electronic charge [Ang]: [  0.000000,  -0.000000,  -0.142590]
    Total nuclear charge:                  17.000000
      Center of nuclear charge [Ang]:    [ -0.000000,   0.000000,  -0.000000]
    Dipole moment [D]:                     12.328017
      Cartesian components [D]:          [ -0.000000,   0.000000,  12.328017]
    RMS size of the density [Ang]:         1.587569
      Cartesian components [Ang]:        [  0.669929,   0.538080,   1.334930]
  
  Exciton analysis of the difference density matrix
    <r_h> [Ang]:                  [  0.000000,  -0.000000,  -0.288394]
    <r_e> [Ang]:                  [  0.000000,  -0.000000,  -0.272601]
    |<r_e - r_h>| [Ang]:            0.015793
    Hole size [Ang]:                2.090825
      Cartesian components [Ang]: [  0.843812,   0.850480,   1.713538]
    Electron size [Ang]:            2.338430
      Cartesian components [Ang]: [  1.093796,   1.012361,   1.801941]
--------------------------------------------------------------------------------
  Starting Davidson for singlet states of irrep B2 ... 
--------------------------------------------------------------------------------
   It NVec Conv  Avg. Norm  Max. Norm  Conv. states           Remark
--------------------------------------------------------------------------------
       100    0  1.010e-01  4.531e-01  0.1033 n n n n n n n n Guess.
    1  110    0  9.868e-03  6.371e-02  0.0524 n n n n n n n n 
    2  120    0  5.025e-03  4.966e-02  0.0522 n n n n n n n n 
    3  130    0  4.815e-04  4.784e-03  0.0522 n n n n n n n n 
    4  140    7  6.001e-05  5.982e-04  0.0522 y y y y y n y y 
    5  150    9  2.634e-06  2.622e-05  0.0522 y y y y y y y y 
    6  160   10  1.176e-07  1.171e-06  0.0522 y y y y y y y y Converged.
--------------------------------------------------------------------------------
  Davidson Summary: 
 ------------------------------------------------------------
  State  0: excitation energy =   0.0522 a.u.   (converged)
  State  1: excitation energy =   0.0653 a.u.   (converged)
  State  2: excitation energy =   0.1110 a.u.   (converged)
  State  3: excitation energy =   0.1787 a.u.   (converged)
  State  4: excitation energy =   0.2246 a.u.   (converged)
  State  5: excitation energy =   0.2341 a.u.   (converged)
  State  6: excitation energy =   0.2554 a.u.   (converged)
  State  7: excitation energy =   0.2987 a.u.   (converged)
  State  8: excitation energy =   0.3218 a.u.   (converged)
  State  9: excitation energy =   0.3355 a.u.   (converged)
 ------------------------------------------------------------


--------------------------------------------------------------------------------
                   State-averaged natural transition orbitals
--------------------------------------------------------------------------------
--------------------------------------------------------------------------------

--------------------------------------------------------------------------------
                             Excited State Summary
--------------------------------------------------------------------------------
--------------------------------------------------------------------------------

  Excited state 1 (singlet, B2)                                    [converged]
  ----------------------------------------------------------------------------
  Term symbol:  1 (1) B2                                    R^2 =  8.35349e-10

  Total energy:                                            -78.7548006683 a.u.
  Excitation energy:                                               1.420255 eV

  Osc. strength:                                                      0.001001
  Trans. dip. moment [a.u.]:           [  -0.000000,   -0.169631,    0.000000]
  <i|r^2|0> [a.u.]:                    [   0.000000,    0.000000,    0.000000]

  Dip. moment [a.u.]:                  [   0.000000,    0.000000,   -1.502517]
  Total dipole [Debye]:                                               3.819018
  <r^2> [a.u.]:                        [  42.713148,   70.136869,  102.040840]
  Total <r^2> [a.u.]:                                               214.890857

  V1^2 = 0.9133, V2^2 = 0.0867

  Important amplitudes:
      occ i      occ j       vir a       vir b          v   
    ---------------------------------------------------------
     6 (A1) A               2 (B2) A                  0.5969
     6 (A1) A               3 (B2) A                  0.3084
    ---------------------------------------------------------

  Density matrix analysis:
  ------------------------
  NOs
    Occupation of frontier NOs:
       0.9866   0.9984
    Number of electrons: 18.000000
    Number of unpaired electrons: n_u =  2.41734, n_u,nl =  2.04778
    NO participation ratio (PR_NO):  2.947393
  
  
  Mulliken Population Analysis
  Atom      Charge (e)              h+              e-           Del q
  --------------------------------------------------------------------
   1 C       -1.069465        0.064321       -0.881776       -0.817455
   2 C       -0.314528        0.757275       -0.332166        0.425109
   3 H        0.059571        0.023869       -0.002000        0.021869
   4 H        0.097032       -0.008973       -0.029988       -0.038961
   5 H        0.059571        0.023869       -0.002000        0.021869
   6 H        0.097032       -0.008973       -0.029988       -0.038961
   7 H        0.070786        0.488581       -0.062051        0.426530
  --------------------------------------------------------------------
  Sum:       -1.000000        1.339969       -1.339969       -0.000000
  
  Multipole moment analysis of the density matrix
    Molecular charge:                      -1.000000
    Number of electrons:                   18.000000
      Center of electronic charge [Ang]: [ -0.000000,  -0.000000,   0.044172]
    Total nuclear charge:                  17.000000
      Center of nuclear charge [Ang]:    [ -0.000000,   0.000000,  -0.000000]
    Dipole moment [D]:                     3.819017
      Cartesian components [D]:          [  0.000000,   0.000000,  -3.819017]
    RMS size of the density [Ang]:         1.827877
      Cartesian components [Ang]:        [  0.815165,   1.044571,   1.259171]
  
  Exciton analysis of the difference density matrix
    <r_h> [Ang]:                  [  0.000000,  -0.000000,  -2.249842]
    <r_e> [Ang]:                  [  0.000000,  -0.000000,   0.258963]
    |<r_e - r_h>| [Ang]:            2.508805
    Hole size [Ang]:                2.518572
      Cartesian components [Ang]: [  1.198619,   1.201238,   1.861060]
    Electron size [Ang]:            4.702812
      Cartesian components [Ang]: [  2.081845,   3.494419,   2.360380]

  Transition density matrix analysis:
  -----------------------------------
  
  CT numbers (Mulliken)
    omega =     0.8995
    <Phe> =    -0.0009
  
  Exciton analysis of the transition density matrix
    Trans. dipole moment [D]:             0.215580
      Cartesian components [D]:         [ -0.000000,  -0.215580,   0.000000]
    <r_h> [Ang]:                        [  0.000000,  -0.000000,  -2.841741]
    <r_e> [Ang]:                        [  0.000000,  -0.000000,   0.736797]
    |<r_e - r_h>| [Ang]:                  3.578538
    Hole size [Ang]:                      1.753300
      Cartesian components [Ang]:       [  0.975334,   0.979786,   1.078334]
    Electron size [Ang]:                  5.137292
      Cartesian components [Ang]:       [  2.297603,   3.979568,   2.296917]
    RMS electron-hole separation [Ang]:   6.500309
      Cartesian components [Ang]:       [  2.496046,   4.098294,   4.384946]
    Covariance(r_h, r_e) [Ang^2]:         0.008874
    Correlation coefficient:              0.000985
    Center-of-mass size [Ang]:            2.714939
      Cartesian components [Ang]:       [  1.248025,   2.049260,   1.270379]

  Decomposition into state-averaged NTOs
    H- 0 -> L+ 3: -0.6194 ( 76.7%)
    H- 0 -> L+ 0:  0.2270 ( 10.3%)
    H- 0 -> L+ 7:  0.0769 (  1.2%)
                   omega =  89.9%
  ----------------------------------------------------------------------------


  Excited state 2 (singlet, B2)                                    [converged]
  ----------------------------------------------------------------------------
  Term symbol:  2 (1) B2                                    R^2 =  8.05490e-10

  Total energy:                                            -78.7417349439 a.u.
  Excitation energy:                                               1.775791 eV

  Osc. strength:                                                      0.126477
  Trans. dip. moment [a.u.]:           [  -0.000000,   -1.705028,    0.000000]
  <i|r^2|0> [a.u.]:                    [   0.000000,    0.000000,    0.000000]

  Dip. moment [a.u.]:                  [   0.000000,   -0.000000,    0.627656]
  Total dipole [Debye]:                                               1.595344
  <r^2> [a.u.]:                        [  39.610474,   60.762786,  127.751620]
  Total <r^2> [a.u.]:                                               228.124880

  V1^2 = 0.9142, V2^2 = 0.0858

  Important amplitudes:
      occ i      occ j       vir a       vir b          v   
    ---------------------------------------------------------
     6 (A1) A               3 (B2) A                  0.5890
     6 (A1) A               2 (B2) A                 -0.2978
    ---------------------------------------------------------

  Density matrix analysis:
  ------------------------
  NOs
    Occupation of frontier NOs:
       0.9868   0.9976
    Number of electrons: 18.000000
    Number of unpaired electrons: n_u =  2.41673, n_u,nl =  2.04740
    NO participation ratio (PR_NO):  2.947588
  
  
  Mulliken Population Analysis
  Atom      Charge (e)              h+              e-           Del q
  --------------------------------------------------------------------
   1 C       -0.325458        0.035439       -0.108888       -0.073449
   2 C       -1.063616        0.760616       -1.084594       -0.323978
   3 H        0.058160        0.021830       -0.001372        0.020457
   4 H        0.100676       -0.009427       -0.025890       -0.035318
   5 H        0.058160        0.021830       -0.001372        0.020457
   6 H        0.100676       -0.009427       -0.025890       -0.035318
   7 H        0.071404        0.489319       -0.062171        0.427148
  --------------------------------------------------------------------
  Sum:       -1.000000        1.310179       -1.310179       -0.000000
  
  Multipole moment analysis of the density matrix
    Molecular charge:                      -1.000000
    Number of electrons:                   18.000000
      Center of electronic charge [Ang]: [ -0.000000,   0.000000,  -0.018452]
    Total nuclear charge:                  17.000000
      Center of nuclear charge [Ang]:    [ -0.000000,   0.000000,  -0.000000]
    Dipole moment [D]:                     1.595343
      Cartesian components [D]:          [  0.000000,  -0.000000,   1.595343]
    RMS size of the density [Ang]:         1.883781
      Cartesian components [Ang]:        [  0.785000,   0.972263,   1.409649]
  
  Exciton analysis of the difference density matrix
    <r_h> [Ang]:                  [  0.000000,  -0.000000,  -2.332506]
    <r_e> [Ang]:                  [  0.000000,   0.000000,  -0.627027]
    |<r_e - r_h>| [Ang]:            1.705479
    Hole size [Ang]:                2.496353
      Cartesian components [Ang]: [  1.207807,   1.214668,   1.815919]
    Electron size [Ang]:            5.013116
      Cartesian components [Ang]: [  1.938794,   3.238009,   3.299653]

  Transition density matrix analysis:
  -----------------------------------
  
  CT numbers (Mulliken)
    omega =     0.9001
    <Phe> =    -0.0086
  
  Exciton analysis of the transition density matrix
    Trans. dipole moment [D]:             2.166874
      Cartesian components [D]:         [ -0.000000,  -2.166874,   0.000000]
    <r_h> [Ang]:                        [  0.000000,  -0.000000,  -2.843798]
    <r_e> [Ang]:                        [  0.000000,   0.000000,  -0.431606]
    |<r_e - r_h>| [Ang]:                  2.412192
    Hole size [Ang]:                      1.750743
      Cartesian components [Ang]:       [  0.975150,   0.979922,   1.074214]
    Electron size [Ang]:                  5.517887
      Cartesian components [Ang]:       [  2.097688,   3.632917,   3.584507]
    RMS electron-hole separation [Ang]:   6.269468
      Cartesian components [Ang]:       [  2.313258,   3.762387,   4.449664]
    Covariance(r_h, r_e) [Ang^2]:         0.012307
    Correlation coefficient:              0.001274
    Center-of-mass size [Ang]:            2.895548
      Cartesian components [Ang]:       [  1.156640,   1.881563,   1.872459]

  Decomposition into state-averaged NTOs
    H- 0 -> L+ 6: -0.5608 ( 62.9%)
    H- 0 -> L+ 7: -0.2813 ( 15.8%)
    H- 0 -> L+ 0:  0.1846 (  6.8%)
    H- 0 -> L+ 8:  0.1136 (  2.6%)
    H- 0 -> L+ 3:  0.0950 (  1.8%)
                   omega =  90.0%
  ----------------------------------------------------------------------------


  Excited state 3 (singlet, B2)                                    [converged]
  ----------------------------------------------------------------------------
  Term symbol:  3 (1) B2                                    R^2 =  2.32835e-09

  Total energy:                                            -78.6959815917 a.u.
  Excitation energy:                                               3.020803 eV

  Osc. strength:                                                      0.000205
  Trans. dip. moment [a.u.]:           [   0.000000,    0.052569,    0.000000]
  <i|r^2|0> [a.u.]:                    [  -0.000000,   -0.000000,    0.000000]

  Dip. moment [a.u.]:                  [   0.000000,   -0.000000,   -0.385933]
  Total dipole [Debye]:                                               0.980943
  <r^2> [a.u.]:                        [  29.881794,   28.512568,   98.497687]
  Total <r^2> [a.u.]:                                               156.892050

  V1^2 = 0.9256, V2^2 = 0.0744

  Important amplitudes:
      occ i      occ j       vir a       vir b          v   
    ---------------------------------------------------------
     6 (A1) A               4 (B2) A                  0.5784
     6 (A1) A               5 (B2) A                 -0.2450
    ---------------------------------------------------------

  Density matrix analysis:
  ------------------------
  NOs
    Occupation of frontier NOs:
       0.9887   0.9906
    Number of electrons: 18.000000
    Number of unpaired electrons: n_u =  2.41049, n_u,nl =  2.04213
    NO participation ratio (PR_NO):  2.949936
  
  
  Mulliken Population Analysis
  Atom      Charge (e)              h+              e-           Del q
  --------------------------------------------------------------------
   1 C       -0.623700        0.081918       -0.453609       -0.371691
   2 C       -0.639908        0.744978       -0.645249        0.099729
   3 H        0.016360        0.010095       -0.031437       -0.021342
   4 H        0.063290       -0.007564       -0.065139       -0.072703
   5 H        0.016360        0.010095       -0.031437       -0.021342
   6 H        0.063290       -0.007564       -0.065139       -0.072703
   7 H        0.104309        0.490926       -0.030873        0.460053
  --------------------------------------------------------------------
  Sum:       -1.000000        1.322883       -1.322883       -0.000000
  
  Multipole moment analysis of the density matrix
    Molecular charge:                      -1.000000
    Number of electrons:                   18.000000
      Center of electronic charge [Ang]: [ -0.000000,   0.000000,   0.011346]
    Total nuclear charge:                  17.000000
      Center of nuclear charge [Ang]:    [ -0.000000,   0.000000,  -0.000000]
    Dipole moment [D]:                     0.980943
      Cartesian components [D]:          [  0.000000,  -0.000000,  -0.980943]
    RMS size of the density [Ang]:         1.562262
      Cartesian components [Ang]:        [  0.681818,   0.666014,   1.237826]
  
  Exciton analysis of the difference density matrix
    <r_h> [Ang]:                  [  0.000000,  -0.000000,  -2.193545]
    <r_e> [Ang]:                  [  0.000000,   0.000000,  -0.098991]
    |<r_e - r_h>| [Ang]:            2.094554
    Hole size [Ang]:                2.337021
      Cartesian components [Ang]: [  1.099948,   1.114181,   1.735045]
    Electron size [Ang]:            2.983959
      Cartesian components [Ang]: [  1.195220,   1.826860,   2.034217]

  Transition density matrix analysis:
  -----------------------------------
  
  CT numbers (Mulliken)
    omega =     0.8996
    <Phe> =    -0.0071
  
  Exciton analysis of the transition density matrix
    Trans. dipole moment [D]:             0.066809
      Cartesian components [D]:         [  0.000000,   0.066809,   0.000000]
    <r_h> [Ang]:                        [  0.000000,  -0.000000,  -2.803119]
    <r_e> [Ang]:                        [  0.000000,   0.000000,   0.119200]
    |<r_e - r_h>| [Ang]:                  2.922318
    Hole size [Ang]:                      1.759567
      Cartesian components [Ang]:       [  0.961051,   0.964195,   1.114802]
    Electron size [Ang]:                  3.074522
      Cartesian components [Ang]:       [  1.151258,   1.979817,   2.051247]
    RMS electron-hole separation [Ang]:   4.591670
      Cartesian components [Ang]:       [  1.499529,   2.201162,   3.740286]
    Covariance(r_h, r_e) [Ang^2]:         0.002634
    Correlation coefficient:              0.000487
    Center-of-mass size [Ang]:            1.771583
      Cartesian components [Ang]:       [  0.749907,   1.101542,   1.167369]

  Decomposition into state-averaged NTOs
    H- 0 -> L+ 7: -0.4671 ( 43.6%)
    H- 0 -> L+ 8: -0.3066 ( 18.8%)
    H- 0 -> L+ 0: -0.3036 ( 18.4%)
    H- 0 -> L+ 3: -0.2078 (  8.6%)
                   omega =  90.0%
  ----------------------------------------------------------------------------


  Excited state 4 (singlet, B2)                                    [converged]
  ----------------------------------------------------------------------------
  Term symbol:  4 (1) B2                                    R^2 =  2.87926e-09

  Total energy:                                            -78.6283058043 a.u.
  Excitation energy:                                               4.862355 eV

  Osc. strength:                                                      0.008941
  Trans. dip. moment [a.u.]:           [  -0.000000,   -0.273957,    0.000000]
  <i|r^2|0> [a.u.]:                    [   0.000000,    0.000000,    0.000000]

  Dip. moment [a.u.]:                  [   0.000000,   -0.000000,   -0.422941]
  Total dipole [Debye]:                                               1.075010
  <r^2> [a.u.]:                        [  34.779931,   45.385132,   93.017196]
  Total <r^2> [a.u.]:                                               173.182259

  V1^2 = 0.9228, V2^2 = 0.0772

  Important amplitudes:
      occ i      occ j       vir a       vir b          v   
    ---------------------------------------------------------
     6 (A1) A               5 (B2) A                  0.6288
     6 (A1) A               4 (B2) A                  0.2331
    ---------------------------------------------------------

  Density matrix analysis:
  ------------------------
  NOs
    Occupation of frontier NOs:
       0.9870   0.9912
    Number of electrons: 18.000000
    Number of unpaired electrons: n_u =  2.42502, n_u,nl =  2.05054
    NO participation ratio (PR_NO):  2.985382
  
  
  Mulliken Population Analysis
  Atom      Charge (e)              h+              e-           Del q
  --------------------------------------------------------------------
   1 C       -0.678270        0.060957       -0.487218       -0.426261
   2 C       -0.649962        0.749548       -0.659873        0.089675
   3 H        0.039620        0.006546       -0.004629        0.001917
   4 H        0.082929       -0.011627       -0.041438       -0.053065
   5 H        0.039620        0.006546       -0.004629        0.001917
   6 H        0.082929       -0.011627       -0.041438       -0.053065
   7 H        0.083136        0.486366       -0.047486        0.438880
  --------------------------------------------------------------------
  Sum:       -1.000000        1.286710       -1.286710       -0.000000
  
  Multipole moment analysis of the density matrix
    Molecular charge:                      -1.000000
    Number of electrons:                   18.000000
      Center of electronic charge [Ang]: [ -0.000000,   0.000000,   0.012434]
    Total nuclear charge:                  17.000000
      Center of nuclear charge [Ang]:    [ -0.000000,   0.000000,  -0.000000]
    Dipole moment [D]:                     1.075009
      Cartesian components [D]:          [  0.000000,  -0.000000,  -1.075009]
    RMS size of the density [Ang]:         1.641361
      Cartesian components [Ang]:        [  0.735579,   0.840275,   1.202883]
  
  Exciton analysis of the difference density matrix
    <r_h> [Ang]:                  [  0.000000,  -0.000000,  -2.322062]
    <r_e> [Ang]:                  [  0.000000,   0.000000,  -0.153404]
    |<r_e - r_h>| [Ang]:            2.168658
    Hole size [Ang]:                2.373757
      Cartesian components [Ang]: [  1.150774,   1.160852,   1.721298]
    Electron size [Ang]:            3.626390
      Cartesian components [Ang]: [  1.617121,   2.678530,   1.833331]

  Transition density matrix analysis:
  -----------------------------------
  
  CT numbers (Mulliken)
    omega =     0.9069
    <Phe> =    -0.0027
  
  Exciton analysis of the transition density matrix
    Trans. dipole moment [D]:             0.348164
      Cartesian components [D]:         [ -0.000000,  -0.348164,   0.000000]
    <r_h> [Ang]:                        [  0.000000,  -0.000000,  -2.828739]
    <r_e> [Ang]:                        [  0.000000,   0.000000,   0.169978]
    |<r_e - r_h>| [Ang]:                  2.998717
    Hole size [Ang]:                      1.753345
      Cartesian components [Ang]:       [  0.969357,   0.973397,   1.089525]
    Electron size [Ang]:                  3.845157
      Cartesian components [Ang]:       [  1.716054,   2.971464,   1.735163]
    RMS electron-hole separation [Ang]:   5.180638
      Cartesian components [Ang]:       [  1.970891,   3.126665,   3.630230]
    Covariance(r_h, r_e) [Ang^2]:         0.006371
    Correlation coefficient:              0.000945
    Center-of-mass size [Ang]:            2.113776
      Cartesian components [Ang]:       [  0.985467,   1.563503,   1.025847]

  Decomposition into state-averaged NTOs
    H- 0 -> L+ 0:  0.3915 ( 30.7%)
    H- 0 -> L+ 7: -0.3666 ( 26.9%)
    H- 0 -> L+ 6:  0.3604 ( 26.0%)
    H- 0 -> L+ 8:  0.1718 (  5.9%)
    H- 0 -> L+ 3:  0.0781 (  1.2%)
                   omega =  90.7%
  ----------------------------------------------------------------------------


  Excited state 5 (singlet, B2)                                    [converged]
  ----------------------------------------------------------------------------
  Term symbol:  5 (1) B2                                    R^2 =  4.37355e-09

  Total energy:                                            -78.5823701586 a.u.
  Excitation energy:                                               6.112327 eV

  Osc. strength:                                                      0.014445
  Trans. dip. moment [a.u.]:           [   0.000000,   -0.310587,    0.000000]
  <i|r^2|0> [a.u.]:                    [   0.000000,    0.000000,   -0.000000]

  Dip. moment [a.u.]:                  [  -0.000000,    0.000000,   -0.742767]
  Total dipole [Debye]:                                               1.887925
  <r^2> [a.u.]:                        [  39.826662,   29.092423,  164.609633]
  Total <r^2> [a.u.]:                                               233.528718

  V1^2 = 0.9411, V2^2 = 0.0589

  Important amplitudes:
      occ i      occ j       vir a       vir b          v   
    ---------------------------------------------------------
     1 (B2) A               7 (A1) A                  0.5963
     1 (B2) A               9 (A1) A                  0.3081
    ---------------------------------------------------------

  Density matrix analysis:
  ------------------------
  NOs
    Occupation of frontier NOs:
       0.9894   0.9926
    Number of electrons: 18.000000
    Number of unpaired electrons: n_u =  2.37621, n_u,nl =  2.03394
    NO participation ratio (PR_NO):  2.861573
  
  
  Mulliken Population Analysis
  Atom      Charge (e)              h+              e-           Del q
  --------------------------------------------------------------------
   1 C       -1.595317        0.567184       -1.910492       -1.343307
   2 C        0.209223        0.541547        0.407313        0.948860
   3 H        0.168226        0.114814        0.015709        0.130523
   4 H        0.211736        0.076999       -0.001256        0.075743
   5 H        0.168226        0.114814        0.015709        0.130523
   6 H        0.211736        0.076999       -0.001256        0.075743
   7 H       -0.373830        0.022056       -0.040142       -0.018086
  --------------------------------------------------------------------
  Sum:       -1.000000        1.514415       -1.514415        0.000000
  
  Multipole moment analysis of the density matrix
    Molecular charge:                      -1.000000
    Number of electrons:                   18.000000
      Center of electronic charge [Ang]: [  0.000000,  -0.000000,   0.021836]
    Total nuclear charge:                  17.000000
      Center of nuclear charge [Ang]:    [ -0.000000,   0.000000,  -0.000000]
    Dipole moment [D]:                     1.887925
      Cartesian components [D]:          [ -0.000000,   0.000000,  -1.887925]
    RMS size of the density [Ang]:         1.905928
      Cartesian components [Ang]:        [  0.787140,   0.672752,   1.600118]
  
  Exciton analysis of the difference density matrix
    <r_h> [Ang]:                  [ -0.000000,  -0.000000,   0.137956]
    <r_e> [Ang]:                  [  0.000000,  -0.000000,   2.092295]
    |<r_e - r_h>| [Ang]:            1.954339
    Hole size [Ang]:                1.955291
      Cartesian components [Ang]: [  0.907371,   0.971545,   1.433855]
    Electron size [Ang]:            3.528134
      Cartesian components [Ang]: [  1.689149,   1.697660,   2.590840]

  Transition density matrix analysis:
  -----------------------------------
  
  CT numbers (Mulliken)
    omega =     0.9109
    <Phe> =    -0.0018
  
  Exciton analysis of the transition density matrix
    Trans. dipole moment [D]:             0.394716
      Cartesian components [D]:         [  0.000000,  -0.394716,   0.000000]
    <r_h> [Ang]:                        [  0.000000,   0.000000,   0.253928]
    <r_e> [Ang]:                        [  0.000000,  -0.000000,   3.210717]
    |<r_e - r_h>| [Ang]:                  2.956789
    Hole size [Ang]:                      1.305717
      Cartesian components [Ang]:       [  0.526252,   0.886092,   0.801746]
    Electron size [Ang]:                  3.650268
      Cartesian components [Ang]:       [  1.989093,   2.020390,   2.299128]
    RMS electron-hole separation [Ang]:   4.861069
      Cartesian components [Ang]:       [  2.057262,   2.201332,   3.814683]
    Covariance(r_h, r_e) [Ang^2]:         0.070980
    Correlation coefficient:              0.014892
    Center-of-mass size [Ang]:            1.947518
      Cartesian components [Ang]:       [  1.028899,   1.105487,   1.229672]

  Decomposition into state-averaged NTOs
    H- 1 -> L+ 2:  0.5183 ( 53.7%)
    H- 1 -> L+ 4: -0.3216 ( 20.7%)
    H- 1 -> L+ 5:  0.2678 ( 14.3%)
    H- 1 -> L+ 1:  0.0924 (  1.7%)
                   omega =  91.1%
  ----------------------------------------------------------------------------


  Excited state 6 (singlet, B2)                                    [converged]
  ----------------------------------------------------------------------------
  Term symbol:  6 (1) B2                                    R^2 =  2.33003e-08

  Total energy:                                            -78.5729257699 a.u.
  Excitation energy:                                               6.369322 eV

  Osc. strength:                                                      0.065516
  Trans. dip. moment [a.u.]:           [  -0.000000,   -0.647959,    0.000000]
  <i|r^2|0> [a.u.]:                    [  -0.000000,   -0.000000,    0.000000]

  Dip. moment [a.u.]:                  [   0.000000,    0.000000,   -0.329452]
  Total dipole [Debye]:                                               0.837384
  <r^2> [a.u.]:                        [  31.552438,   33.975517,  103.935424]
  Total <r^2> [a.u.]:                                               169.463379

  V1^2 = 0.9162, V2^2 = 0.0838

  Important amplitudes:
      occ i      occ j       vir a       vir b          v   
    ---------------------------------------------------------
     6 (A1) A               6 (B2) A                  0.6279
     6 (A1) A               4 (B2) A                 -0.2277
    ---------------------------------------------------------

  Density matrix analysis:
  ------------------------
  NOs
    Occupation of frontier NOs:
       0.9656   0.9997
    Number of electrons: 18.000000
    Number of unpaired electrons: n_u =  2.46886, n_u,nl =  2.06073
    NO participation ratio (PR_NO):  3.128645
  
  
  Mulliken Population Analysis
  Atom      Charge (e)              h+              e-           Del q
  --------------------------------------------------------------------
   1 C       -0.619380        0.085406       -0.452777       -0.367371
   2 C       -0.665323        0.729146       -0.654832        0.074314
   3 H        0.027448        0.006867       -0.017121       -0.010254
   4 H        0.072207       -0.013767       -0.050020       -0.063786
   5 H        0.027448        0.006867       -0.017121       -0.010254
   6 H        0.072207       -0.013767       -0.050020       -0.063786
   7 H        0.085393        0.481231       -0.040094        0.441137
  --------------------------------------------------------------------
  Sum:       -1.000000        1.281984       -1.281984       -0.000000
  
  Multipole moment analysis of the density matrix
    Molecular charge:                      -1.000000
    Number of electrons:                   18.000000
      Center of electronic charge [Ang]: [ -0.000000,  -0.000000,   0.009685]
    Total nuclear charge:                  17.000000
      Center of nuclear charge [Ang]:    [ -0.000000,   0.000000,  -0.000000]
    Dipole moment [D]:                     0.837384
      Cartesian components [D]:          [  0.000000,   0.000000,  -0.837384]
    RMS size of the density [Ang]:         1.623660
      Cartesian components [Ang]:        [  0.700618,   0.727023,   1.271552]
  
  Exciton analysis of the difference density matrix
    <r_h> [Ang]:                  [  0.000000,  -0.000000,  -2.270831]
    <r_e> [Ang]:                  [  0.000000,  -0.000000,  -0.132768]
    |<r_e - r_h>| [Ang]:            2.138063
    Hole size [Ang]:                2.332586
      Cartesian components [Ang]: [  1.114598,   1.125223,   1.712455]
    Electron size [Ang]:            3.452989
      Cartesian components [Ang]: [  1.353845,   2.149955,   2.338361]

  Transition density matrix analysis:
  -----------------------------------
  
  CT numbers (Mulliken)
    omega =     0.8968
    <Phe> =    -0.0090
  
  Exciton analysis of the transition density matrix
    Trans. dipole moment [D]:             0.823473
      Cartesian components [D]:         [ -0.000000,  -0.823473,   0.000000]
    <r_h> [Ang]:                        [  0.000000,  -0.000000,  -2.767705]
    <r_e> [Ang]:                        [  0.000000,  -0.000000,   0.152635]
    |<r_e - r_h>| [Ang]:                  2.920340
    Hole size [Ang]:                      1.793711
      Cartesian components [Ang]:       [  0.960383,   0.968416,   1.165004]
    Electron size [Ang]:                  3.655351
      Cartesian components [Ang]:       [  1.383859,   2.363660,   2.420668]
    RMS electron-hole separation [Ang]:   4.989404
      Cartesian components [Ang]:       [  1.684369,   2.554282,   3.941154]
    Covariance(r_h, r_e) [Ang^2]:         0.106612
    Correlation coefficient:              0.016260
    Center-of-mass size [Ang]:            2.048915
      Cartesian components [Ang]:       [  0.842275,   1.277212,   1.362849]

  Decomposition into state-averaged NTOs
    H- 0 -> L+ 8: -0.5431 ( 59.0%)
    H- 0 -> L+ 0:  0.3574 ( 25.6%)
    H- 0 -> L+ 7:  0.0984 (  1.9%)
    H- 0 -> L+ 3:  0.0827 (  1.4%)
                   omega =  89.7%
  ----------------------------------------------------------------------------


  Excited state 7 (singlet, B2)                                    [converged]
  ----------------------------------------------------------------------------
  Term symbol:  7 (1) B2                                    R^2 =  1.46002e-08

  Total energy:                                            -78.5516010558 a.u.
  Excitation energy:                                               6.949597 eV

  Osc. strength:                                                      0.135558
  Trans. dip. moment [a.u.]:           [   0.000000,    0.892285,   -0.000000]
  <i|r^2|0> [a.u.]:                    [   0.000000,   -0.000000,   -0.000000]

  Dip. moment [a.u.]:                  [  -0.000000,   -0.000000,    2.532827]
  Total dipole [Debye]:                                               6.437805
  <r^2> [a.u.]:                        [  42.019797,   30.860248,  143.489336]
  Total <r^2> [a.u.]:                                               216.369381

  V1^2 = 0.9447, V2^2 = 0.0553

  Important amplitudes:
      occ i      occ j       vir a       vir b          v   
    ---------------------------------------------------------
     1 (B2) A               8 (A1) A                 -0.4270
     1 (B2) A               9 (A1) A                 -0.3689
    ---------------------------------------------------------

  Density matrix analysis:
  ------------------------
  NOs
    Occupation of frontier NOs:
       0.9846   0.9901
    Number of electrons: 18.000000
    Number of unpaired electrons: n_u =  2.38263, n_u,nl =  2.03555
    NO participation ratio (PR_NO):  2.897693
  
  
  Mulliken Population Analysis
  Atom      Charge (e)              h+              e-           Del q
  --------------------------------------------------------------------
   1 C        0.429753        0.646232        0.035531        0.681763
   2 C       -1.724371        0.456469       -1.441203       -0.984734
   3 H        0.118218        0.092922       -0.012406        0.080516
   4 H        0.214551        0.073998        0.004560        0.078558
   5 H        0.118218        0.092922       -0.012406        0.080516
   6 H        0.214551        0.073998        0.004560        0.078558
   7 H       -0.370921        0.018158       -0.033335       -0.015177
  --------------------------------------------------------------------
  Sum:       -1.000000        1.454699       -1.454699       -0.000000
  
  Multipole moment analysis of the density matrix
    Molecular charge:                      -1.000000
    Number of electrons:                   18.000000
      Center of electronic charge [Ang]: [  0.000000,   0.000000,  -0.074462]
    Total nuclear charge:                  17.000000
      Center of nuclear charge [Ang]:    [ -0.000000,   0.000000,  -0.000000]
    Dipole moment [D]:                     6.437803
      Cartesian components [D]:          [ -0.000000,  -0.000000,   6.437803]
    RMS size of the density [Ang]:         1.833179
      Cartesian components [Ang]:        [  0.808522,   0.692890,   1.492226]
  
  Exciton analysis of the difference density matrix
    <r_h> [Ang]:                  [ -0.000000,  -0.000000,   0.142315]
    <r_e> [Ang]:                  [  0.000000,   0.000000,   0.985314]
    |<r_e - r_h>| [Ang]:            0.842998
    Hole size [Ang]:                1.904229
      Cartesian components [Ang]: [  0.888375,   0.979563,   1.370159]
    Electron size [Ang]:            3.590060
      Cartesian components [Ang]: [  1.823353,   1.821417,   2.499271]

  Transition density matrix analysis:
  -----------------------------------
  
  CT numbers (Mulliken)
    omega =     0.9144
    <Phe> =    -0.0115
  
  Exciton analysis of the transition density matrix
    Trans. dipole moment [D]:             1.133982
      Cartesian components [D]:         [  0.000000,   1.133982,  -0.000000]
    <r_h> [Ang]:                        [  0.000000,   0.000000,   0.246074]
    <r_e> [Ang]:                        [  0.000000,   0.000000,   1.434746]
    |<r_e - r_h>| [Ang]:                  1.188672
    Hole size [Ang]:                      1.311794
      Cartesian components [Ang]:       [  0.526888,   0.885454,   0.811889]
    Electron size [Ang]:                  4.050806
      Cartesian components [Ang]:       [  2.122801,   2.130196,   2.713855]
    RMS electron-hole separation [Ang]:   4.405473
      Cartesian components [Ang]:       [  2.186678,   2.299155,   3.056226]
    Covariance(r_h, r_e) [Ang^2]:         0.067291
    Correlation coefficient:              0.012663
    Center-of-mass size [Ang]:            2.136844
      Cartesian components [Ang]:       [  1.093873,   1.157304,   1.424849]

  Decomposition into state-averaged NTOs
    H- 1 -> L+ 1: -0.4541 ( 41.2%)
    H- 1 -> L+ 4: -0.4469 ( 39.9%)
    H- 1 -> L+ 2: -0.2165 (  9.4%)
                   omega =  91.4%
  ----------------------------------------------------------------------------


  Excited state 8 (singlet, B2)                                    [converged]
  ----------------------------------------------------------------------------
  Term symbol:  8 (1) B2                                    R^2 =  1.48625e-08

  Total energy:                                            -78.5082449582 a.u.
  Excitation energy:                                               8.129377 eV

  Osc. strength:                                                      0.004978
  Trans. dip. moment [a.u.]:           [  -0.000000,    0.158102,   -0.000000]
  <i|r^2|0> [a.u.]:                    [  -0.000000,   -0.000000,   -0.000000]

  Dip. moment [a.u.]:                  [  -0.000000,    0.000000,    7.056254]
  Total dipole [Debye]:                                              17.935213
  <r^2> [a.u.]:                        [  47.953175,   36.551781,  176.037654]
  Total <r^2> [a.u.]:                                               260.542609

  V1^2 = 0.9389, V2^2 = 0.0611

  Important amplitudes:
      occ i      occ j       vir a       vir b          v   
    ---------------------------------------------------------
     1 (B2) A               9 (A1) A                  0.4747
     1 (B2) A               8 (A1) A                 -0.4364
    ---------------------------------------------------------

  Density matrix analysis:
  ------------------------
  NOs
    Occupation of frontier NOs:
       0.9833   0.9971
    Number of electrons: 18.000000
    Number of unpaired electrons: n_u =  2.36308, n_u,nl =  2.03150
    NO participation ratio (PR_NO):  2.835466
  
  
  Mulliken Population Analysis
  Atom      Charge (e)              h+              e-           Del q
  --------------------------------------------------------------------
   1 C       -1.219957        0.591637       -1.559584       -0.967948
   2 C       -0.062216        0.513676        0.163745        0.677421
   3 H        0.127042        0.107398       -0.018058        0.089340
   4 H        0.198250        0.085685       -0.023428        0.062257
   5 H        0.127042        0.107398       -0.018058        0.089340
   6 H        0.198250        0.085685       -0.023428        0.062257
   7 H       -0.368411        0.030942       -0.043609       -0.012667
  --------------------------------------------------------------------
  Sum:       -1.000000        1.522420       -1.522420        0.000000
  
  Multipole moment analysis of the density matrix
    Molecular charge:                      -1.000000
    Number of electrons:                   18.000000
      Center of electronic charge [Ang]: [  0.000000,  -0.000000,  -0.207445]
    Total nuclear charge:                  17.000000
      Center of nuclear charge [Ang]:    [ -0.000000,   0.000000,  -0.000000]
    Dipole moment [D]:                     17.935208
      Cartesian components [D]:          [ -0.000000,   0.000000,  17.935208]
    RMS size of the density [Ang]:         2.002564
      Cartesian components [Ang]:        [  0.863721,   0.754083,   1.641831]
  
  Exciton analysis of the difference density matrix
    <r_h> [Ang]:                  [ -0.000000,  -0.000000,   0.136175]
    <r_e> [Ang]:                  [  0.000000,  -0.000000,  -0.630621]
    |<r_e - r_h>| [Ang]:            0.766796
    Hole size [Ang]:                1.862831
      Cartesian components [Ang]: [  0.871414,   0.931712,   1.357458]
    Electron size [Ang]:            4.579825
      Cartesian components [Ang]: [  2.067209,   2.041591,   3.540248]

  Transition density matrix analysis:
  -----------------------------------
  
  CT numbers (Mulliken)
    omega =     0.9079
    <Phe> =    -0.0015
  
  Exciton analysis of the transition density matrix
    Trans. dipole moment [D]:             0.200928
      Cartesian components [D]:         [ -0.000000,   0.200928,  -0.000000]
    <r_h> [Ang]:                        [  0.000000,   0.000000,   0.269073]
    <r_e> [Ang]:                        [  0.000000,  -0.000000,  -0.979236]
    |<r_e - r_h>| [Ang]:                  1.248309
    Hole size [Ang]:                      1.279356
      Cartesian components [Ang]:       [  0.522483,   0.885593,   0.761241]
    Electron size [Ang]:                  5.484537
      Cartesian components [Ang]:       [  2.486019,   2.471909,   4.217763]
    RMS electron-hole separation [Ang]:   5.765057
      Cartesian components [Ang]:       [  2.540091,   2.622739,   4.461509]
    Covariance(r_h, r_e) [Ang^2]:         0.019647
    Correlation coefficient:              0.002800
    Center-of-mass size [Ang]:            2.817632
      Cartesian components [Ang]:       [  1.270285,   1.314387,   2.144250]

  Decomposition into state-averaged NTOs
    H- 1 -> L+ 5: -0.5592 ( 62.5%)
    H- 1 -> L+ 2:  0.3260 ( 21.3%)
    H- 1 -> L+ 1: -0.1861 (  6.9%)
                   omega =  90.8%
  ----------------------------------------------------------------------------


  Excited state 9 (singlet, B2)                                    [converged]
  ----------------------------------------------------------------------------
  Term symbol:  9 (1) B2                                    R^2 =  1.17098e-06

  Total energy:                                            -78.4851644421 a.u.
  Excitation energy:                                               8.757429 eV

  Osc. strength:                                                      0.000264
  Trans. dip. moment [a.u.]:           [   0.000000,    0.035076,    0.000000]
  <i|r^2|0> [a.u.]:                    [  -0.000000,   -0.000000,   -0.000000]

  Dip. moment [a.u.]:                  [  -0.000000,   -0.000000,  -17.408990]
  Total dipole [Debye]:                                              44.249247
  <r^2> [a.u.]:                        [  65.134594,   93.441874,  164.575945]
  Total <r^2> [a.u.]:                                               323.152414

  V1^2 = 0.0154, V2^2 = 0.9846

  Important amplitudes:
      occ i      occ j       vir a       vir b          v   
    ---------------------------------------------------------
     6 (A1) A   6 (A1) B    7 (A1) A    2 (B2) B      0.3491
     6 (A1) A               2 (B2) A                  0.0716
    ---------------------------------------------------------

  Density matrix analysis:
  ------------------------
  NOs
    Occupation of frontier NOs:
       0.9997   1.0015
    Number of electrons: 18.000000
    Number of unpaired electrons: n_u =  2.41963, n_u,nl =  2.06491
    NO participation ratio (PR_NO):  2.908448
  
  
  Mulliken Population Analysis
  Atom      Charge (e)              h+              e-           Del q
  --------------------------------------------------------------------
   1 C       -3.651386        0.054427       -3.453804       -3.399377
   2 C        1.304358        0.602546        1.441450        2.043996
   3 H        0.050347        0.005834        0.006810        0.012644
   4 H        0.121067       -0.013586       -0.001340       -0.014926
   5 H        0.050347        0.005834        0.006810        0.012644
   6 H        0.121067       -0.013586       -0.001340       -0.014926
   7 H        1.004200        1.353662        0.006282        1.359944
  --------------------------------------------------------------------
  Sum:       -1.000000        1.995131       -1.995131        0.000000
  
  Multipole moment analysis of the density matrix
    Molecular charge:                      -1.000000
    Number of electrons:                   18.000000
      Center of electronic charge [Ang]: [  0.000000,   0.000000,   0.511802]
    Total nuclear charge:                  17.000000
      Center of nuclear charge [Ang]:    [ -0.000000,   0.000000,  -0.000000]
    Dipole moment [D]:                     44.249234
      Cartesian components [D]:          [ -0.000000,  -0.000000, -44.249234]
    RMS size of the density [Ang]:         2.182976
      Cartesian components [Ang]:        [  1.006632,   1.205690,   1.516044]
  
  Exciton analysis of the difference density matrix
    <r_h> [Ang]:                  [ -0.000000,  -0.000000,  -2.840289]
    <r_e> [Ang]:                  [  0.000000,   0.000000,   3.063615]
    |<r_e - r_h>| [Ang]:            5.903904
    Hole size [Ang]:                1.606995
      Cartesian components [Ang]: [  0.891963,   0.897051,   0.991027]
    Electron size [Ang]:            4.868074
      Cartesian components [Ang]: [  2.426628,   3.362691,   2.549888]

  Transition density matrix analysis:
  -----------------------------------
  
  CT numbers (Mulliken)
    omega =     0.0154
    <Phe> =     0.0010
  
  Exciton analysis of the transition density matrix
    Trans. dipole moment [D]:             0.044577
      Cartesian components [D]:         [  0.000000,   0.044577,   0.000000]
    <r_h> [Ang]:                        [ -0.000000,   0.000000,  -1.691468]
    <r_e> [Ang]:                        [  0.000000,   0.000000,   2.399900]
    |<r_e - r_h>| [Ang]:                  4.091368
    Hole size [Ang]:                      1.897036
      Cartesian components [Ang]:       [  0.658292,   0.586258,   1.679791]
    Electron size [Ang]:                  4.970835
      Cartesian components [Ang]:       [  2.298364,   3.977754,   1.898472]
    RMS electron-hole separation [Ang]:   6.749863
      Cartesian components [Ang]:       [  2.390774,   4.021249,   4.865635]
    Covariance(r_h, r_e) [Ang^2]:        -0.256704
    Correlation coefficient:             -0.027223
    Center-of-mass size [Ang]:            2.636026
      Cartesian components [Ang]:       [  1.195393,   2.010100,   1.216211]

  Decomposition into state-averaged NTOs
                   omega =   1.5%
  ----------------------------------------------------------------------------


  Excited state 10 (singlet, B2)                                    [converged]
  ----------------------------------------------------------------------------
  Term symbol:  10 (1) B2                                   R^2 =  1.01354e-07

  Total energy:                                            -78.4714599082 a.u.
  Excitation energy:                                               9.130349 eV

  Osc. strength:                                                      0.072497
  Trans. dip. moment [a.u.]:           [   0.000000,    0.569294,    0.000000]
  <i|r^2|0> [a.u.]:                    [   0.000000,    0.000000,   -0.000000]

  Dip. moment [a.u.]:                  [  -0.000000,    0.000000,    5.239340]
  Total dipole [Debye]:                                              13.317076
  <r^2> [a.u.]:                        [  40.049687,   28.413887,  156.443796]
  Total <r^2> [a.u.]:                                               224.907370

  V1^2 = 0.9463, V2^2 = 0.0537

  Important amplitudes:
      occ i      occ j       vir a       vir b          v   
    ---------------------------------------------------------
     1 (B2) A              10 (A1) A                 -0.5887
     1 (B2) A               8 (A1) A                  0.2818
    ---------------------------------------------------------

  Density matrix analysis:
  ------------------------
  NOs
    Occupation of frontier NOs:
       0.9831   0.9911
    Number of electrons: 18.000000
    Number of unpaired electrons: n_u =  2.36115, n_u,nl =  2.03131
    NO participation ratio (PR_NO):  2.848620
  
  
  Mulliken Population Analysis
  Atom      Charge (e)              h+              e-           Del q
  --------------------------------------------------------------------
   1 C       -0.582743        0.559751       -0.890485       -0.330734
   2 C       -0.660051        0.517841       -0.438255        0.079586
   3 H        0.115942        0.090389       -0.012149        0.078240
   4 H        0.201246        0.075590       -0.010338        0.065252
   5 H        0.115942        0.090389       -0.012149        0.078240
   6 H        0.201246        0.075590       -0.010338        0.065252
   7 H       -0.391581        0.023495       -0.059333       -0.035837
  --------------------------------------------------------------------
  Sum:       -1.000000        1.433046       -1.433046       -0.000000
  
  Multipole moment analysis of the density matrix
    Molecular charge:                      -1.000000
    Number of electrons:                   18.000000
      Center of electronic charge [Ang]: [  0.000000,  -0.000000,  -0.154030]
    Total nuclear charge:                  17.000000
      Center of nuclear charge [Ang]:    [ -0.000000,   0.000000,  -0.000000]
    Dipole moment [D]:                     13.317072
      Cartesian components [D]:          [ -0.000000,   0.000000,  13.317072]
    RMS size of the density [Ang]:         1.864186
      Cartesian components [Ang]:        [  0.789341,   0.664860,   1.552447]
  
  Exciton analysis of the difference density matrix
    <r_h> [Ang]:                  [ -0.000000,  -0.000000,   0.148453]
    <r_e> [Ang]:                  [  0.000000,  -0.000000,   0.004762]
    |<r_e - r_h>| [Ang]:            0.143691
    Hole size [Ang]:                1.773741
      Cartesian components [Ang]: [  0.838050,   0.926639,   1.259035]
    Electron size [Ang]:            3.899220
      Cartesian components [Ang]: [  1.700315,   1.665613,   3.088459]

  Transition density matrix analysis:
  -----------------------------------
  
  CT numbers (Mulliken)
    omega =     0.9142
    <Phe> =    -0.0099
  
  Exciton analysis of the transition density matrix
    Trans. dipole moment [D]:             0.723500
      Cartesian components [D]:         [  0.000000,   0.723500,   0.000000]
    <r_h> [Ang]:                        [  0.000000,   0.000000,   0.264428]
    <r_e> [Ang]:                        [  0.000000,  -0.000000,  -0.025517]
    |<r_e - r_h>| [Ang]:                  0.289946
    Hole size [Ang]:                      1.279285
      Cartesian components [Ang]:       [  0.521776,   0.884041,   0.763408]
    Electron size [Ang]:                  4.528567
      Cartesian components [Ang]:       [  1.968523,   1.941664,   3.586472]
    RMS electron-hole separation [Ang]:   4.710184
      Cartesian components [Ang]:       [  2.036075,   2.129724,   3.674849]
    Covariance(r_h, r_e) [Ang^2]:         0.021361
    Correlation coefficient:              0.003687
    Center-of-mass size [Ang]:            2.355165
      Cartesian components [Ang]:       [  1.018463,   1.068580,   1.835122]

  Decomposition into state-averaged NTOs
    H- 1 -> L+ 1: -0.4570 ( 41.8%)
    H- 1 -> L+ 4:  0.3837 ( 29.4%)
    H- 1 -> L+ 5:  0.2572 ( 13.2%)
    H- 1 -> L+ 2:  0.1849 (  6.8%)
                   omega =  91.4%
  ----------------------------------------------------------------------------


--------------------------------------------------------------------------------
  Time of ADC calculation:  CPU 134.78 s  wall 39.49 s
================================================================================
 
 --------------------------------------------------------------
             Orbital Energies (a.u.) and Symmetries
 --------------------------------------------------------------
 
 Alpha MOs, Restricted
 -- Occupied --                  
-11.076 -11.072  -0.884  -0.621  -0.502  -0.406  -0.354  -0.220
  1 A1    2 A1    3 A1    4 A1    1 B1    5 A1    2 B1    1 B2                 
 -0.036
  6 A1                                                                         
 -- Virtual --                   
  0.121   0.122   0.127   0.157   0.163   0.182   0.208   0.261
  7 A1    3 B1    2 B2    4 B1    3 B2    8 A1    9 A1    4 B2                 
  0.263   0.294   0.301   0.304   0.371   0.399   0.410   0.435
  5 B1   10 A1    6 B1    5 B2   11 A1    6 B2   12 A1   13 A1                 
  0.481   0.505   0.599   0.696   0.848   0.907   1.000   1.012
  7 B1   14 A1    8 B1   15 A1   16 A1    9 B1    7 B2   17 A1                 
  1.052   1.069   1.088   1.143   1.165   1.193   1.201   1.272
 10 B1    8 B2   18 A1   19 A1   20 A1   11 B1   21 A1    1 A2                 
  1.443   1.445   1.490   1.503   1.752   1.761   1.835   1.876
  9 B2    2 A2   22 A1   12 B1   23 A1   13 B1   14 B1   10 B2                 
  1.947   2.005   2.036   2.100   2.140   2.176   2.196   2.290
 15 B1   11 B2   24 A1   12 B2   25 A1    3 A2   16 B1   26 A1                 
  2.333   2.469   2.571   2.599   2.703   2.736   2.960   2.968
 13 B2   27 A1    4 A2   28 A1   17 B1   29 A1   30 A1   18 B1                 
  3.424   3.504
 31 A1   19 B1                                                                 
 
 Beta MOs, Restricted
 -- Occupied --                  
-11.076 -11.072  -0.884  -0.621  -0.502  -0.406  -0.354  -0.220
  1 A1    2 A1    3 A1    4 A1    1 B1    5 A1    2 B1    1 B2                 
 -0.036
  6 A1                                                                         
 -- Virtual --                   
  0.121   0.122   0.127   0.157   0.163   0.182   0.208   0.261
  7 A1    3 B1    2 B2    4 B1    3 B2    8 A1    9 A1    4 B2                 
  0.263   0.294   0.301   0.304   0.371   0.399   0.410   0.435
  5 B1   10 A1    6 B1    5 B2   11 A1    6 B2   12 A1   13 A1                 
  0.481   0.505   0.599   0.696   0.848   0.907   1.000   1.012
  7 B1   14 A1    8 B1   15 A1   16 A1    9 B1    7 B2   17 A1                 
  1.052   1.069   1.088   1.143   1.165   1.193   1.201   1.272
 10 B1    8 B2   18 A1   19 A1   20 A1   11 B1   21 A1    1 A2                 
  1.443   1.445   1.490   1.503   1.752   1.761   1.835   1.876
  9 B2    2 A2   22 A1   12 B1   23 A1   13 B1   14 B1   10 B2                 
  1.947   2.005   2.036   2.100   2.140   2.176   2.196   2.290
 15 B1   11 B2   24 A1   12 B2   25 A1    3 A2   16 B1   26 A1                 
  2.333   2.469   2.571   2.599   2.703   2.736   2.960   2.968
 13 B2   27 A1    4 A2   28 A1   17 B1   29 A1   30 A1   18 B1                 
  3.424   3.504
 31 A1   19 B1                                                                 
 --------------------------------------------------------------
 
          Ground-State Mulliken Net Atomic Charges

     Atom                 Charge (a.u.)
  ----------------------------------------
      1 C                    -0.300430
      2 C                    -0.629260
      3 H                     0.031296
      4 H                     0.131631
      5 H                     0.031296
      6 H                     0.131631
      7 H                    -0.396165
  ----------------------------------------
  Sum of atomic charges =    -1.000000

 -----------------------------------------------------------------
                    Cartesian Multipole Moments
 -----------------------------------------------------------------
    Charge (ESU x 10^10)
                -4.8032
    Dipole Moment (Debye)
         X       0.0000      Y       0.0000      Z      12.3521
       Tot      12.3521
    Quadrupole Moments (Debye-Ang)
        XX     -20.2695     XY      -0.0000     YY     -24.5715
        XZ      -0.0000     YZ      -0.0000     ZZ     -63.0402
    Octopole Moments (Debye-Ang^2)
       XXX       0.0000    XXY       0.0000    XYY       0.0000
       YYY      -0.0000    XXZ      17.5945    XYZ      -0.0000
       YYZ      17.5758    XZZ       0.0000    YZZ      -0.0000
       ZZZ     169.2778
    Hexadecapole Moments (Debye-Ang^3)
      XXXX     -73.7955   XXXY      -0.0000   XXYY     -24.7132
      XYYY      -0.0000   YYYY     -69.5013   XXXZ      -0.0000
      XXYZ       0.0000   XYYZ      -0.0000   YYYZ      -0.0000
      XXZZ     -95.6121   XYZZ      -0.0000   YYZZ     -98.9059
      XZZZ      -0.0000   YZZZ       0.0000   ZZZZ    -804.1147
 -----------------------------------------------------------------
 Total job time:  122.16s(wall), 180.90s(cpu) 
 Fri Mar 25 13:30:45 2022

        *************************************************************
        *                                                           *
        *  Thank you very much for using Q-Chem.  Have a nice day.  *
        *                                                           *
        *************************************************************


