/src/tsommerfeld/qchem/exe/qcprog.exe .input1.527778.4256.qcin.1 /src/jdavis/qchem.scratch/qchem4256/

                  Welcome to Q-Chem
     A Quantum Leap Into The Future Of Chemistry


 Q-Chem 5.4 (devel), Q-Chem, Inc., Pleasanton, CA (2021)

 E. Epifanovsky,  A. T. B. Gilbert,  Xintian Feng,  Joonho Lee,  Yuezhi Mao,  
 N. Mardirossian,  P. Pokhilko,  A. White,  M. Wormit,  M. P. Coons,  
 A. L. Dempwolff,  Zhengting Gan,  D. Hait,  P. R. Horn,  L. D. Jacobson,  
 I. Kaliman,  J. Kussmann,  A. W. Lange,  Ka Un Lao,  D. S. Levine,  Jie Liu,  
 S. C. McKenzie,  A. F. Morrison,  K. Nanda,  F. Plasser,  D. R. Rehn,  
 M. L. Vidal,  Zhi-Qiang You,  Ying Zhu,  B. Alam,  B. Albrecht,  
 A. Aldossary,  E. Alguire,  J. H. Andersen,  D. Barton,  K. Begam,  A. Behn,  
 Y. A. Bernard,  E. J. Berquist,  H. Burton,  A. Carreras,  K. Carter-Fenk,  
 R. Chakraborty,  A. D. Chien,  K. D. Closser,  V. Cofer-Shabica,  
 S. Dasgupta,  Jia Deng,  M. de Wergifosse,  M. Diedenhofen,  Hainam Do,  
 S. Ehlert,  Po-Tung Fang,  S. Fatehi,  Qingguo Feng,  T. Friedhoff,  
 J. Gayvert,  Qinghui Ge,  G. Gidofalvi,  M. Goldey,  J. Gomes,  
 C. Gonzalez-Espinoza,  S. Gulania,  A. Gunina,  M. W. D. Hanson-Heine,  
 P. H. P. Harbach,  A. W. Hauser,  M. F. Herbst,  M. Hernandez Vera,  
 M. Hodecker,  Z. C. Holden,  S. Houck,  Xunkun Huang,  Kerwin Hui,  
 B. C. Huynh,  M. Ivanov,  Hyunjun Ji,  Hanjie Jiang,  B. Kaduk,  S. Kaehler,  
 K. Khistyaev,  Jaehoon Kim,  P. Klunzinger,  Z. Koczor-Benda,  
 Joong Hoon Koh,  D. Kosenkov,  L. Koulias,  T. Kowalczyk,  C. M. Krauter,  
 K. Kue,  A. Kunitsa,  T. Kus,  A. Landau,  K. V. Lawler,  D. Lefrancois,  
 S. Lehtola,  Rain Li,  Yi-Pei Li,  Jiashu Liang,  M. Liebenthal,  
 Hung-Hsuan Lin,  You-Sheng Lin,  Fenglai Liu,  Kuan-Yu Liu,  
 M. Loipersberger,  A. Luenser,  A. Manjanath,  P. Manohar,  E. Mansoor,  
 S. F. Manzer,  Shan-Ping Mao,  A. V. Marenich,  T. Markovich,  S. Mason,  
 S. A. Maurer,  P. F. McLaughlin,  M. F. S. J. Menger,  J.-M. Mewes,  
 S. A. Mewes,  P. Morgante,  J. W. Mullinax,  K. J. Oosterbaan,  G. Paran,  
 Alexander C. Paul,  Suranjan K. Paul,  F. Pavosevic,  Zheng Pei,  S. Prager,  
 E. I. Proynov,  E. Ramos,  B. Rana,  A. E. Rask,  A. Rettig,  R. M. Richard,  
 F. Rob,  E. Rossomme,  T. Scheele,  M. Scheurer,  M. Schneider,  
 N. Sergueev,  S. M. Sharada,  W. Skomorowski,  D. W. Small,  C. J. Stein,  
 Yu-Chuan Su,  E. J. Sundstrom,  Zhen Tao,  J. Thirman,  T. Tsuchimochi,  
 N. M. Tubman,  S. P. Veccham,  O. Vydrov,  J. Wenzel,  J. Witte,  A. Yamada,  
 Kun Yao,  S. Yeganeh,  S. R. Yost,  A. Zech,  Igor Ying Zhang,  Xing Zhang,  
 Yu Zhang,  D. Zuev,  A. Aspuru-Guzik,  A. T. Bell,  N. A. Besley,  
 K. B. Bravaya,  B. R. Brooks,  D. Casanova,  Jeng-Da Chai,  S. Coriani,  
 C. J. Cramer,  A. E. DePrince, III,  R. A. DiStasio Jr.,  A. Dreuw,  
 B. D. Dunietz,  T. R. Furlani,  W. A. Goddard III,  S. Grimme,  
 S. Hammes-Schiffer,  T. Head-Gordon,  W. J. Hehre,  Chao-Ping Hsu,  
 T.-C. Jagau,  Yousung Jung,  A. Klamt,  Jing Kong,  D. S. Lambrecht,  
 WanZhen Liang,  N. J. Mayhall,  C. W. McCurdy,  J. B. Neaton,  
 C. Ochsenfeld,  J. A. Parkhill,  R. Peverati,  V. A. Rassolov,  Yihan Shao,  
 L. V. Slipchenko,  T. Stauch,  R. P. Steele,  J. E. Subotnik,  
 A. J. W. Thom,  A. Tkatchenko,  D. G. Truhlar,  T. Van Voorhis,  
 T. A. Wesolowski,  K. B. Whaley,  H. L. Woodcock III,  P. M. Zimmerman,  
 S. Faraji,  P. M. W. Gill,  M. Head-Gordon,  J. M. Herbert,  A. I. Krylov

 Additional authors for Version 5.4.1: 
 S. Kotaru,  Shaozhi Li,  Xiangyuan Li,  F. Matz,  A. Molle,  Haisheng Ren,  
 Yingli Su,  Hung-Yi Tsai,  C. Utku,  Fang Wang

 Contributors to earlier versions of Q-Chem not listed above: 
 R. D. Adamson,  B. Austin,  R. Baer,  J. Baker,  G. J. O. Beran,  
 K. Brandhorst,  S. T. Brown,  E. F. C. Byrd,  A. K. Chakraborty,  
 G. K. L. Chan,  Chun-Min Chang,  Yunqing Chen,  C.-L. Cheng,  
 Siu Hung Chien,  D. M. Chipman,  D. L. Crittenden,  H. Dachsel,  
 R. J. Doerksen,  A. D. Dutoi,  R. G. Edgar,  J. Fosso-Tande,  
 L. Fusti-Molnar,  D. Ghosh,  A. Ghysels,  A. Golubeva-Zadorozhnaya,  
 J. Gonthier,  M. S. Gordon,  S. R. Gwaltney,  G. Hawkins,  J. E. Herr,  
 A. Heyden,  S. Hirata,  E. G. Hohenstein,  G. Kedziora,  F. J. Keil,  
 C. Kelley,  Jihan Kim,  R. A. King,  R. Z. Khaliullin,  P. P. Korambath,  
 W. Kurlancheek,  A. Laurent,  A. M. Lee,  M. S. Lee,  S. V. Levchenko,  
 Ching Yeh Lin,  D. Liotard,  E. Livshits,  R. C. Lochan,  I. Lotan,  
 L. A. Martinez-Martinez,  P. E. Maslen,  N. Nair,  D. P. O'Neill,  
 D. Neuhauser,  E. Neuscamman,  C. M. Oana,  R. Olivares-Amaya,  R. Olson,  
 T. M. Perrine,  B. Peters,  P. A. Pieniazek,  A. Prociuk,  Y. M. Rhee,  
 J. Ritchie,  M. A. Rohrdanz,  E. Rosta,  N. J. Russ,  H. F. Schaefer III,  
 M. W. Schmidt,  N. E. Schultz,  S. Sharma,  N. Shenvi,  C. D. Sherrill,  
 A. C. Simmonett,  A. Sodt,  T. Stein,  D. Stuck,  K. S. Thanthiriwatte,  
 V. Vanovschi,  L. Vogt,  Tao Wang,  A. Warshel,  M. A. Watson,  
 C. F. Williams,  Q. Wu,  X. Xu,  Jun Yang,  W. Zhang,  Yan Zhao

 Please cite Q-Chem as follows:
 Y. Shao et al., Mol. Phys. 113, 184-215 (2015)
 DOI: 10.1080/00268976.2014.952696

 Q-Chem 5.4.1 for Intel X86 EM64T Linux

 Parts of Q-Chem use Armadillo 9.900.5 (Nocturnal Misbehaviour).
 http://arma.sourceforge.net/

 Q-Chem begins on Fri Mar 25 14:35:49 2022  

 Host: node01
0

     Scratch files written to /src/jdavis/qchem.scratch/qchem4256//
 Processing $rem in /src/tsommerfeld/qchem/config/preferences:
 Processing $rem in /home/jdavis/.qchemrc:

 Checking the input file for inconsistencies... 	...done.

--------------------------------------------------------------
User input:
--------------------------------------------------------------
$molecule
-1 1
C         0.0000000000    0.0000000000    0.8417902907
C         0.0000000000    0.0000000000   -0.4872097093
H         0.9623488518    0.0000000000    1.3363703127
H         0.9623489048    0.0000000000   -0.9817896873
H        -0.9623488518    0.0000000000    1.3363703127
H        -0.9623489048    0.0000000000   -0.9817896873
H         0.0000000000    0.0000000000   -2.8366446508
$end

$rem
   METHOD adc(2)
   BASIS gen
   PURECART 11
   EE_STATES [0,0,0,10]
   scf_convergence 8
   ADC_DAVIDSON_MAXITER 120
   ADC_DAVIDSON_MAXSUBSPACE 200
   adc_nguess_singles 100
   THRESH 14
   S2THRESH 14
   adc_davidson_conv 5
   adc_davidson_thresh 14
   THREADS 10
   MEM_TOTAL 95000
   STATE_ANALYSIS TRUE
$end
$basis
C 1
S   9   1.00
      6.665000D+03           6.920000D-04
      1.000000D+03           5.329000D-03
      2.280000D+02           2.707700D-02
      6.471000D+01           1.017180D-01
      2.106000D+01           2.747400D-01
      7.495000D+00           4.485640D-01
      2.797000D+00           2.850740D-01
      5.215000D-01           1.520400D-02
      1.596000D-01          -3.191000D-03
S   9   1.00
      6.665000D+03          -1.460000D-04
      1.000000D+03          -1.154000D-03
      2.280000D+02          -5.725000D-03
      6.471000D+01          -2.331200D-02
      2.106000D+01          -6.395500D-02
      7.495000D+00          -1.499810D-01
      2.797000D+00          -1.272620D-01
      5.215000D-01           5.445290D-01
      1.596000D-01           5.804960D-01
S   1   1.00
      1.596000D-01           1.000000D+00
S   1   1.00
      0.0469000              1.0000000
P   4   1.00
      9.439000D+00           3.810900D-02
      2.002000D+00           2.094800D-01
      5.456000D-01           5.085570D-01
      1.517000D-01           4.688420D-01
P   1   1.00
      1.517000D-01           1.000000D+00
P   1   1.00
      0.0927056      1.0000000
P   1   1.00
      0.0463528      1.0000000
D   1   1.00
      5.500000D-01           1.0000000
****
C 2
S   9   1.00
      6.665000D+03           6.920000D-04
      1.000000D+03           5.329000D-03
      2.280000D+02           2.707700D-02
      6.471000D+01           1.017180D-01
      2.106000D+01           2.747400D-01
      7.495000D+00           4.485640D-01
      2.797000D+00           2.850740D-01
      5.215000D-01           1.520400D-02
      1.596000D-01          -3.191000D-03
S   9   1.00
      6.665000D+03          -1.460000D-04
      1.000000D+03          -1.154000D-03
      2.280000D+02          -5.725000D-03
      6.471000D+01          -2.331200D-02
      2.106000D+01          -6.395500D-02
      7.495000D+00          -1.499810D-01
      2.797000D+00          -1.272620D-01
      5.215000D-01           5.445290D-01
      1.596000D-01           5.804960D-01
S   1   1.00
      1.596000D-01           1.000000D+00
S   1   1.00
      0.0469000              1.0000000
P   4   1.00
      9.439000D+00           3.810900D-02
      2.002000D+00           2.094800D-01
      5.456000D-01           5.085570D-01
      1.517000D-01           4.688420D-01
P   1   1.00
      1.517000D-01           1.000000D+00
P   1   1.00
      0.0927056      1.0000000
P   1   1.00
      0.0463528      1.0000000
D   1   1.00
      5.500000D-01           1.0000000
****
H 3
cc-pVDZ
****
H 4
cc-pVDZ
****
H 5
cc-pVDZ
****
H 6
cc-pVDZ
****
H 7
aug-cc-pVDZ
****
$end
--------------------------------------------------------------
 ----------------------------------------------------------------
             Standard Nuclear Orientation (Angstroms)
    I     Atom           X                Y                Z
 ----------------------------------------------------------------
    1      C       0.0000000000     0.0000000000     0.8417902855
    2      C       0.0000000000     0.0000000000    -0.4872097145
    3      H       0.9623488518     0.0000000000     1.3363703075
    4      H       0.9623489048     0.0000000000    -0.9817896925
    5      H      -0.9623488518     0.0000000000     1.3363703075
    6      H      -0.9623489048     0.0000000000    -0.9817896925
    7      H       0.0000000000     0.0000000000    -2.8366446560
 ----------------------------------------------------------------
 Molecular Point Group                 C2v   NOp =  4
 Largest Abelian Subgroup              C2v   NOp =  4
 Nuclear Repulsion Energy =          36.55739271 hartrees
 There are        9 alpha and        9 beta electrons
 Requested basis set is non-standard
 There are 33 shells and 67 basis functions
 Total memory of 95000 MB is distributed as follows: 
   MEM_STATIC is set to 192 MB
   QALLOC/CCMAN JOB total memory use is  94808 MB
 Warning: actual memory use might exceed 95000 MB

 Total QAlloc Memory Limit  95000 MB
 Mega-Array Size       188 MB
 MEM_STATIC part       192 MB

                       Distance Matrix (Angstroms)
             C (  1)   C (  2)   H (  3)   H (  4)   H (  5)   H (  6)
   C (  2)  1.329000
   H (  3)  1.082000  2.061931
   H (  4)  2.061931  1.082000  2.318160
   H (  5)  1.082000  2.061931  1.924698  3.013026
   H (  6)  2.061931  1.082000  3.013026  1.924698  2.318160
   H (  7)  3.678435  2.349435  4.282542  2.089642  4.282542  2.089642

 
 A cutoff of  1.0D-14 yielded    561 shell pairs
 There are      2337 function pairs (      2484 Cartesian)
 Smallest overlap matrix eigenvalue = 1.13E-04

 Scale SEOQF with 1.000000e-01/1.000000e-01/1.000000e-01

 Standard Electronic Orientation quadrupole field applied
 Nucleus-field energy     =    -0.0000000019 hartrees
 ================ Generating on-the-fly SAD Guess ================
Attempting to make child job directory: /src/jdavis/qchem.scratch/qchem4256//Frg1/
Attempting to make child job directory: /src/jdavis/qchem.scratch/qchem4256//Frg2/
Creating input file /src/jdavis/qchem.scratch/qchem4256/Frg1.input
using default PutDataFrgm: nothing
calling putenv with: QCSCRATCH=/src/jdavis/qchem.scratch/qchem4256/ 
Spawning Job For Fragment 0
Done Job For Fragment 0
calling putenv with: QCSCRATCH=/src/jdavis/qchem.scratch 
calling putenv with: QCTHREADS=1 
Creating input file /src/jdavis/qchem.scratch/qchem4256/Frg2.input
using default PutDataFrgm: nothing
calling putenv with: QCSCRATCH=/src/jdavis/qchem.scratch/qchem4256/ 
Spawning Job For Fragment 1
Done Job For Fragment 1
calling putenv with: QCSCRATCH=/src/jdavis/qchem.scratch 
calling putenv with: QCTHREADS=1 
 Time for running child jobs:  CPU 1.77 s  wall 54.30 s
 ============= Method Specific SAD Guess Constructed =============
 Guess from on-the-fly superposition of atomic densities
 Warning: Energy on first SCF cycle will be non-variational
 A restricted Hartree-Fock SCF calculation will be
 performed using Pulay DIIS extrapolation
 SCF converges when DIIS error is below 1.0E-08
 using 10 threads for integral computing
 -------------------------------------------------------
 OpenMP Integral computing Module                
 Release: version 1.0, May 2013, Q-Chem Inc. Pittsburgh 
 -------------------------------------------------------
 ---------------------------------------
  Cycle       Energy         DIIS Error
 ---------------------------------------
    1     -78.8405396682      7.39E-02
    2     -78.4376393930      7.16E-03
    3     -78.4934045557      2.32E-03
    4     -78.4975128731      8.97E-04
    5     -78.4982855216      2.38E-04
    6     -78.4983734172      7.85E-05
    7     -78.4983870697      3.76E-05
    8     -78.4983898844      7.05E-06
    9     -78.4983900008      1.37E-06
   10     -78.4983900055      2.56E-07
   11     -78.4983900057      5.31E-08
   12     -78.4983900057      1.05E-08
   13     -78.4983900057      1.81E-09 Convergence criterion met
 ---------------------------------------
 SCF time:  CPU 12.85 s  wall 1.29 s
 SCF   energy in the final basis set = -78.49839001
 Total energy in the final basis set = -78.49839001
================================================================================
|                                                                              |
|                                 A D C  M A N                                 |
|                                                                              |
 ------------------------------------------------------------------------------ 
|                                                                              |
| Components:                                                                  |
|                                                                              |
| - libvmm - 1.3-trunk                                                         |
|   Authors:                                                                   |
|   Evgeny Epifanovsky, Ilya Kaliman                                           |
|                                                                              |
| - libtensor - 2.5-trunk                                                      |
|   Authors:                                                                   |
|   Evgeny Epifanovsky, Michael Wormit, Dmitry Zuev, Sam Manzer,               |
|   Ilya Kaliman                                                               |
|                                                                              |
| - libwfa - 1.1-trunk                                                         |
|   Authors:                                                                   |
|   Felix Plasser, Stefanie Mewes (Baeppler), Benjamin Thomitzni,              |
|   Michael Wormit, Feng Chen, Anna I. Krylov, Pavel Pokhilko                  |
|                                                                              |
| - libadc - 1.1-trunk                                                         |
|   Authors:                                                                   |
|   Michael Wormit, Adrian L. Dempwolff, Philipp H. P. Harbach,                |
|   Caroline Krauter, Dirk Rehn, Matthias Schneider, Jan Wenzel                |
|                                                                              |
| - adcman - 2.6-trunk                                                         |
|   Authors:                                                                   |
|   Michael Wormit, Adrian L. Dempwolff, Philipp H. P. Harbach,                |
|   Caroline Krauter, Daniel Lefrancois, Jan-Michael Mewes, Dirk Rehn,         |
|   Matthias Schneider, Jan Wenzel, Andreas Dreuw                              |
|                                                                              |
| Authors of earlier versions of ADCMAN:                                       |
| Andreas Dreuw, Jan Hendrik Starcke, Dirk Rehn, Michael Wormit                |
|                                                                              |
================================================================================

 
 Alpha MOs, Restricted
 -- Occupied --                  
-11.072 -11.067  -0.879  -0.616  -0.498  -0.401  -0.349  -0.215
  1 A1    2 A1    3 A1    4 A1    1 B1    5 A1    2 B1    1 B2                 
 -0.029
  6 A1                                                                         
 -- Virtual --                   
  0.186   0.210   0.217   0.258   0.267   0.269   0.328   0.352
  7 A1    3 B1    2 B2    3 B2    8 A1    4 B1    9 A1    4 B2                 
  0.395   0.407   0.475   0.490   0.504   0.523   0.540   0.573
 10 A1   11 A1    5 B1   12 A1   13 A1    6 B1    5 B2    7 B1                 
  0.602   0.642   0.694   0.778   1.000   1.007   1.089   1.141
 14 A1    6 B2    8 B1   15 A1   16 A1    9 B1   17 A1   18 A1                 
  1.177   1.193   1.267   1.276   1.277   1.342   1.345   1.400
 19 A1   10 B1   20 A1   11 B1    1 A2    7 B2   21 A1    8 B2                 
  1.450   1.461   1.528   1.647   1.773   1.847   1.892   1.896
  2 A2    9 B2   22 A1   12 B1   23 A1   13 B1   14 B1   10 B2                 
  2.018   2.041   2.068   2.113   2.181   2.255   2.273   2.314
 15 B1   11 B2   24 A1   12 B2    3 A2   25 A1   16 B1   26 A1                 
  2.352   2.536   2.576   2.646   2.727   2.751   3.035   3.035
 13 B2   27 A1    4 A2   28 A1   17 B1   29 A1   30 A1   18 B1                 
  3.463   3.519
 31 A1   19 B1                                                                 
 
 Beta MOs, Restricted
 -- Occupied --                  
-11.072 -11.067  -0.879  -0.616  -0.498  -0.401  -0.349  -0.215
  1 A1    2 A1    3 A1    4 A1    1 B1    5 A1    2 B1    1 B2                 
 -0.029
  6 A1                                                                         
 -- Virtual --                   
  0.186   0.210   0.217   0.258   0.267   0.269   0.328   0.352
  7 A1    3 B1    2 B2    3 B2    8 A1    4 B1    9 A1    4 B2                 
  0.395   0.407   0.475   0.490   0.504   0.523   0.540   0.573
 10 A1   11 A1    5 B1   12 A1   13 A1    6 B1    5 B2    7 B1                 
  0.602   0.642   0.694   0.778   1.000   1.007   1.089   1.141
 14 A1    6 B2    8 B1   15 A1   16 A1    9 B1   17 A1   18 A1                 
  1.177   1.193   1.267   1.276   1.277   1.342   1.345   1.400
 19 A1   10 B1   20 A1   11 B1    1 A2    7 B2   21 A1    8 B2                 
  1.450   1.461   1.528   1.647   1.773   1.847   1.892   1.896
  2 A2    9 B2   22 A1   12 B1   23 A1   13 B1   14 B1   10 B2                 
  2.018   2.041   2.068   2.113   2.181   2.255   2.273   2.314
 15 B1   11 B2   24 A1   12 B2    3 A2   25 A1   16 B1   26 A1                 
  2.352   2.536   2.576   2.646   2.727   2.751   3.035   3.035
 13 B2   27 A1    4 A2   28 A1   17 B1   29 A1   30 A1   18 B1                 
  3.463   3.519
 31 A1   19 B1                                                                 

--------------------------------------------------------------------------------
                                   HF Summary                                   
--------------------------------------------------------------------------------
  Energy:                                                  -78.4983900057 a.u.
  Dip. moment [a.u.]:                  [   0.000000,   -0.000000,    4.735751]
  Total dipole [Debye]:                                              12.037080
  <r^2> [a.u.]:                        [  27.271782,   17.277539,  112.919238]
  Total <r^2> [a.u.]:                                               157.468560
--------------------------------------------------------------------------------

--------------------------------------------------------------------------------
                                 MP(2) Summary                                  
--------------------------------------------------------------------------------
  MP energy contribution:                                   -0.3080211727 a.u.
  Total energy:                                            -78.8064111784 a.u.
  Dip. moment [a.u.]:                  [  -0.000000,    0.000000,    4.727438]
  Total dipole [Debye]:                                              12.015952
  <r^2> [a.u.]:                        [  27.466818,   17.260436,  112.623246]
  Total <r^2> [a.u.]:                                               157.350500

  Density matrix analysis:
  ------------------------
  NOs
    Occupation of frontier NOs:
       0.0434   1.9374
    Number of electrons: 18.000000
    Number of unpaired electrons: n_u =  0.46807, n_u,nl =  0.05074
    NO participation ratio (PR_NO): 16.597113
  
  
  Mulliken Population Analysis
  Atom      Charge (e)              h+              e-           Del q
  --------------------------------------------------------------------
   1 C       -1.445350        0.129976       -0.124300        0.005675
   2 C        0.193539        0.049043       -0.109338       -0.060295
   3 H        0.073056        0.019773       -0.012150        0.007622
   4 H        0.181425        0.016856       -0.013768        0.003089
   5 H        0.073056        0.019773       -0.012150        0.007622
   6 H        0.181425        0.016856       -0.013768        0.003089
   7 H       -0.257150        0.046739       -0.013542        0.033196
  --------------------------------------------------------------------
  Sum:       -1.000000        0.299016       -0.299016        0.000000
  
  Multipole moment analysis of the density matrix
    Molecular charge:                      -1.000000
    Number of electrons:                   18.000000
      Center of electronic charge [Ang]: [  0.000000,  -0.000000,  -0.138981]
    Total nuclear charge:                  17.000000
      Center of nuclear charge [Ang]:    [ -0.000000,   0.000000,  -0.000000]
    Dipole moment [D]:                     12.015949
      Cartesian components [D]:          [ -0.000000,   0.000000,  12.015949]
    RMS size of the density [Ang]:         1.558399
      Cartesian components [Ang]:        [  0.653686,   0.518192,   1.316351]
  
  Exciton analysis of the difference density matrix
    <r_h> [Ang]:                  [  0.000000,   0.000000,  -0.178511]
    <r_e> [Ang]:                  [  0.000000,  -0.000000,  -0.163801]
    |<r_e - r_h>| [Ang]:            0.014710
    Hole size [Ang]:                1.861556
      Cartesian components [Ang]: [  0.754100,   0.762744,   1.521495]
    Electron size [Ang]:            1.832993
      Cartesian components [Ang]: [  0.866786,   0.752172,   1.429260]
--------------------------------------------------------------------------------
  Starting Davidson for singlet states of irrep B2 ... 
--------------------------------------------------------------------------------
   It NVec Conv  Avg. Norm  Max. Norm  Conv. states           Remark
--------------------------------------------------------------------------------
       100    0  1.098e-01  4.184e-01  0.1598 n n n n n n n n Guess.
    1  110    0  7.522e-03  3.670e-02  0.0960 n n n n n n n n 
    2  120    0  1.107e-03  7.310e-03  0.0954 n n n n n n n n 
    3  130    0  1.105e-04  9.172e-04  0.0954 n n n n n n n n 
    4  140    5  1.376e-05  1.334e-04  0.0954 y y y y y n n n 
    5  150   10  6.712e-07  6.578e-06  0.0954 y y y y y y y y Converged.
--------------------------------------------------------------------------------
  Davidson Summary: 
 ------------------------------------------------------------
  State  0: excitation energy =   0.0954 a.u.   (converged)
  State  1: excitation energy =   0.1129 a.u.   (converged)
  State  2: excitation energy =   0.1799 a.u.   (converged)
  State  3: excitation energy =   0.2372 a.u.   (converged)
  State  4: excitation energy =   0.2891 a.u.   (converged)
  State  5: excitation energy =   0.3535 a.u.   (converged)
  State  6: excitation energy =   0.3704 a.u.   (converged)
  State  7: excitation energy =   0.3832 a.u.   (converged)
  State  8: excitation energy =   0.3888 a.u.   (converged)
  State  9: excitation energy =   0.4124 a.u.   (converged)
 ------------------------------------------------------------


--------------------------------------------------------------------------------
                   State-averaged natural transition orbitals
--------------------------------------------------------------------------------
--------------------------------------------------------------------------------

--------------------------------------------------------------------------------
                             Excited State Summary
--------------------------------------------------------------------------------
--------------------------------------------------------------------------------

  Excited state 1 (singlet, B2)                                    [converged]
  ----------------------------------------------------------------------------
  Term symbol:  1 (1) B2                                    R^2 =  3.21820e-08

  Total energy:                                            -78.7109808466 a.u.
  Excitation energy:                                               2.596791 eV

  Osc. strength:                                                      0.037660
  Trans. dip. moment [a.u.]:           [   0.000000,   -0.769383,    0.000000]
  <i|r^2|0> [a.u.]:                    [   0.000000,    0.000000,   -0.000000]

  Dip. moment [a.u.]:                  [   0.000000,   -0.000000,   -0.547147]
  Total dipole [Debye]:                                               1.390709
  <r^2> [a.u.]:                        [  28.087341,   24.190142,   93.749062]
  Total <r^2> [a.u.]:                                               146.026545

  V1^2 = 0.9345, V2^2 = 0.0655

  Important amplitudes:
      occ i      occ j       vir a       vir b          v   
    ---------------------------------------------------------
     6 (A1) A               3 (B2) A                  0.4994
     6 (A1) A               2 (B2) A                 -0.3711
    ---------------------------------------------------------

  Density matrix analysis:
  ------------------------
  NOs
    Occupation of frontier NOs:
       0.9912   0.9938
    Number of electrons: 18.000000
    Number of unpaired electrons: n_u =  2.41352, n_u,nl =  2.04302
    NO participation ratio (PR_NO):  2.940197
  
  
  Mulliken Population Analysis
  Atom      Charge (e)              h+              e-           Del q
  --------------------------------------------------------------------
   1 C       -0.893873        1.099535       -0.548058        0.551477
   2 C       -0.564807       -0.214265       -0.544080       -0.758345
   3 H        0.064496        0.009222       -0.017782       -0.008560
   4 H        0.109517       -0.005711       -0.066196       -0.071908
   5 H        0.064496        0.009222       -0.017782       -0.008560
   6 H        0.109517       -0.005711       -0.066196       -0.071908
   7 H        0.110653        0.396315       -0.028511        0.367804
  --------------------------------------------------------------------
  Sum:       -1.000000        1.288606       -1.288606       -0.000000
  
  Multipole moment analysis of the density matrix
    Molecular charge:                      -1.000000
    Number of electrons:                   18.000000
      Center of electronic charge [Ang]: [ -0.000000,   0.000000,   0.016085]
    Total nuclear charge:                  17.000000
      Center of nuclear charge [Ang]:    [ -0.000000,   0.000000,  -0.000000]
    Dipole moment [D]:                     1.390708
      Cartesian components [D]:          [  0.000000,  -0.000000,  -1.390708]
    RMS size of the density [Ang]:         1.507149
      Cartesian components [Ang]:        [  0.661029,   0.613457,   1.207563]
  
  Exciton analysis of the difference density matrix
    <r_h> [Ang]:                  [  0.000000,  -0.000000,  -2.208575]
    <r_e> [Ang]:                  [  0.000000,   0.000000,  -0.042521]
    |<r_e - r_h>| [Ang]:            2.166054
    Hole size [Ang]:                2.051787
      Cartesian components [Ang]: [  0.955881,   0.967079,   1.536516]
    Electron size [Ang]:            2.573908
      Cartesian components [Ang]: [  1.023989,   1.562416,   1.770679]

  Transition density matrix analysis:
  -----------------------------------
  
  CT numbers (Mulliken)
    omega =     0.9116
    <Phe> =    -0.0139
  
  Exciton analysis of the transition density matrix
    Trans. dipole moment [D]:             0.977788
      Cartesian components [D]:         [  0.000000,  -0.977788,   0.000000]
    <r_h> [Ang]:                        [  0.000000,   0.000000,  -2.785388]
    <r_e> [Ang]:                        [  0.000000,   0.000000,   0.197732]
    |<r_e - r_h>| [Ang]:                  2.983121
    Hole size [Ang]:                      1.515712
      Cartesian components [Ang]:       [  0.843323,   0.846520,   0.932520]
    Electron size [Ang]:                  2.621088
      Cartesian components [Ang]:       [  0.975898,   1.676911,   1.762298]
    RMS electron-hole separation [Ang]:   4.250458
      Cartesian components [Ang]:       [  1.289640,   1.878582,   3.588057]
    Covariance(r_h, r_e) [Ang^2]:         0.000049
    Correlation coefficient:              0.000012
    Center-of-mass size [Ang]:            1.513901
      Cartesian components [Ang]:       [  0.644975,   0.939173,   0.996924]

  Decomposition into state-averaged NTOs
    H- 1 -> L+ 0: -0.5814 ( 67.6%)
    H- 1 -> L+ 1: -0.2558 ( 13.1%)
    H- 1 -> L+ 2: -0.2190 (  9.6%)
                   omega =  91.2%
  ----------------------------------------------------------------------------


  Excited state 2 (singlet, B2)                                    [converged]
  ----------------------------------------------------------------------------
  Term symbol:  2 (1) B2                                    R^2 =  8.97223e-09

  Total energy:                                            -78.6934967426 a.u.
  Excitation energy:                                               3.072558 eV

  Osc. strength:                                                      0.042340
  Trans. dip. moment [a.u.]:           [  -0.000000,    0.749979,    0.000000]
  <i|r^2|0> [a.u.]:                    [  -0.000000,    0.000000,    0.000000]

  Dip. moment [a.u.]:                  [   0.000000,    0.000000,   -0.263618]
  Total dipole [Debye]:                                               0.670051
  <r^2> [a.u.]:                        [  32.493450,   39.394197,   90.591759]
  Total <r^2> [a.u.]:                                               162.479406

  V1^2 = 0.9369, V2^2 = 0.0631

  Important amplitudes:
      occ i      occ j       vir a       vir b          v   
    ---------------------------------------------------------
     6 (A1) A               2 (B2) A                 -0.5335
     6 (A1) A               3 (B2) A                 -0.4231
    ---------------------------------------------------------

  Density matrix analysis:
  ------------------------
  NOs
    Occupation of frontier NOs:
       0.9941   0.9950
    Number of electrons: 18.000000
    Number of unpaired electrons: n_u =  2.42142, n_u,nl =  2.04868
    NO participation ratio (PR_NO):  2.944925
  
  
  Mulliken Population Analysis
  Atom      Charge (e)              h+              e-           Del q
  --------------------------------------------------------------------
   1 C       -0.755060        1.215914       -0.525624        0.690290
   2 C       -0.729997       -0.307251       -0.616285       -0.923535
   3 H        0.078724        0.009396       -0.003728        0.005668
   4 H        0.122336       -0.013096       -0.045992       -0.059089
   5 H        0.078724        0.009396       -0.003728        0.005668
   6 H        0.122336       -0.013096       -0.045992       -0.059089
   7 H        0.082937        0.382002       -0.041915        0.340087
  --------------------------------------------------------------------
  Sum:       -1.000000        1.283263       -1.283263       -0.000000
  
  Multipole moment analysis of the density matrix
    Molecular charge:                      -1.000000
    Number of electrons:                   18.000000
      Center of electronic charge [Ang]: [ -0.000000,  -0.000000,   0.007750]
    Total nuclear charge:                  17.000000
      Center of nuclear charge [Ang]:    [ -0.000000,   0.000000,  -0.000000]
    Dipole moment [D]:                     0.670051
      Cartesian components [D]:          [  0.000000,   0.000000,  -0.670051]
    RMS size of the density [Ang]:         1.589860
      Cartesian components [Ang]:        [  0.710989,   0.782854,   1.187135]
  
  Exciton analysis of the difference density matrix
    <r_h> [Ang]:                  [  0.000000,   0.000000,  -2.247064]
    <r_e> [Ang]:                  [  0.000000,  -0.000000,  -0.188910]
    |<r_e - r_h>| [Ang]:            2.058154
    Hole size [Ang]:                2.110413
      Cartesian components [Ang]: [  0.992522,   1.004871,   1.568113]
    Electron size [Ang]:            3.253716
      Cartesian components [Ang]: [  1.442911,   2.416549,   1.632472]

  Transition density matrix analysis:
  -----------------------------------
  
  CT numbers (Mulliken)
    omega =     0.9227
    <Phe> =    -0.0067
  
  Exciton analysis of the transition density matrix
    Trans. dipole moment [D]:             0.953128
      Cartesian components [D]:         [ -0.000000,   0.953128,   0.000000]
    <r_h> [Ang]:                        [  0.000000,   0.000000,  -2.811859]
    <r_e> [Ang]:                        [  0.000000,  -0.000000,   0.083409]
    |<r_e - r_h>| [Ang]:                  2.895268
    Hole size [Ang]:                      1.499497
      Cartesian components [Ang]:       [  0.848796,   0.852857,   0.894802]
    Electron size [Ang]:                  3.502018
      Cartesian components [Ang]:       [  1.556259,   2.695571,   1.605017]
    RMS electron-hole separation [Ang]:   4.783207
      Cartesian components [Ang]:       [  1.772662,   2.827635,   3.426546]
    Covariance(r_h, r_e) [Ang^2]:         0.008063
    Correlation coefficient:              0.001536
    Center-of-mass size [Ang]:            1.905830
      Cartesian components [Ang]:       [  0.886350,   1.413455,   0.921257]

  Decomposition into state-averaged NTOs
    H- 1 -> L+ 1:  0.5622 ( 63.2%)
    H- 1 -> L+ 0: -0.3221 ( 20.7%)
    H- 1 -> L+ 2:  0.2023 (  8.2%)
                   omega =  92.3%
  ----------------------------------------------------------------------------


  Excited state 3 (singlet, B2)                                    [converged]
  ----------------------------------------------------------------------------
  Term symbol:  3 (1) B2                                    R^2 =  5.77805e-08

  Total energy:                                            -78.6264748768 a.u.
  Excitation energy:                                               4.896316 eV

  Osc. strength:                                                      0.113181
  Trans. dip. moment [a.u.]:           [   0.000000,   -0.971344,   -0.000000]
  <i|r^2|0> [a.u.]:                    [  -0.000000,   -0.000000,   -0.000000]

  Dip. moment [a.u.]:                  [   0.000000,   -0.000000,   -0.393282]
  Total dipole [Debye]:                                               0.999624
  <r^2> [a.u.]:                        [  30.096921,   30.737042,   99.565135]
  Total <r^2> [a.u.]:                                               160.399099

  V1^2 = 0.9280, V2^2 = 0.0720

  Important amplitudes:
      occ i      occ j       vir a       vir b          v   
    ---------------------------------------------------------
     6 (A1) A               4 (B2) A                 -0.6106
     6 (A1) A               2 (B2) A                 -0.2032
    ---------------------------------------------------------

  Density matrix analysis:
  ------------------------
  NOs
    Occupation of frontier NOs:
       0.9847   0.9932
    Number of electrons: 18.000000
    Number of unpaired electrons: n_u =  2.43135, n_u,nl =  2.04947
    NO participation ratio (PR_NO):  3.001852
  
  
  Mulliken Population Analysis
  Atom      Charge (e)              h+              e-           Del q
  --------------------------------------------------------------------
   1 C       -0.774734        1.143227       -0.472611        0.670616
   2 C       -0.666682       -0.244362       -0.615859       -0.860221
   3 H        0.062147        0.007242       -0.018152       -0.010909
   4 H        0.107786       -0.009504       -0.064135       -0.073639
   5 H        0.062147        0.007242       -0.018152       -0.010909
   6 H        0.107786       -0.009504       -0.064135       -0.073639
   7 H        0.101551        0.393567       -0.034866        0.358701
  --------------------------------------------------------------------
  Sum:       -1.000000        1.287908       -1.287908       -0.000000
  
  Multipole moment analysis of the density matrix
    Molecular charge:                      -1.000000
    Number of electrons:                   18.000000
      Center of electronic charge [Ang]: [ -0.000000,   0.000000,   0.011562]
    Total nuclear charge:                  17.000000
      Center of nuclear charge [Ang]:    [ -0.000000,   0.000000,  -0.000000]
    Dipole moment [D]:                     0.999624
      Cartesian components [D]:          [  0.000000,  -0.000000,  -0.999624]
    RMS size of the density [Ang]:         1.579626
      Cartesian components [Ang]:        [  0.684268,   0.691506,   1.244514]
  
  Exciton analysis of the difference density matrix
    <r_h> [Ang]:                  [  0.000000,  -0.000000,  -2.248444]
    <r_e> [Ang]:                  [  0.000000,   0.000000,  -0.144437]
    |<r_e - r_h>| [Ang]:            2.104007
    Hole size [Ang]:                2.058153
      Cartesian components [Ang]: [  0.965975,   0.979984,   1.530528]
    Electron size [Ang]:            3.151743
      Cartesian components [Ang]: [  1.226771,   1.972453,   2.130245]

  Transition density matrix analysis:
  -----------------------------------
  
  CT numbers (Mulliken)
    omega =     0.9088
    <Phe> =    -0.0088
  
  Exciton analysis of the transition density matrix
    Trans. dipole moment [D]:             1.234455
      Cartesian components [D]:         [  0.000000,  -1.234455,  -0.000000]
    <r_h> [Ang]:                        [  0.000000,   0.000000,  -2.796102]
    <r_e> [Ang]:                        [  0.000000,  -0.000000,   0.130024]
    |<r_e - r_h>| [Ang]:                  2.926126
    Hole size [Ang]:                      1.511721
      Cartesian components [Ang]:       [  0.845975,   0.850093,   0.920309]
    Electron size [Ang]:                  3.367622
      Cartesian components [Ang]:       [  1.264611,   2.183599,   2.230142]
    RMS electron-hole separation [Ang]:   4.708813
      Cartesian components [Ang]:       [  1.521413,   2.343086,   3.790537]
    Covariance(r_h, r_e) [Ang^2]:         0.007734
    Correlation coefficient:              0.001519
    Center-of-mass size [Ang]:            1.846730
      Cartesian components [Ang]:       [  0.760778,   1.171694,   1.207792]

  Decomposition into state-averaged NTOs
    H- 1 -> L+ 2: -0.5986 ( 71.7%)
    H- 1 -> L+ 1:  0.2696 ( 14.5%)
    H- 1 -> L+ 4: -0.1049 (  2.2%)
    H- 1 -> L+ 0:  0.1048 (  2.2%)
                   omega =  90.9%
  ----------------------------------------------------------------------------


  Excited state 4 (singlet, B2)                                    [converged]
  ----------------------------------------------------------------------------
  Term symbol:  4 (1) B2                                    R^2 =  4.10320e-08

  Total energy:                                            -78.5692514100 a.u.
  Excitation energy:                                               6.453446 eV

  Osc. strength:                                                      0.075554
  Trans. dip. moment [a.u.]:           [   0.000000,   -0.691281,    0.000000]
  <i|r^2|0> [a.u.]:                    [   0.000000,    0.000000,   -0.000000]

  Dip. moment [a.u.]:                  [   0.000000,    0.000000,    0.421295]
  Total dipole [Debye]:                                               1.070825
  <r^2> [a.u.]:                        [  32.600371,   21.598930,  137.266236]
  Total <r^2> [a.u.]:                                               191.465537

  V1^2 = 0.9464, V2^2 = 0.0536

  Important amplitudes:
      occ i      occ j       vir a       vir b          v   
    ---------------------------------------------------------
     1 (B2) A               7 (A1) A                  0.6515
     1 (B2) A               8 (A1) A                  0.1925
    ---------------------------------------------------------

  Density matrix analysis:
  ------------------------
  NOs
    Occupation of frontier NOs:
       0.9843   0.9954
    Number of electrons: 18.000000
    Number of unpaired electrons: n_u =  2.35088, n_u,nl =  2.02914
    NO participation ratio (PR_NO):  2.809235
  
  
  Mulliken Population Analysis
  Atom      Charge (e)              h+              e-           Del q
  --------------------------------------------------------------------
   1 C       -0.855656        0.692970       -0.103276        0.589694
   2 C       -0.731682        0.405863       -1.331084       -0.925221
   3 H        0.180101        0.110059       -0.003015        0.107044
   4 H        0.252953        0.062888        0.008640        0.071528
   5 H        0.180101        0.110059       -0.003015        0.107044
   6 H        0.252953        0.062888        0.008640        0.071528
   7 H       -0.278768        0.007947       -0.029565       -0.021618
  --------------------------------------------------------------------
  Sum:       -1.000000        1.452675       -1.452675       -0.000000
  
  Multipole moment analysis of the density matrix
    Molecular charge:                      -1.000000
    Number of electrons:                   18.000000
      Center of electronic charge [Ang]: [ -0.000000,  -0.000000,  -0.012386]
    Total nuclear charge:                  17.000000
      Center of nuclear charge [Ang]:    [ -0.000000,   0.000000,  -0.000000]
    Dipole moment [D]:                     1.070824
      Cartesian components [D]:          [  0.000000,   0.000000,   1.070824]
    RMS size of the density [Ang]:         1.725834
      Cartesian components [Ang]:        [  0.712158,   0.579670,   1.461272]
  
  Exciton analysis of the difference density matrix
    <r_h> [Ang]:                  [ -0.000000,   0.000000,   0.245117]
    <r_e> [Ang]:                  [ -0.000000,  -0.000000,   1.813749]
    |<r_e - r_h>| [Ang]:            1.568632
    Hole size [Ang]:                1.747148
      Cartesian components [Ang]: [  0.816788,   0.914666,   1.244496]
    Electron size [Ang]:            2.529663
      Cartesian components [Ang]: [  1.287138,   1.293420,   1.752009]

  Transition density matrix analysis:
  -----------------------------------
  
  CT numbers (Mulliken)
    omega =     0.9157
    <Phe> =    -0.0080
  
  Exciton analysis of the transition density matrix
    Trans. dipole moment [D]:             0.878530
      Cartesian components [D]:         [  0.000000,  -0.878530,   0.000000]
    <r_h> [Ang]:                        [  0.000000,  -0.000000,   0.279980]
    <r_e> [Ang]:                        [ -0.000000,  -0.000000,   2.618168]
    |<r_e - r_h>| [Ang]:                  2.338188
    Hole size [Ang]:                      1.281428
      Cartesian components [Ang]:       [  0.522903,   0.886289,   0.763624]
    Electron size [Ang]:                  2.468802
      Cartesian components [Ang]:       [  1.476462,   1.502410,   1.287560]
    RMS electron-hole separation [Ang]:   3.627980
      Cartesian components [Ang]:       [  1.565746,   1.736546,   2.774002]
    Covariance(r_h, r_e) [Ang^2]:         0.020964
    Correlation coefficient:              0.006627
    Center-of-mass size [Ang]:            1.394540
      Cartesian components [Ang]:       [  0.783450,   0.876056,   0.750650]

  Decomposition into state-averaged NTOs
    H- 0 -> L+ 5: -0.6190 ( 76.6%)
    H- 0 -> L+ 3:  0.2532 ( 12.8%)
    H- 0 -> L+ 7: -0.1001 (  2.0%)
                   omega =  91.6%
  ----------------------------------------------------------------------------


  Excited state 5 (singlet, B2)                                    [converged]
  ----------------------------------------------------------------------------
  Term symbol:  5 (1) B2                                    R^2 =  1.30962e-07

  Total energy:                                            -78.5172665782 a.u.
  Excitation energy:                                               7.868025 eV

  Osc. strength:                                                      0.158767
  Trans. dip. moment [a.u.]:           [  -0.000000,    0.907546,   -0.000000]
  <i|r^2|0> [a.u.]:                    [  -0.000000,   -0.000000,    0.000000]

  Dip. moment [a.u.]:                  [  -0.000000,    0.000000,    3.542989]
  Total dipole [Debye]:                                               9.005380
  <r^2> [a.u.]:                        [  33.903230,   22.663471,  122.814411]
  Total <r^2> [a.u.]:                                               179.381112

  V1^2 = 0.9500, V2^2 = 0.0500

  Important amplitudes:
      occ i      occ j       vir a       vir b          v   
    ---------------------------------------------------------
     1 (B2) A               8 (A1) A                 -0.6365
     1 (B2) A               7 (A1) A                  0.1939
    ---------------------------------------------------------

  Density matrix analysis:
  ------------------------
  NOs
    Occupation of frontier NOs:
       0.9831   0.9905
    Number of electrons: 18.000000
    Number of unpaired electrons: n_u =  2.35238, n_u,nl =  2.02953
    NO participation ratio (PR_NO):  2.830215
  
  
  Mulliken Population Analysis
  Atom      Charge (e)              h+              e-           Del q
  --------------------------------------------------------------------
   1 C       -6.638075        0.454666       -5.647391       -5.192725
   2 C        5.108646        0.631803        4.283304        4.915107
   3 H        0.165441        0.090893        0.001492        0.092385
   4 H        0.242229        0.062947       -0.002143        0.060804
   5 H        0.165441        0.090893        0.001492        0.092385
   6 H        0.242229        0.062947       -0.002143        0.060804
   7 H       -0.285911        0.006104       -0.034865       -0.028761
  --------------------------------------------------------------------
  Sum:       -1.000000        1.400253       -1.400253        0.000000
  
  Multipole moment analysis of the density matrix
    Molecular charge:                      -1.000000
    Number of electrons:                   18.000000
      Center of electronic charge [Ang]: [  0.000000,  -0.000000,  -0.104159]
    Total nuclear charge:                  17.000000
      Center of nuclear charge [Ang]:    [ -0.000000,   0.000000,  -0.000000]
    Dipole moment [D]:                     9.005378
      Cartesian components [D]:          [ -0.000000,   0.000000,   9.005378]
    RMS size of the density [Ang]:         1.667276
      Cartesian components [Ang]:        [  0.726249,   0.593783,   1.378329]
  
  Exciton analysis of the difference density matrix
    <r_h> [Ang]:                  [ -0.000000,   0.000000,   0.214811]
    <r_e> [Ang]:                  [  0.000000,  -0.000000,   0.662432]
    |<r_e - r_h>| [Ang]:            0.447622
    Hole size [Ang]:                1.687620
      Cartesian components [Ang]: [  0.802401,   0.911914,   1.171592]
    Electron size [Ang]:            2.619382
      Cartesian components [Ang]: [  1.389614,   1.382790,   1.737247]

  Transition density matrix analysis:
  -----------------------------------
  
  CT numbers (Mulliken)
    omega =     0.9194
    <Phe> =    -0.0150
  
  Exciton analysis of the transition density matrix
    Trans. dipole moment [D]:             1.153376
      Cartesian components [D]:         [ -0.000000,   1.153376,  -0.000000]
    <r_h> [Ang]:                        [  0.000000,  -0.000000,   0.271796]
    <r_e> [Ang]:                        [  0.000000,   0.000000,   0.869200]
    |<r_e - r_h>| [Ang]:                  0.597404
    Hole size [Ang]:                      1.280979
      Cartesian components [Ang]:       [  0.522564,   0.885765,   0.763710]
    Electron size [Ang]:                  2.918020
      Cartesian components [Ang]:       [  1.584900,   1.593190,   1.861364]
    RMS electron-hole separation [Ang]:   3.231355
      Cartesian components [Ang]:       [  1.668026,   1.813552,   2.090544]
    Covariance(r_h, r_e) [Ang^2]:         0.035491
    Correlation coefficient:              0.009495
    Center-of-mass size [Ang]:            1.598963
      Cartesian components [Ang]:       [  0.834813,   0.916065,   1.010244]

  Decomposition into state-averaged NTOs
    H- 0 -> L+ 3: -0.5606 ( 62.9%)
    H- 0 -> L+ 5: -0.2692 ( 14.5%)
    H- 0 -> L+ 7:  0.2474 ( 12.2%)
    H- 0 -> L+ 6: -0.1050 (  2.2%)
                   omega =  91.9%
  ----------------------------------------------------------------------------


  Excited state 6 (singlet, B2)                                    [converged]
  ----------------------------------------------------------------------------
  Term symbol:  6 (1) B2                                    R^2 =  7.43630e-07

  Total energy:                                            -78.4529067306 a.u.
  Excitation energy:                                               9.619345 eV

  Osc. strength:                                                      0.000342
  Trans. dip. moment [a.u.]:           [  -0.000000,    0.038077,    0.000000]
  <i|r^2|0> [a.u.]:                    [  -0.000000,   -0.000000,   -0.000000]

  Dip. moment [a.u.]:                  [  -0.000000,    0.000000,    4.273047]
  Total dipole [Debye]:                                              10.861003
  <r^2> [a.u.]:                        [  27.451660,   21.069321,  113.192492]
  Total <r^2> [a.u.]:                                               161.713473

  V1^2 = 0.9507, V2^2 = 0.0493

  Important amplitudes:
      occ i      occ j       vir a       vir b          v   
    ---------------------------------------------------------
     5 (A1) A               4 (B2) A                  0.4556
     5 (A1) A               3 (B2) A                  0.3638
    ---------------------------------------------------------

  Density matrix analysis:
  ------------------------
  NOs
    Occupation of frontier NOs:
       0.9829   1.0150
    Number of electrons: 18.000000
    Number of unpaired electrons: n_u =  2.42136, n_u,nl =  2.04635
    NO participation ratio (PR_NO):  3.008956
  
  
  Mulliken Population Analysis
  Atom      Charge (e)              h+              e-           Del q
  --------------------------------------------------------------------
   1 C       -1.526216        0.485229       -0.566094       -0.080866
   2 C        0.010334        0.377617       -0.560822       -0.183204
   3 H        0.139135        0.073388       -0.007309        0.066079
   4 H        0.246479        0.073435       -0.008381        0.065054
   5 H        0.139135        0.073388       -0.007309        0.066079
   6 H        0.246479        0.073435       -0.008381        0.065054
   7 H       -0.255347        0.013514       -0.011711        0.001803
  --------------------------------------------------------------------
  Sum:       -1.000000        1.170006       -1.170006        0.000000
  
  Multipole moment analysis of the density matrix
    Molecular charge:                      -1.000000
    Number of electrons:                   18.000000
      Center of electronic charge [Ang]: [  0.000000,  -0.000000,  -0.125622]
    Total nuclear charge:                  17.000000
      Center of nuclear charge [Ang]:    [ -0.000000,   0.000000,  -0.000000]
    Dipole moment [D]:                     10.861000
      Cartesian components [D]:          [ -0.000000,   0.000000,  10.861000]
    RMS size of the density [Ang]:         1.581145
      Cartesian components [Ang]:        [  0.653505,   0.572519,   1.321049]
  
  Exciton analysis of the difference density matrix
    <r_h> [Ang]:                  [  0.000000,   0.000000,   0.030177]
    <r_e> [Ang]:                  [  0.000000,  -0.000000,   0.235692]
    |<r_e - r_h>| [Ang]:            0.205515
    Hole size [Ang]:                1.528787
      Cartesian components [Ang]: [  0.704358,   0.573062,   1.229906]
    Electron size [Ang]:            1.823946
      Cartesian components [Ang]: [  0.701778,   1.113560,   1.262645]

  Transition density matrix analysis:
  -----------------------------------
  
  CT numbers (Mulliken)
    omega =     0.9197
    <Phe> =    -0.0165
  
  Exciton analysis of the transition density matrix
    Trans. dipole moment [D]:             0.048391
      Cartesian components [D]:         [ -0.000000,   0.048391,   0.000000]
    <r_h> [Ang]:                        [ -0.000000,  -0.000000,   0.026730]
    <r_e> [Ang]:                        [  0.000000,   0.000000,   0.255662]
    |<r_e - r_h>| [Ang]:                  0.228932
    Hole size [Ang]:                      1.349615
      Cartesian components [Ang]:       [  0.601258,   0.424502,   1.131260]
    Electron size [Ang]:                  1.876900
      Cartesian components [Ang]:       [  0.709103,   1.172737,   1.282426]
    RMS electron-hole separation [Ang]:   2.303955
      Cartesian components [Ang]:       [  0.930107,   1.246114,   1.700090]
    Covariance(r_h, r_e) [Ang^2]:         0.044209
    Correlation coefficient:              0.017453
    Center-of-mass size [Ang]:            1.165401
      Cartesian components [Ang]:       [  0.464644,   0.624145,   0.867587]

  Decomposition into state-averaged NTOs
    H- 2 -> L+ 0: -0.6131 ( 75.2%)
    H- 2 -> L+ 1: -0.2754 ( 15.2%)
                   omega =  92.0%
  ----------------------------------------------------------------------------


  Excited state 7 (singlet, B2)                                    [converged]
  ----------------------------------------------------------------------------
  Term symbol:  7 (1) B2                                    R^2 =  6.04067e-07

  Total energy:                                            -78.4359813858 a.u.
  Excitation energy:                                              10.079907 eV

  Osc. strength:                                                      0.031249
  Trans. dip. moment [a.u.]:           [  -0.000000,   -0.355722,    0.000000]
  <i|r^2|0> [a.u.]:                    [   0.000000,    0.000000,   -0.000000]

  Dip. moment [a.u.]:                  [  -0.000000,    0.000000,    4.752434]
  Total dipole [Debye]:                                              12.079486
  <r^2> [a.u.]:                        [  35.995603,   22.867591,  123.097300]
  Total <r^2> [a.u.]:                                               181.960495

  V1^2 = 0.9466, V2^2 = 0.0534

  Important amplitudes:
      occ i      occ j       vir a       vir b          v   
    ---------------------------------------------------------
     1 (B2) A               9 (A1) A                  0.6219
     1 (B2) A              11 (A1) A                 -0.2326
    ---------------------------------------------------------

  Density matrix analysis:
  ------------------------
  NOs
    Occupation of frontier NOs:
       0.9796   0.9903
    Number of electrons: 18.000000
    Number of unpaired electrons: n_u =  2.37187, n_u,nl =  2.03400
    NO participation ratio (PR_NO):  2.886210
  
  
  Mulliken Population Analysis
  Atom      Charge (e)              h+              e-           Del q
  --------------------------------------------------------------------
   1 C        1.386306        0.468522        2.363134        2.831656
   2 C       -2.713057        0.616948       -3.523544       -2.906595
   3 H        0.039549        0.082082       -0.115589       -0.033508
   4 H        0.268637        0.074566        0.012646        0.087212
   5 H        0.039549        0.082082       -0.115589       -0.033508
   6 H        0.268637        0.074566        0.012646        0.087212
   7 H       -0.289620        0.008612       -0.041081       -0.032469
  --------------------------------------------------------------------
  Sum:       -1.000000        1.407378       -1.407378        0.000000
  
  Multipole moment analysis of the density matrix
    Molecular charge:                      -1.000000
    Number of electrons:                   18.000000
      Center of electronic charge [Ang]: [  0.000000,  -0.000000,  -0.139716]
    Total nuclear charge:                  17.000000
      Center of nuclear charge [Ang]:    [ -0.000000,   0.000000,  -0.000000]
    Dipole moment [D]:                     12.079482
      Cartesian components [D]:          [ -0.000000,   0.000000,  12.079482]
    RMS size of the density [Ang]:         1.676683
      Cartesian components [Ang]:        [  0.748324,   0.596451,   1.376779]
  
  Exciton analysis of the difference density matrix
    <r_h> [Ang]:                  [ -0.000000,   0.000000,   0.183084]
    <r_e> [Ang]:                  [  0.000000,  -0.000000,   0.173686]
    |<r_e - r_h>| [Ang]:            0.009399
    Hole size [Ang]:                1.689085
      Cartesian components [Ang]: [  0.798963,   0.898720,   1.186157]
    Electron size [Ang]:            2.784431
      Cartesian components [Ang]: [  1.528179,   1.386854,   1.869321]

  Transition density matrix analysis:
  -----------------------------------
  
  CT numbers (Mulliken)
    omega =     0.9150
    <Phe> =    -0.0027
  
  Exciton analysis of the transition density matrix
    Trans. dipole moment [D]:             0.452078
      Cartesian components [D]:         [ -0.000000,  -0.452078,   0.000000]
    <r_h> [Ang]:                        [ -0.000000,  -0.000000,   0.266616]
    <r_e> [Ang]:                        [  0.000000,  -0.000000,   0.224911]
    |<r_e - r_h>| [Ang]:                  0.041706
    Hole size [Ang]:                      1.282312
      Cartesian components [Ang]:       [  0.523236,   0.882389,   0.769374]
    Electron size [Ang]:                  3.165445
      Cartesian components [Ang]:       [  1.761120,   1.601762,   2.086351]
    RMS electron-hole separation [Ang]:   3.405826
      Cartesian components [Ang]:       [  1.835472,   1.822124,   2.215978]
    Covariance(r_h, r_e) [Ang^2]:         0.033227
    Correlation coefficient:              0.008186
    Center-of-mass size [Ang]:            1.712514
      Cartesian components [Ang]:       [  0.919468,   0.917656,   1.115882]

  Decomposition into state-averaged NTOs
    H- 0 -> L+ 6:  0.5909 ( 69.8%)
    H- 0 -> L+ 7: -0.2458 ( 12.1%)
    H- 0 -> L+ 3: -0.2042 (  8.3%)
                   omega =  91.5%
  ----------------------------------------------------------------------------


  Excited state 8 (singlet, B2)                                    [converged]
  ----------------------------------------------------------------------------
  Term symbol:  8 (1) B2                                    R^2 =  6.38560e-07

  Total energy:                                            -78.4232211931 a.u.
  Excitation energy:                                              10.427130 eV

  Osc. strength:                                                      0.126319
  Trans. dip. moment [a.u.]:           [   0.000000,   -0.703189,    0.000000]
  <i|r^2|0> [a.u.]:                    [   0.000000,    0.000000,   -0.000000]

  Dip. moment [a.u.]:                  [   0.000000,    0.000000,    3.995035]
  Total dipole [Debye]:                                              10.154369
  <r^2> [a.u.]:                        [  32.772497,   22.580087,  116.607195]
  Total <r^2> [a.u.]:                                               171.959780

  V1^2 = 0.9518, V2^2 = 0.0482

  Important amplitudes:
      occ i      occ j       vir a       vir b          v   
    ---------------------------------------------------------
     1 (B2) A              11 (A1) A                 -0.6159
     1 (B2) A               9 (A1) A                 -0.2363
    ---------------------------------------------------------

  Density matrix analysis:
  ------------------------
  NOs
    Occupation of frontier NOs:
       0.9686   0.9953
    Number of electrons: 18.000000
    Number of unpaired electrons: n_u =  2.38582, n_u,nl =  2.03550
    NO participation ratio (PR_NO):  2.936222
  
  
  Mulliken Population Analysis
  Atom      Charge (e)              h+              e-           Del q
  --------------------------------------------------------------------
   1 C       -1.528191        0.762968       -0.845809       -0.082841
   2 C        0.568220        0.343713        0.030968        0.374681
   3 H        0.014831        0.053632       -0.111857       -0.058225
   4 H        0.096063        0.048267       -0.133629       -0.085362
   5 H        0.014831        0.053632       -0.111857       -0.058225
   6 H        0.096063        0.048267       -0.133629       -0.085362
   7 H       -0.261816        0.006780       -0.011447       -0.004666
  --------------------------------------------------------------------
  Sum:       -1.000000        1.317259       -1.317259        0.000000
  
  Multipole moment analysis of the density matrix
    Molecular charge:                      -1.000000
    Number of electrons:                   18.000000
      Center of electronic charge [Ang]: [ -0.000000,  -0.000000,  -0.117449]
    Total nuclear charge:                  17.000000
      Center of nuclear charge [Ang]:    [ -0.000000,   0.000000,  -0.000000]
    Dipole moment [D]:                     10.154366
      Cartesian components [D]:          [  0.000000,   0.000000,  10.154366]
    RMS size of the density [Ang]:         1.631382
      Cartesian components [Ang]:        [  0.714035,   0.592690,   1.341745]
  
  Exciton analysis of the difference density matrix
    <r_h> [Ang]:                  [ -0.000000,   0.000000,   0.231593]
    <r_e> [Ang]:                  [ -0.000000,  -0.000000,   0.525818]
    |<r_e - r_h>| [Ang]:            0.294225
    Hole size [Ang]:                1.631204
      Cartesian components [Ang]: [  0.762614,   0.906542,   1.121352]
    Electron size [Ang]:            2.354502
      Cartesian components [Ang]: [  1.307472,   1.397387,   1.371680]

  Transition density matrix analysis:
  -----------------------------------
  
  CT numbers (Mulliken)
    omega =     0.9204
    <Phe> =    -0.0115
  
  Exciton analysis of the transition density matrix
    Trans. dipole moment [D]:             0.893665
      Cartesian components [D]:         [  0.000000,  -0.893665,   0.000000]
    <r_h> [Ang]:                        [ -0.000000,  -0.000000,   0.247543]
    <r_e> [Ang]:                        [ -0.000000,   0.000000,   0.633318]
    |<r_e - r_h>| [Ang]:                  0.385775
    Hole size [Ang]:                      1.312953
      Cartesian components [Ang]:       [  0.526950,   0.880736,   0.818825]
    Electron size [Ang]:                  2.573637
      Cartesian components [Ang]:       [  1.460178,   1.563735,   1.430461]
    RMS electron-hole separation [Ang]:   2.889610
      Cartesian components [Ang]:       [  1.548405,   1.785432,   1.662685]
    Covariance(r_h, r_e) [Ang^2]:         0.073215
    Correlation coefficient:              0.021667
    Center-of-mass size [Ang]:            1.457213
      Cartesian components [Ang]:       [  0.778144,   0.901965,   0.839298]

  Decomposition into state-averaged NTOs
    H- 0 -> L+ 7: -0.5645 ( 63.7%)
    H- 0 -> L+ 6: -0.3053 ( 18.6%)
    H- 0 -> L+ 3: -0.1994 (  8.0%)
                   omega =  92.0%
  ----------------------------------------------------------------------------


  Excited state 9 (singlet, B2)                                    [converged]
  ----------------------------------------------------------------------------
  Term symbol:  9 (1) B2                                    R^2 =  6.60599e-07

  Total energy:                                            -78.4175935407 a.u.
  Excitation energy:                                              10.580266 eV

  Osc. strength:                                                      0.001555
  Trans. dip. moment [a.u.]:           [  -0.000000,   -0.077446,    0.000000]
  <i|r^2|0> [a.u.]:                    [  -0.000000,    0.000000,    0.000000]

  Dip. moment [a.u.]:                  [   0.000000,    0.000000,   -0.226989]
  Total dipole [Debye]:                                               0.576949
  <r^2> [a.u.]:                        [  29.990780,   30.514767,   88.535607]
  Total <r^2> [a.u.]:                                               149.041155

  V1^2 = 0.9316, V2^2 = 0.0684

  Important amplitudes:
      occ i      occ j       vir a       vir b          v   
    ---------------------------------------------------------
     6 (A1) A               5 (B2) A                 -0.6571
     6 (A1) A               6 (B2) A                 -0.1383
    ---------------------------------------------------------

  Density matrix analysis:
  ------------------------
  NOs
    Occupation of frontier NOs:
       0.9625   1.0101
    Number of electrons: 18.000000
    Number of unpaired electrons: n_u =  2.46197, n_u,nl =  2.06424
    NO participation ratio (PR_NO):  3.150433
  
  
  Mulliken Population Analysis
  Atom      Charge (e)              h+              e-           Del q
  --------------------------------------------------------------------
   1 C       -0.772109        1.119682       -0.446441        0.673241
   2 C       -0.655108       -0.227853       -0.620794       -0.848647
   3 H        0.056695        0.004679       -0.021040       -0.016361
   4 H        0.107303       -0.010349       -0.063773       -0.074122
   5 H        0.056695        0.004679       -0.021040       -0.016361
   6 H        0.107303       -0.010349       -0.063773       -0.074122
   7 H        0.099221        0.388582       -0.032211        0.356371
  --------------------------------------------------------------------
  Sum:       -1.000000        1.269071       -1.269071       -0.000000
  
  Multipole moment analysis of the density matrix
    Molecular charge:                      -1.000000
    Number of electrons:                   18.000000
      Center of electronic charge [Ang]: [ -0.000000,  -0.000000,   0.006673]
    Total nuclear charge:                  17.000000
      Center of nuclear charge [Ang]:    [ -0.000000,   0.000000,  -0.000000]
    Dipole moment [D]:                     0.576948
      Cartesian components [D]:          [  0.000000,   0.000000,  -0.576948]
    RMS size of the density [Ang]:         1.522698
      Cartesian components [Ang]:        [  0.683060,   0.689001,   1.173591]
  
  Exciton analysis of the difference density matrix
    <r_h> [Ang]:                  [  0.000000,   0.000000,  -2.205905]
    <r_e> [Ang]:                  [  0.000000,   0.000000,  -0.140007]
    |<r_e - r_h>| [Ang]:            2.065897
    Hole size [Ang]:                2.057054
      Cartesian components [Ang]: [  0.956907,   0.963060,   1.545417]
    Electron size [Ang]:            2.691537
      Cartesian components [Ang]: [  1.213507,   1.962686,   1.385510]

  Transition density matrix analysis:
  -----------------------------------
  
  CT numbers (Mulliken)
    omega =     0.9163
    <Phe> =    -0.0000
  
  Exciton analysis of the transition density matrix
    Trans. dipole moment [D]:             0.098424
      Cartesian components [D]:         [ -0.000000,  -0.098424,   0.000000]
    <r_h> [Ang]:                        [  0.000000,   0.000000,  -2.734188]
    <r_e> [Ang]:                        [  0.000000,   0.000000,   0.114594]
    |<r_e - r_h>| [Ang]:                  2.848783
    Hole size [Ang]:                      1.561758
      Cartesian components [Ang]:       [  0.840363,   0.844440,   1.009851]
    Electron size [Ang]:                  2.802173
      Cartesian components [Ang]:       [  1.255032,   2.162323,   1.265475]
    RMS electron-hole separation [Ang]:   4.283915
      Cartesian components [Ang]:       [  1.510307,   2.321441,   3.268305]
    Covariance(r_h, r_e) [Ang^2]:         0.027446
    Correlation coefficient:              0.006271
    Center-of-mass size [Ang]:            1.608272
      Cartesian components [Ang]:       [  0.755249,   1.160641,   0.817954]

  Decomposition into state-averaged NTOs
    H- 1 -> L+ 4:  0.6597 ( 87.0%)
    H- 1 -> L+ 2: -0.1090 (  2.4%)
                   omega =  91.6%
  ----------------------------------------------------------------------------


  Excited state 10 (singlet, B2)                                    [converged]
  ----------------------------------------------------------------------------
  Term symbol:  10 (1) B2                                   R^2 =  6.57785e-06

  Total energy:                                            -78.3940583227 a.u.
  Excitation energy:                                              11.220692 eV

  Osc. strength:                                                      0.021091
  Trans. dip. moment [a.u.]:           [  -0.000000,   -0.276986,   -0.000000]
  <i|r^2|0> [a.u.]:                    [   0.000000,    0.000000,   -0.000000]

  Dip. moment [a.u.]:                  [  -0.000000,    0.000000,    3.237963]
  Total dipole [Debye]:                                               8.230083
  <r^2> [a.u.]:                        [  32.288708,   38.836222,  114.992952]
  Total <r^2> [a.u.]:                                               186.117883

  V1^2 = 0.9219, V2^2 = 0.0781

  Important amplitudes:
      occ i      occ j       vir a       vir b          v   
    ---------------------------------------------------------
     5 (A1) A               2 (B2) A                 -0.5623
     5 (A1) A               3 (B2) A                 -0.3249
    ---------------------------------------------------------

  Density matrix analysis:
  ------------------------
  NOs
    Occupation of frontier NOs:
       0.9814   1.0228
    Number of electrons: 18.000000
    Number of unpaired electrons: n_u =  2.48430, n_u,nl =  2.06791
    NO participation ratio (PR_NO):  3.187463
  
  
  Mulliken Population Analysis
  Atom      Charge (e)              h+              e-           Del q
  --------------------------------------------------------------------
   1 C       -1.991449        0.545014       -1.091113       -0.546099
   2 C        0.342065        0.435108       -0.286582        0.148526
   3 H        0.174100        0.110052       -0.009008        0.101044
   4 H        0.289261        0.117935       -0.010099        0.107837
   5 H        0.174100        0.110052       -0.009008        0.101044
   6 H        0.289261        0.117935       -0.010099        0.107837
   7 H       -0.277339        0.016475       -0.036664       -0.020188
  --------------------------------------------------------------------
  Sum:       -1.000000        1.452572       -1.452572       -0.000000
  
  Multipole moment analysis of the density matrix
    Molecular charge:                      -1.000000
    Number of electrons:                   18.000000
      Center of electronic charge [Ang]: [  0.000000,  -0.000000,  -0.095192]
    Total nuclear charge:                  17.000000
      Center of nuclear charge [Ang]:    [ -0.000000,   0.000000,  -0.000000]
    Dipole moment [D]:                     8.230081
      Cartesian components [D]:          [ -0.000000,   0.000000,   8.230081]
    RMS size of the density [Ang]:         1.698941
      Cartesian components [Ang]:        [  0.708745,   0.777291,   1.334129]
  
  Exciton analysis of the difference density matrix
    <r_h> [Ang]:                  [ -0.000000,   0.000000,  -0.004524]
    <r_e> [Ang]:                  [  0.000000,  -0.000000,   0.538097]
    |<r_e - r_h>| [Ang]:            0.542621
    Hole size [Ang]:                1.786443
      Cartesian components [Ang]: [  0.855494,   0.680500,   1.412950]
    Electron size [Ang]:            2.906486
      Cartesian components [Ang]: [  1.288968,   2.149996,   1.470964]

  Transition density matrix analysis:
  -----------------------------------
  
  CT numbers (Mulliken)
    omega =     0.9031
    <Phe> =    -0.0020
  
  Exciton analysis of the transition density matrix
    Trans. dipole moment [D]:             0.352014
      Cartesian components [D]:         [ -0.000000,  -0.352014,  -0.000000]
    <r_h> [Ang]:                        [  0.000000,  -0.000000,   0.031039]
    <r_e> [Ang]:                        [  0.000000,  -0.000000,   0.832568]
    |<r_e - r_h>| [Ang]:                  0.801528
    Hole size [Ang]:                      1.401733
      Cartesian components [Ang]:       [  0.621297,   0.424192,   1.182754]
    Electron size [Ang]:                  3.304197
      Cartesian components [Ang]:       [  1.478259,   2.559281,   1.477344]
    RMS electron-hole separation [Ang]:   3.644664
      Cartesian components [Ang]:       [  1.603399,   2.593232,   1.996956]
    Covariance(r_h, r_e) [Ang^2]:         0.120720
    Correlation coefficient:              0.026064
    Center-of-mass size [Ang]:            1.811354
      Cartesian components [Ang]:       [  0.801815,   1.297581,   0.976924]

  Decomposition into state-averaged NTOs
    H- 2 -> L+ 1:  0.6074 ( 73.8%)
    H- 2 -> L+ 0: -0.2731 ( 14.9%)
    H- 1 -> L+ 4: -0.0715 (  1.0%)
                   omega =  90.3%
  ----------------------------------------------------------------------------


--------------------------------------------------------------------------------
  Time of ADC calculation:  CPU 113.99 s  wall 33.90 s
================================================================================
 
 --------------------------------------------------------------
             Orbital Energies (a.u.) and Symmetries
 --------------------------------------------------------------
 
 Alpha MOs, Restricted
 -- Occupied --                  
-11.072 -11.067  -0.879  -0.616  -0.498  -0.401  -0.349  -0.215
  1 A1    2 A1    3 A1    4 A1    1 B1    5 A1    2 B1    1 B2                 
 -0.029
  6 A1                                                                         
 -- Virtual --                   
  0.186   0.210   0.217   0.258   0.267   0.269   0.328   0.352
  7 A1    3 B1    2 B2    3 B2    8 A1    4 B1    9 A1    4 B2                 
  0.395   0.407   0.475   0.490   0.504   0.523   0.540   0.573
 10 A1   11 A1    5 B1   12 A1   13 A1    6 B1    5 B2    7 B1                 
  0.602   0.642   0.694   0.778   1.000   1.007   1.089   1.141
 14 A1    6 B2    8 B1   15 A1   16 A1    9 B1   17 A1   18 A1                 
  1.177   1.193   1.267   1.276   1.277   1.342   1.345   1.400
 19 A1   10 B1   20 A1   11 B1    1 A2    7 B2   21 A1    8 B2                 
  1.450   1.461   1.528   1.647   1.773   1.847   1.892   1.896
  2 A2    9 B2   22 A1   12 B1   23 A1   13 B1   14 B1   10 B2                 
  2.018   2.041   2.068   2.113   2.181   2.255   2.273   2.314
 15 B1   11 B2   24 A1   12 B2    3 A2   25 A1   16 B1   26 A1                 
  2.352   2.536   2.576   2.646   2.727   2.751   3.035   3.035
 13 B2   27 A1    4 A2   28 A1   17 B1   29 A1   30 A1   18 B1                 
  3.463   3.519
 31 A1   19 B1                                                                 
 
 Beta MOs, Restricted
 -- Occupied --                  
-11.072 -11.067  -0.879  -0.616  -0.498  -0.401  -0.349  -0.215
  1 A1    2 A1    3 A1    4 A1    1 B1    5 A1    2 B1    1 B2                 
 -0.029
  6 A1                                                                         
 -- Virtual --                   
  0.186   0.210   0.217   0.258   0.267   0.269   0.328   0.352
  7 A1    3 B1    2 B2    3 B2    8 A1    4 B1    9 A1    4 B2                 
  0.395   0.407   0.475   0.490   0.504   0.523   0.540   0.573
 10 A1   11 A1    5 B1   12 A1   13 A1    6 B1    5 B2    7 B1                 
  0.602   0.642   0.694   0.778   1.000   1.007   1.089   1.141
 14 A1    6 B2    8 B1   15 A1   16 A1    9 B1   17 A1   18 A1                 
  1.177   1.193   1.267   1.276   1.277   1.342   1.345   1.400
 19 A1   10 B1   20 A1   11 B1    1 A2    7 B2   21 A1    8 B2                 
  1.450   1.461   1.528   1.647   1.773   1.847   1.892   1.896
  2 A2    9 B2   22 A1   12 B1   23 A1   13 B1   14 B1   10 B2                 
  2.018   2.041   2.068   2.113   2.181   2.255   2.273   2.314
 15 B1   11 B2   24 A1   12 B2    3 A2   25 A1   16 B1   26 A1                 
  2.352   2.536   2.576   2.646   2.727   2.751   3.035   3.035
 13 B2   27 A1    4 A2   28 A1   17 B1   29 A1   30 A1   18 B1                 
  3.463   3.519
 31 A1   19 B1                                                                 
 --------------------------------------------------------------
 
          Ground-State Mulliken Net Atomic Charges

     Atom                 Charge (a.u.)
  ----------------------------------------
      1 C                    -1.451025
      2 C                     0.253833
      3 H                     0.065434
      4 H                     0.178336
      5 H                     0.065434
      6 H                     0.178336
      7 H                    -0.290347
  ----------------------------------------
  Sum of atomic charges =    -1.000000

 -----------------------------------------------------------------
                    Cartesian Multipole Moments
 -----------------------------------------------------------------
    Charge (ESU x 10^10)
                -4.8032
    Dipole Moment (Debye)
         X       0.0000      Y      -0.0000      Z      12.0371
       Tot      12.0371
    Quadrupole Moments (Debye-Ang)
        XX     -18.8882     XY       0.0000     YY     -23.2389
        XZ      -0.0000     YZ      -0.0000     ZZ     -59.5528
    Octopole Moments (Debye-Ang^2)
       XXX       0.0000    XXY      -0.0000    XYY       0.0000
       YYY      -0.0000    XXZ      14.9045    XYZ       0.0000
       YYZ      14.6536    XZZ       0.0000    YZZ      -0.0000
       ZZZ     148.3597
    Hexadecapole Moments (Debye-Ang^3)
      XXXX     -50.6514   XXXY      -0.0000   XXYY     -17.2117
      XYYY      -0.0000   YYYY     -47.1494   XXXZ      -0.0000
      XXYZ      -0.0000   XYYZ      -0.0000   YYYZ      -0.0000
      XXZZ     -73.8771   XYZZ      -0.0000   YYZZ     -77.2976
      XZZZ      -0.0000   YZZZ       0.0000   ZZZZ    -673.4315
 -----------------------------------------------------------------
 Total job time:  116.60s(wall), 160.72s(cpu) 
 Fri Mar 25 14:37:45 2022

        *************************************************************
        *                                                           *
        *  Thank you very much for using Q-Chem.  Have a nice day.  *
        *                                                           *
        *************************************************************


