/src/tsommerfeld/qchem/exe/qcprog.exe .input0.694444.2009.qcin.1 /src/jdavis/qchem.scratch/qchem2009/

                  Welcome to Q-Chem
     A Quantum Leap Into The Future Of Chemistry


 Q-Chem 5.4 (devel), Q-Chem, Inc., Pleasanton, CA (2021)

 E. Epifanovsky,  A. T. B. Gilbert,  Xintian Feng,  Joonho Lee,  Yuezhi Mao,  
 N. Mardirossian,  P. Pokhilko,  A. White,  M. Wormit,  M. P. Coons,  
 A. L. Dempwolff,  Zhengting Gan,  D. Hait,  P. R. Horn,  L. D. Jacobson,  
 I. Kaliman,  J. Kussmann,  A. W. Lange,  Ka Un Lao,  D. S. Levine,  Jie Liu,  
 S. C. McKenzie,  A. F. Morrison,  K. Nanda,  F. Plasser,  D. R. Rehn,  
 M. L. Vidal,  Zhi-Qiang You,  Ying Zhu,  B. Alam,  B. Albrecht,  
 A. Aldossary,  E. Alguire,  J. H. Andersen,  D. Barton,  K. Begam,  A. Behn,  
 Y. A. Bernard,  E. J. Berquist,  H. Burton,  A. Carreras,  K. Carter-Fenk,  
 R. Chakraborty,  A. D. Chien,  K. D. Closser,  V. Cofer-Shabica,  
 S. Dasgupta,  Jia Deng,  M. de Wergifosse,  M. Diedenhofen,  Hainam Do,  
 S. Ehlert,  Po-Tung Fang,  S. Fatehi,  Qingguo Feng,  T. Friedhoff,  
 J. Gayvert,  Qinghui Ge,  G. Gidofalvi,  M. Goldey,  J. Gomes,  
 C. Gonzalez-Espinoza,  S. Gulania,  A. Gunina,  M. W. D. Hanson-Heine,  
 P. H. P. Harbach,  A. W. Hauser,  M. F. Herbst,  M. Hernandez Vera,  
 M. Hodecker,  Z. C. Holden,  S. Houck,  Xunkun Huang,  Kerwin Hui,  
 B. C. Huynh,  M. Ivanov,  Hyunjun Ji,  Hanjie Jiang,  B. Kaduk,  S. Kaehler,  
 K. Khistyaev,  Jaehoon Kim,  P. Klunzinger,  Z. Koczor-Benda,  
 Joong Hoon Koh,  D. Kosenkov,  L. Koulias,  T. Kowalczyk,  C. M. Krauter,  
 K. Kue,  A. Kunitsa,  T. Kus,  A. Landau,  K. V. Lawler,  D. Lefrancois,  
 S. Lehtola,  Rain Li,  Yi-Pei Li,  Jiashu Liang,  M. Liebenthal,  
 Hung-Hsuan Lin,  You-Sheng Lin,  Fenglai Liu,  Kuan-Yu Liu,  
 M. Loipersberger,  A. Luenser,  A. Manjanath,  P. Manohar,  E. Mansoor,  
 S. F. Manzer,  Shan-Ping Mao,  A. V. Marenich,  T. Markovich,  S. Mason,  
 S. A. Maurer,  P. F. McLaughlin,  M. F. S. J. Menger,  J.-M. Mewes,  
 S. A. Mewes,  P. Morgante,  J. W. Mullinax,  K. J. Oosterbaan,  G. Paran,  
 Alexander C. Paul,  Suranjan K. Paul,  F. Pavosevic,  Zheng Pei,  S. Prager,  
 E. I. Proynov,  E. Ramos,  B. Rana,  A. E. Rask,  A. Rettig,  R. M. Richard,  
 F. Rob,  E. Rossomme,  T. Scheele,  M. Scheurer,  M. Schneider,  
 N. Sergueev,  S. M. Sharada,  W. Skomorowski,  D. W. Small,  C. J. Stein,  
 Yu-Chuan Su,  E. J. Sundstrom,  Zhen Tao,  J. Thirman,  T. Tsuchimochi,  
 N. M. Tubman,  S. P. Veccham,  O. Vydrov,  J. Wenzel,  J. Witte,  A. Yamada,  
 Kun Yao,  S. Yeganeh,  S. R. Yost,  A. Zech,  Igor Ying Zhang,  Xing Zhang,  
 Yu Zhang,  D. Zuev,  A. Aspuru-Guzik,  A. T. Bell,  N. A. Besley,  
 K. B. Bravaya,  B. R. Brooks,  D. Casanova,  Jeng-Da Chai,  S. Coriani,  
 C. J. Cramer,  A. E. DePrince, III,  R. A. DiStasio Jr.,  A. Dreuw,  
 B. D. Dunietz,  T. R. Furlani,  W. A. Goddard III,  S. Grimme,  
 S. Hammes-Schiffer,  T. Head-Gordon,  W. J. Hehre,  Chao-Ping Hsu,  
 T.-C. Jagau,  Yousung Jung,  A. Klamt,  Jing Kong,  D. S. Lambrecht,  
 WanZhen Liang,  N. J. Mayhall,  C. W. McCurdy,  J. B. Neaton,  
 C. Ochsenfeld,  J. A. Parkhill,  R. Peverati,  V. A. Rassolov,  Yihan Shao,  
 L. V. Slipchenko,  T. Stauch,  R. P. Steele,  J. E. Subotnik,  
 A. J. W. Thom,  A. Tkatchenko,  D. G. Truhlar,  T. Van Voorhis,  
 T. A. Wesolowski,  K. B. Whaley,  H. L. Woodcock III,  P. M. Zimmerman,  
 S. Faraji,  P. M. W. Gill,  M. Head-Gordon,  J. M. Herbert,  A. I. Krylov

 Additional authors for Version 5.4.1: 
 S. Kotaru,  Shaozhi Li,  Xiangyuan Li,  F. Matz,  A. Molle,  Haisheng Ren,  
 Yingli Su,  Hung-Yi Tsai,  C. Utku,  Fang Wang

 Contributors to earlier versions of Q-Chem not listed above: 
 R. D. Adamson,  B. Austin,  R. Baer,  J. Baker,  G. J. O. Beran,  
 K. Brandhorst,  S. T. Brown,  E. F. C. Byrd,  A. K. Chakraborty,  
 G. K. L. Chan,  Chun-Min Chang,  Yunqing Chen,  C.-L. Cheng,  
 Siu Hung Chien,  D. M. Chipman,  D. L. Crittenden,  H. Dachsel,  
 R. J. Doerksen,  A. D. Dutoi,  R. G. Edgar,  J. Fosso-Tande,  
 L. Fusti-Molnar,  D. Ghosh,  A. Ghysels,  A. Golubeva-Zadorozhnaya,  
 J. Gonthier,  M. S. Gordon,  S. R. Gwaltney,  G. Hawkins,  J. E. Herr,  
 A. Heyden,  S. Hirata,  E. G. Hohenstein,  G. Kedziora,  F. J. Keil,  
 C. Kelley,  Jihan Kim,  R. A. King,  R. Z. Khaliullin,  P. P. Korambath,  
 W. Kurlancheek,  A. Laurent,  A. M. Lee,  M. S. Lee,  S. V. Levchenko,  
 Ching Yeh Lin,  D. Liotard,  E. Livshits,  R. C. Lochan,  I. Lotan,  
 L. A. Martinez-Martinez,  P. E. Maslen,  N. Nair,  D. P. O'Neill,  
 D. Neuhauser,  E. Neuscamman,  C. M. Oana,  R. Olivares-Amaya,  R. Olson,  
 T. M. Perrine,  B. Peters,  P. A. Pieniazek,  A. Prociuk,  Y. M. Rhee,  
 J. Ritchie,  M. A. Rohrdanz,  E. Rosta,  N. J. Russ,  H. F. Schaefer III,  
 M. W. Schmidt,  N. E. Schultz,  S. Sharma,  N. Shenvi,  C. D. Sherrill,  
 A. C. Simmonett,  A. Sodt,  T. Stein,  D. Stuck,  K. S. Thanthiriwatte,  
 V. Vanovschi,  L. Vogt,  Tao Wang,  A. Warshel,  M. A. Watson,  
 C. F. Williams,  Q. Wu,  X. Xu,  Jun Yang,  W. Zhang,  Yan Zhao

 Please cite Q-Chem as follows:
 Y. Shao et al., Mol. Phys. 113, 184-215 (2015)
 DOI: 10.1080/00268976.2014.952696

 Q-Chem 5.4.1 for Intel X86 EM64T Linux

 Parts of Q-Chem use Armadillo 9.900.5 (Nocturnal Misbehaviour).
 http://arma.sourceforge.net/

 Q-Chem begins on Fri Mar 25 13:34:50 2022  

 Host: node01
0

     Scratch files written to /src/jdavis/qchem.scratch/qchem2009//
 Processing $rem in /src/tsommerfeld/qchem/config/preferences:
 Processing $rem in /home/jdavis/.qchemrc:

 Checking the input file for inconsistencies... 	...done.

--------------------------------------------------------------
User input:
--------------------------------------------------------------
$molecule
-1 1
C         0.0000000000    0.0000000000    0.8417902907
C         0.0000000000    0.0000000000   -0.4872097093
H         0.9623488518    0.0000000000    1.3363703127
H         0.9623489048    0.0000000000   -0.9817896873
H        -0.9623488518    0.0000000000    1.3363703127
H        -0.9623489048    0.0000000000   -0.9817896873
H         0.0000000000    0.0000000000   -2.8366446508
$end

$rem
   METHOD adc(2)
   BASIS gen
   PURECART 11
   EE_STATES [0,0,0,10]
   scf_convergence 8
   ADC_DAVIDSON_MAXITER 120
   ADC_DAVIDSON_MAXSUBSPACE 200
   adc_nguess_singles 100
   THRESH 14
   S2THRESH 14
   adc_davidson_conv 5
   adc_davidson_thresh 14
   THREADS 10
   MEM_TOTAL 95000
   STATE_ANALYSIS TRUE
$end
$basis
C 1
S   9   1.00
      6.665000D+03           6.920000D-04
      1.000000D+03           5.329000D-03
      2.280000D+02           2.707700D-02
      6.471000D+01           1.017180D-01
      2.106000D+01           2.747400D-01
      7.495000D+00           4.485640D-01
      2.797000D+00           2.850740D-01
      5.215000D-01           1.520400D-02
      1.596000D-01          -3.191000D-03
S   9   1.00
      6.665000D+03          -1.460000D-04
      1.000000D+03          -1.154000D-03
      2.280000D+02          -5.725000D-03
      6.471000D+01          -2.331200D-02
      2.106000D+01          -6.395500D-02
      7.495000D+00          -1.499810D-01
      2.797000D+00          -1.272620D-01
      5.215000D-01           5.445290D-01
      1.596000D-01           5.804960D-01
S   1   1.00
      1.596000D-01           1.000000D+00
S   1   1.00
      0.0469000              1.0000000
P   4   1.00
      9.439000D+00           3.810900D-02
      2.002000D+00           2.094800D-01
      5.456000D-01           5.085570D-01
      1.517000D-01           4.688420D-01
P   1   1.00
      1.517000D-01           1.000000D+00
P   1   1.00
      0.0421389      1.0000000
P   1   1.00
      0.0210694      1.0000000
D   1   1.00
      5.500000D-01           1.0000000
****
C 2
S   9   1.00
      6.665000D+03           6.920000D-04
      1.000000D+03           5.329000D-03
      2.280000D+02           2.707700D-02
      6.471000D+01           1.017180D-01
      2.106000D+01           2.747400D-01
      7.495000D+00           4.485640D-01
      2.797000D+00           2.850740D-01
      5.215000D-01           1.520400D-02
      1.596000D-01          -3.191000D-03
S   9   1.00
      6.665000D+03          -1.460000D-04
      1.000000D+03          -1.154000D-03
      2.280000D+02          -5.725000D-03
      6.471000D+01          -2.331200D-02
      2.106000D+01          -6.395500D-02
      7.495000D+00          -1.499810D-01
      2.797000D+00          -1.272620D-01
      5.215000D-01           5.445290D-01
      1.596000D-01           5.804960D-01
S   1   1.00
      1.596000D-01           1.000000D+00
S   1   1.00
      0.0469000              1.0000000
P   4   1.00
      9.439000D+00           3.810900D-02
      2.002000D+00           2.094800D-01
      5.456000D-01           5.085570D-01
      1.517000D-01           4.688420D-01
P   1   1.00
      1.517000D-01           1.000000D+00
P   1   1.00
      0.0421389      1.0000000
P   1   1.00
      0.0210694      1.0000000
D   1   1.00
      5.500000D-01           1.0000000
****
H 3
cc-pVDZ
****
H 4
cc-pVDZ
****
H 5
cc-pVDZ
****
H 6
cc-pVDZ
****
H 7
aug-cc-pVDZ
****
$end
--------------------------------------------------------------
 ----------------------------------------------------------------
             Standard Nuclear Orientation (Angstroms)
    I     Atom           X                Y                Z
 ----------------------------------------------------------------
    1      C       0.0000000000     0.0000000000     0.8417902855
    2      C       0.0000000000     0.0000000000    -0.4872097145
    3      H       0.9623488518     0.0000000000     1.3363703075
    4      H       0.9623489048     0.0000000000    -0.9817896925
    5      H      -0.9623488518     0.0000000000     1.3363703075
    6      H      -0.9623489048     0.0000000000    -0.9817896925
    7      H       0.0000000000     0.0000000000    -2.8366446560
 ----------------------------------------------------------------
 Molecular Point Group                 C2v   NOp =  4
 Largest Abelian Subgroup              C2v   NOp =  4
 Nuclear Repulsion Energy =          36.55739271 hartrees
 There are        9 alpha and        9 beta electrons
 Requested basis set is non-standard
 There are 33 shells and 67 basis functions
 Total memory of 95000 MB is distributed as follows: 
   MEM_STATIC is set to 192 MB
   QALLOC/CCMAN JOB total memory use is  94808 MB
 Warning: actual memory use might exceed 95000 MB

 Total QAlloc Memory Limit  95000 MB
 Mega-Array Size       188 MB
 MEM_STATIC part       192 MB

                       Distance Matrix (Angstroms)
             C (  1)   C (  2)   H (  3)   H (  4)   H (  5)   H (  6)
   C (  2)  1.329000
   H (  3)  1.082000  2.061931
   H (  4)  2.061931  1.082000  2.318160
   H (  5)  1.082000  2.061931  1.924698  3.013026
   H (  6)  2.061931  1.082000  3.013026  1.924698  2.318160
   H (  7)  3.678435  2.349435  4.282542  2.089642  4.282542  2.089642

 
 A cutoff of  1.0D-14 yielded    561 shell pairs
 There are      2337 function pairs (      2484 Cartesian)
 Smallest overlap matrix eigenvalue = 1.66E-04

 Scale SEOQF with 1.000000e-01/1.000000e-01/1.000000e-01

 Standard Electronic Orientation quadrupole field applied
 Nucleus-field energy     =    -0.0000000019 hartrees
 ================ Generating on-the-fly SAD Guess ================
Attempting to make child job directory: /src/jdavis/qchem.scratch/qchem2009//Frg1/
Attempting to make child job directory: /src/jdavis/qchem.scratch/qchem2009//Frg2/
Creating input file /src/jdavis/qchem.scratch/qchem2009/Frg1.input
using default PutDataFrgm: nothing
calling putenv with: QCSCRATCH=/src/jdavis/qchem.scratch/qchem2009/ 
Spawning Job For Fragment 0
Done Job For Fragment 0
calling putenv with: QCSCRATCH=/src/jdavis/qchem.scratch 
calling putenv with: QCTHREADS=1 
Creating input file /src/jdavis/qchem.scratch/qchem2009/Frg2.input
using default PutDataFrgm: nothing
calling putenv with: QCSCRATCH=/src/jdavis/qchem.scratch/qchem2009/ 
Spawning Job For Fragment 1
Done Job For Fragment 1
calling putenv with: QCSCRATCH=/src/jdavis/qchem.scratch 
calling putenv with: QCTHREADS=1 
 Time for running child jobs:  CPU 1.76 s  wall 54.29 s
 ============= Method Specific SAD Guess Constructed =============
 Guess from on-the-fly superposition of atomic densities
 Warning: Energy on first SCF cycle will be non-variational
 A restricted Hartree-Fock SCF calculation will be
 performed using Pulay DIIS extrapolation
 SCF converges when DIIS error is below 1.0E-08
 using 10 threads for integral computing
 -------------------------------------------------------
 OpenMP Integral computing Module                
 Release: version 1.0, May 2013, Q-Chem Inc. Pittsburgh 
 -------------------------------------------------------
 ---------------------------------------
  Cycle       Energy         DIIS Error
 ---------------------------------------
    1     -78.8384322666      7.39E-02
    2     -78.4381038570      7.16E-03
    3     -78.4958106690      2.36E-03
    4     -78.4999470791      8.93E-04
    5     -78.5006945370      2.37E-04
    6     -78.5007721169      7.25E-05
    7     -78.5007822077      3.49E-05
    8     -78.5007844211      7.41E-06
    9     -78.5007845720      1.55E-06
   10     -78.5007845808      2.66E-07
   11     -78.5007845810      4.49E-08
   12     -78.5007845810      7.79E-09 Convergence criterion met
 ---------------------------------------
 SCF time:  CPU 11.96 s  wall 1.20 s
 SCF   energy in the final basis set = -78.50078458
 Total energy in the final basis set = -78.50078458
================================================================================
|                                                                              |
|                                 A D C  M A N                                 |
|                                                                              |
 ------------------------------------------------------------------------------ 
|                                                                              |
| Components:                                                                  |
|                                                                              |
| - libvmm - 1.3-trunk                                                         |
|   Authors:                                                                   |
|   Evgeny Epifanovsky, Ilya Kaliman                                           |
|                                                                              |
| - libtensor - 2.5-trunk                                                      |
|   Authors:                                                                   |
|   Evgeny Epifanovsky, Michael Wormit, Dmitry Zuev, Sam Manzer,               |
|   Ilya Kaliman                                                               |
|                                                                              |
| - libwfa - 1.1-trunk                                                         |
|   Authors:                                                                   |
|   Felix Plasser, Stefanie Mewes (Baeppler), Benjamin Thomitzni,              |
|   Michael Wormit, Feng Chen, Anna I. Krylov, Pavel Pokhilko                  |
|                                                                              |
| - libadc - 1.1-trunk                                                         |
|   Authors:                                                                   |
|   Michael Wormit, Adrian L. Dempwolff, Philipp H. P. Harbach,                |
|   Caroline Krauter, Dirk Rehn, Matthias Schneider, Jan Wenzel                |
|                                                                              |
| - adcman - 2.6-trunk                                                         |
|   Authors:                                                                   |
|   Michael Wormit, Adrian L. Dempwolff, Philipp H. P. Harbach,                |
|   Caroline Krauter, Daniel Lefrancois, Jan-Michael Mewes, Dirk Rehn,         |
|   Matthias Schneider, Jan Wenzel, Andreas Dreuw                              |
|                                                                              |
| Authors of earlier versions of ADCMAN:                                       |
| Andreas Dreuw, Jan Hendrik Starcke, Dirk Rehn, Michael Wormit                |
|                                                                              |
================================================================================

 
 Alpha MOs, Restricted
 -- Occupied --                  
-11.076 -11.072  -0.883  -0.621  -0.502  -0.406  -0.354  -0.220
  1 A1    2 A1    3 A1    4 A1    1 B1    5 A1    2 B1    1 B2                 
 -0.036
  6 A1                                                                         
 -- Virtual --                   
  0.129   0.131   0.136   0.169   0.175   0.198   0.225   0.274
  7 A1    3 B1    2 B2    4 B1    3 B2    8 A1    9 A1    4 B2                 
  0.287   0.304   0.324   0.327   0.390   0.412   0.421   0.441
  5 B1   10 A1    6 B1    5 B2   11 A1   12 A1    6 B2   13 A1                 
  0.487   0.505   0.623   0.693   0.865   0.935   1.014   1.032
  7 B1   14 A1    8 B1   15 A1   16 A1    9 B1   17 A1    7 B2                 
  1.049   1.090   1.096   1.141   1.179   1.200   1.209   1.272
 10 B1   18 A1    8 B2   19 A1   20 A1   21 A1   11 B1    1 A2                 
  1.444   1.445   1.502   1.510   1.753   1.761   1.836   1.878
  9 B2    2 A2   12 B1   22 A1   23 A1   13 B1   14 B1   10 B2                 
  1.952   2.009   2.035   2.101   2.157   2.176   2.206   2.285
 15 B1   11 B2   24 A1   12 B2   25 A1    3 A2   16 B1   26 A1                 
  2.334   2.476   2.572   2.602   2.715   2.734   2.962   2.967
 13 B2   27 A1    4 A2   28 A1   17 B1   29 A1   30 A1   18 B1                 
  3.425   3.505
 31 A1   19 B1                                                                 
 
 Beta MOs, Restricted
 -- Occupied --                  
-11.076 -11.072  -0.883  -0.621  -0.502  -0.406  -0.354  -0.220
  1 A1    2 A1    3 A1    4 A1    1 B1    5 A1    2 B1    1 B2                 
 -0.036
  6 A1                                                                         
 -- Virtual --                   
  0.129   0.131   0.136   0.169   0.175   0.198   0.225   0.274
  7 A1    3 B1    2 B2    4 B1    3 B2    8 A1    9 A1    4 B2                 
  0.287   0.304   0.324   0.327   0.390   0.412   0.421   0.441
  5 B1   10 A1    6 B1    5 B2   11 A1   12 A1    6 B2   13 A1                 
  0.487   0.505   0.623   0.693   0.865   0.935   1.014   1.032
  7 B1   14 A1    8 B1   15 A1   16 A1    9 B1   17 A1    7 B2                 
  1.049   1.090   1.096   1.141   1.179   1.200   1.209   1.272
 10 B1   18 A1    8 B2   19 A1   20 A1   21 A1   11 B1    1 A2                 
  1.444   1.445   1.502   1.510   1.753   1.761   1.836   1.878
  9 B2    2 A2   12 B1   22 A1   23 A1   13 B1   14 B1   10 B2                 
  1.952   2.009   2.035   2.101   2.157   2.176   2.206   2.285
 15 B1   11 B2   24 A1   12 B2   25 A1    3 A2   16 B1   26 A1                 
  2.334   2.476   2.572   2.602   2.715   2.734   2.962   2.967
 13 B2   27 A1    4 A2   28 A1   17 B1   29 A1   30 A1   18 B1                 
  3.425   3.505
 31 A1   19 B1                                                                 

--------------------------------------------------------------------------------
                                   HF Summary                                   
--------------------------------------------------------------------------------
  Energy:                                                  -78.5007845810 a.u.
  Dip. moment [a.u.]:                  [   0.000000,    0.000000,    4.886781]
  Total dipole [Debye]:                                              12.420960
  <r^2> [a.u.]:                        [  28.160492,   18.108878,  115.543857]
  Total <r^2> [a.u.]:                                               161.813227
--------------------------------------------------------------------------------

--------------------------------------------------------------------------------
                                 MP(2) Summary                                  
--------------------------------------------------------------------------------
  MP energy contribution:                                   -0.3066269228 a.u.
  Total energy:                                            -78.8074115038 a.u.
  Dip. moment [a.u.]:                  [   0.000000,   -0.000000,    4.884375]
  Total dipole [Debye]:                                              12.414846
  <r^2> [a.u.]:                        [  28.639797,   18.376756,  115.789719]
  Total <r^2> [a.u.]:                                               162.806272

  Density matrix analysis:
  ------------------------
  NOs
    Occupation of frontier NOs:
       0.0436   1.9374
    Number of electrons: 18.000000
    Number of unpaired electrons: n_u =  0.47535, n_u,nl =  0.05238
    NO participation ratio (PR_NO): 16.578083
  
  
  Mulliken Population Analysis
  Atom      Charge (e)              h+              e-           Del q
  --------------------------------------------------------------------
   1 C       -0.417382        0.153271       -0.077979        0.075292
   2 C       -0.602080        0.039526       -0.172081       -0.132554
   3 H        0.038090        0.018633       -0.012140        0.006493
   4 H        0.137500        0.016759       -0.012186        0.004574
   5 H        0.038090        0.018633       -0.012140        0.006493
   6 H        0.137500        0.016759       -0.012186        0.004574
   7 H       -0.331718        0.050932       -0.015804        0.035128
  --------------------------------------------------------------------
  Sum:       -1.000000        0.314514       -0.314514        0.000000
  
  Multipole moment analysis of the density matrix
    Molecular charge:                      -1.000000
    Number of electrons:                   18.000000
      Center of electronic charge [Ang]: [ -0.000000,   0.000000,  -0.143594]
    Total nuclear charge:                  17.000000
      Center of nuclear charge [Ang]:    [ -0.000000,   0.000000,  -0.000000]
    Dipole moment [D]:                     12.414843
      Cartesian components [D]:          [  0.000000,  -0.000000,  12.414843]
    RMS size of the density [Ang]:         1.584986
      Cartesian components [Ang]:        [  0.667498,   0.534687,   1.334443]
  
  Exciton analysis of the difference density matrix
    <r_h> [Ang]:                  [ -0.000000,  -0.000000,  -0.270945]
    <r_e> [Ang]:                  [ -0.000000,   0.000000,  -0.266897]
    |<r_e - r_h>| [Ang]:            0.004047
    Hole size [Ang]:                2.033932
      Cartesian components [Ang]: [  0.827646,   0.834269,   1.660083]
    Electron size [Ang]:            2.241253
      Cartesian components [Ang]: [  1.054395,   0.966701,   1.725386]
--------------------------------------------------------------------------------
  Starting Davidson for singlet states of irrep B2 ... 
--------------------------------------------------------------------------------
   It NVec Conv  Avg. Norm  Max. Norm  Conv. states           Remark
--------------------------------------------------------------------------------
       100    0  1.016e-01  4.535e-01  0.1093 n n n n n n n n Guess.
    1  110    0  1.223e-02  1.067e-01  0.0591 n n n n n n n n 
    2  120    0  1.147e-02  1.145e-01  0.0589 n n n n n n n n 
    3  130    0  2.360e-03  2.356e-02  0.0589 n n n n n n n n 
    4  140    7  3.105e-04  3.098e-03  0.0589 y y y y y n y y 
    5  150    8  1.799e-05  1.792e-04  0.0589 y y y y y y y y 
    6  160   10  8.547e-07  8.513e-06  0.0589 y y y y y y y y Converged.
--------------------------------------------------------------------------------
  Davidson Summary: 
 ------------------------------------------------------------
  State  0: excitation energy =   0.0589 a.u.   (converged)
  State  1: excitation energy =   0.0721 a.u.   (converged)
  State  2: excitation energy =   0.1162 a.u.   (converged)
  State  3: excitation energy =   0.2009 a.u.   (converged)
  State  4: excitation energy =   0.2255 a.u.   (converged)
  State  5: excitation energy =   0.2569 a.u.   (converged)
  State  6: excitation energy =   0.2628 a.u.   (converged)
  State  7: excitation energy =   0.3087 a.u.   (converged)
  State  8: excitation energy =   0.3385 a.u.   (converged)
  State  9: excitation energy =   0.3458 a.u.   (converged)
 ------------------------------------------------------------


--------------------------------------------------------------------------------
                   State-averaged natural transition orbitals
--------------------------------------------------------------------------------
--------------------------------------------------------------------------------

--------------------------------------------------------------------------------
                             Excited State Summary
--------------------------------------------------------------------------------
--------------------------------------------------------------------------------

  Excited state 1 (singlet, B2)                                    [converged]
  ----------------------------------------------------------------------------
  Term symbol:  1 (1) B2                                    R^2 =  5.68624e-10

  Total energy:                                            -78.7485260167 a.u.
  Excitation energy:                                               1.602356 eV

  Osc. strength:                                                      0.001756
  Trans. dip. moment [a.u.]:           [  -0.000000,   -0.211483,   -0.000000]
  <i|r^2|0> [a.u.]:                    [   0.000000,    0.000000,    0.000000]

  Dip. moment [a.u.]:                  [  -0.000000,    0.000000,   -1.412478]
  Total dipole [Debye]:                                               3.590161
  <r^2> [a.u.]:                        [  40.618089,   63.873066,   99.837885]
  Total <r^2> [a.u.]:                                               204.329041

  V1^2 = 0.9177, V2^2 = 0.0823

  Important amplitudes:
      occ i      occ j       vir a       vir b          v   
    ---------------------------------------------------------
     6 (A1) A               2 (B2) A                  0.6021
     6 (A1) A               3 (B2) A                  0.3021
    ---------------------------------------------------------

  Density matrix analysis:
  ------------------------
  NOs
    Occupation of frontier NOs:
       0.9881   0.9981
    Number of electrons: 18.000000
    Number of unpaired electrons: n_u =  2.41781, n_u,nl =  2.04782
    NO participation ratio (PR_NO):  2.944946
  
  
  Mulliken Population Analysis
  Atom      Charge (e)              h+              e-           Del q
  --------------------------------------------------------------------
   1 C       -1.078902        0.184332       -0.845852       -0.661520
   2 C       -0.316429        0.646824       -0.361172        0.285652
   3 H        0.059832        0.023872       -0.002130        0.021742
   4 H        0.097493       -0.007956       -0.032051       -0.040007
   5 H        0.059832        0.023872       -0.002130        0.021742
   6 H        0.097493       -0.007956       -0.032051       -0.040007
   7 H        0.080681        0.470427       -0.058029        0.412398
  --------------------------------------------------------------------
  Sum:       -1.000000        1.333416       -1.333416        0.000000
  
  Multipole moment analysis of the density matrix
    Molecular charge:                      -1.000000
    Number of electrons:                   18.000000
      Center of electronic charge [Ang]: [  0.000000,  -0.000000,   0.041525]
    Total nuclear charge:                  17.000000
      Center of nuclear charge [Ang]:    [ -0.000000,   0.000000,  -0.000000]
    Dipole moment [D]:                     3.590160
      Cartesian components [D]:          [ -0.000000,   0.000000,  -3.590160]
    RMS size of the density [Ang]:         1.782428
      Cartesian components [Ang]:        [  0.794922,   0.996836,   1.245579]
  
  Exciton analysis of the difference density matrix
    <r_h> [Ang]:                  [ -0.000000,   0.000000,  -2.262804]
    <r_e> [Ang]:                  [ -0.000000,  -0.000000,   0.236155]
    |<r_e - r_h>| [Ang]:            2.498959
    Hole size [Ang]:                2.456514
      Cartesian components [Ang]: [  1.167578,   1.167802,   1.818643]
    Electron size [Ang]:            4.451866
      Cartesian components [Ang]: [  1.969462,   3.304296,   2.240972]

  Transition density matrix analysis:
  -----------------------------------
  
  CT numbers (Mulliken)
    omega =     0.9037
    <Phe> =    -0.0014
  
  Exciton analysis of the transition density matrix
    Trans. dipole moment [D]:             0.268768
      Cartesian components [D]:         [ -0.000000,  -0.268768,  -0.000000]
    <r_h> [Ang]:                        [ -0.000000,   0.000000,  -2.852033]
    <r_e> [Ang]:                        [ -0.000000,  -0.000000,   0.698255]
    |<r_e - r_h>| [Ang]:                  3.550289
    Hole size [Ang]:                      1.709676
      Cartesian components [Ang]:       [  0.956763,   0.959255,   1.042798]
    Electron size [Ang]:                  4.848606
      Cartesian components [Ang]:       [  2.167513,   3.754245,   2.171752]
    RMS electron-hole separation [Ang]:   6.246514
      Cartesian components [Ang]:       [  2.369282,   3.874745,   4.288566]
    Covariance(r_h, r_e) [Ang^2]:         0.008790
    Correlation coefficient:              0.001060
    Center-of-mass size [Ang]:            2.571456
      Cartesian components [Ang]:       [  1.184643,   1.937486,   1.206299]

  Decomposition into state-averaged NTOs
    H- 0 -> L+ 1: -0.6088 ( 74.1%)
    H- 0 -> L+ 4:  0.2089 (  8.7%)
    H- 0 -> L+ 7:  0.1233 (  3.0%)
    H- 0 -> L+ 8:  0.1105 (  2.4%)
    H- 0 -> L+ 0:  0.0996 (  2.0%)
                   omega =  90.4%
  ----------------------------------------------------------------------------


  Excited state 2 (singlet, B2)                                    [converged]
  ----------------------------------------------------------------------------
  Term symbol:  2 (1) B2                                    R^2 =  6.02408e-10

  Total energy:                                            -78.7353344229 a.u.
  Excitation energy:                                               1.961317 eV

  Osc. strength:                                                      0.128364
  Trans. dip. moment [a.u.]:           [  -0.000000,   -1.634438,    0.000000]
  <i|r^2|0> [a.u.]:                    [   0.000000,    0.000000,    0.000000]

  Dip. moment [a.u.]:                  [  -0.000000,    0.000000,    0.563163]
  Total dipole [Debye]:                                               1.431417
  <r^2> [a.u.]:                        [  37.134407,   53.225087,  120.449909]
  Total <r^2> [a.u.]:                                               210.809403

  V1^2 = 0.9194, V2^2 = 0.0806

  Important amplitudes:
      occ i      occ j       vir a       vir b          v   
    ---------------------------------------------------------
     6 (A1) A               3 (B2) A                  0.5884
     6 (A1) A               2 (B2) A                 -0.2860
    ---------------------------------------------------------

  Density matrix analysis:
  ------------------------
  NOs
    Occupation of frontier NOs:
       0.9883   0.9964
    Number of electrons: 18.000000
    Number of unpaired electrons: n_u =  2.41742, n_u,nl =  2.04730
    NO participation ratio (PR_NO):  2.948740
  
  
  Mulliken Population Analysis
  Atom      Charge (e)              h+              e-           Del q
  --------------------------------------------------------------------
   1 C       -0.388448        0.154281       -0.125347        0.028935
   2 C       -1.006617        0.644559       -1.049096       -0.404537
   3 H        0.056739        0.020013       -0.001364        0.018648
   4 H        0.100684       -0.008517       -0.028298       -0.036815
   5 H        0.056739        0.020013       -0.001364        0.018648
   6 H        0.100684       -0.008517       -0.028298       -0.036815
   7 H        0.080219        0.469021       -0.057084        0.411937
  --------------------------------------------------------------------
  Sum:       -1.000000        1.290852       -1.290852        0.000000
  
  Multipole moment analysis of the density matrix
    Molecular charge:                      -1.000000
    Number of electrons:                   18.000000
      Center of electronic charge [Ang]: [  0.000000,  -0.000000,  -0.016556]
    Total nuclear charge:                  17.000000
      Center of nuclear charge [Ang]:    [ -0.000000,   0.000000,  -0.000000]
    Dipole moment [D]:                     1.431416
      Cartesian components [D]:          [ -0.000000,   0.000000,   1.431416]
    RMS size of the density [Ang]:         1.810889
      Cartesian components [Ang]:        [  0.760069,   0.909962,   1.368789]
  
  Exciton analysis of the difference density matrix
    <r_h> [Ang]:                  [ -0.000000,   0.000000,  -2.371912]
    <r_e> [Ang]:                  [ -0.000000,  -0.000000,  -0.600457]
    |<r_e - r_h>| [Ang]:            1.771455
    Hole size [Ang]:                2.411546
      Cartesian components [Ang]: [  1.173178,   1.181534,   1.744473]
    Electron size [Ang]:            4.636209
      Cartesian components [Ang]: [  1.794187,   2.992620,   3.052794]

  Transition density matrix analysis:
  -----------------------------------
  
  CT numbers (Mulliken)
    omega =     0.9046
    <Phe> =    -0.0119
  
  Exciton analysis of the transition density matrix
    Trans. dipole moment [D]:             2.077163
      Cartesian components [D]:         [ -0.000000,  -2.077163,   0.000000]
    <r_h> [Ang]:                        [ -0.000000,   0.000000,  -2.852038]
    <r_e> [Ang]:                        [ -0.000000,  -0.000000,  -0.392589]
    |<r_e - r_h>| [Ang]:                  2.459448
    Hole size [Ang]:                      1.707599
      Cartesian components [Ang]:       [  0.955967,   0.958760,   1.040577]
    Electron size [Ang]:                  5.058916
      Cartesian components [Ang]:       [  1.922743,   3.329460,   3.287916]
    RMS electron-hole separation [Ang]:   5.876544
      Cartesian components [Ang]:       [  2.147262,   3.464684,   4.233085]
    Covariance(r_h, r_e) [Ang^2]:         0.011820
    Correlation coefficient:              0.001368
    Center-of-mass size [Ang]:            2.670776
      Cartesian components [Ang]:       [  1.073649,   1.732412,   1.725997]

  Decomposition into state-averaged NTOs
    H- 0 -> L+ 4:  0.5203 ( 54.1%)
    H- 0 -> L+ 0:  0.2761 ( 15.2%)
    H- 0 -> L+ 7: -0.2468 ( 12.2%)
    H- 0 -> L+ 1:  0.1860 (  6.9%)
    H- 0 -> L+ 8:  0.0966 (  1.9%)
                   omega =  90.5%
  ----------------------------------------------------------------------------


  Excited state 3 (singlet, B2)                                    [converged]
  ----------------------------------------------------------------------------
  Term symbol:  3 (1) B2                                    R^2 =  2.75428e-09

  Total energy:                                            -78.6911915096 a.u.
  Excitation energy:                                               3.162507 eV

  Osc. strength:                                                      0.002527
  Trans. dip. moment [a.u.]:           [  -0.000000,   -0.180612,    0.000000]
  <i|r^2|0> [a.u.]:                    [  -0.000000,   -0.000000,    0.000000]

  Dip. moment [a.u.]:                  [  -0.000000,   -0.000000,   -0.358767]
  Total dipole [Debye]:                                               0.911894
  <r^2> [a.u.]:                        [  29.936288,   28.661018,   98.669868]
  Total <r^2> [a.u.]:                                               157.267174

  V1^2 = 0.9258, V2^2 = 0.0742

  Important amplitudes:
      occ i      occ j       vir a       vir b          v   
    ---------------------------------------------------------
     6 (A1) A               4 (B2) A                  0.6009
     6 (A1) A               5 (B2) A                 -0.1871
    ---------------------------------------------------------

  Density matrix analysis:
  ------------------------
  NOs
    Occupation of frontier NOs:
       0.9891   0.9901
    Number of electrons: 18.000000
    Number of unpaired electrons: n_u =  2.41102, n_u,nl =  2.04217
    NO participation ratio (PR_NO):  2.951247
  
  
  Mulliken Population Analysis
  Atom      Charge (e)              h+              e-           Del q
  --------------------------------------------------------------------
   1 C       -0.653412        0.203738       -0.439767       -0.236029
   2 C       -0.620543        0.637147       -0.655610       -0.018463
   3 H        0.015562        0.010759       -0.033287       -0.022528
   4 H        0.064178       -0.005418       -0.067903       -0.073322
   5 H        0.015562        0.010759       -0.033287       -0.022528
   6 H        0.064178       -0.005418       -0.067903       -0.073322
   7 H        0.114475        0.475939       -0.029747        0.446193
  --------------------------------------------------------------------
  Sum:       -1.000000        1.327505       -1.327505        0.000000
  
  Multipole moment analysis of the density matrix
    Molecular charge:                      -1.000000
    Number of electrons:                   18.000000
      Center of electronic charge [Ang]: [  0.000000,   0.000000,   0.010547]
    Total nuclear charge:                  17.000000
      Center of nuclear charge [Ang]:    [ -0.000000,   0.000000,  -0.000000]
    Dipole moment [D]:                     0.911894
      Cartesian components [D]:          [ -0.000000,  -0.000000,  -0.911894]
    RMS size of the density [Ang]:         1.564134
      Cartesian components [Ang]:        [  0.682439,   0.667745,   1.238915]
  
  Exciton analysis of the difference density matrix
    <r_h> [Ang]:                  [ -0.000000,   0.000000,  -2.199830]
    <r_e> [Ang]:                  [ -0.000000,   0.000000,  -0.109780]
    |<r_e - r_h>| [Ang]:            2.090050
    Hole size [Ang]:                2.292132
      Cartesian components [Ang]: [  1.075598,   1.086113,   1.708016]
    Electron size [Ang]:            2.985403
      Cartesian components [Ang]: [  1.195992,   1.830038,   2.033026]

  Transition density matrix analysis:
  -----------------------------------
  
  CT numbers (Mulliken)
    omega =     0.8997
    <Phe> =    -0.0049
  
  Exciton analysis of the transition density matrix
    Trans. dipole moment [D]:             0.229534
      Cartesian components [D]:         [ -0.000000,  -0.229534,   0.000000]
    <r_h> [Ang]:                        [ -0.000000,   0.000000,  -2.813688]
    <r_e> [Ang]:                        [ -0.000000,   0.000000,   0.108925]
    |<r_e - r_h>| [Ang]:                  2.922612
    Hole size [Ang]:                      1.719331
      Cartesian components [Ang]:       [  0.943904,   0.945100,   1.082557]
    Electron size [Ang]:                  3.095941
      Cartesian components [Ang]:       [  1.159784,   1.994285,   2.064601]
    RMS electron-hole separation [Ang]:   4.590836
      Cartesian components [Ang]:       [  1.495203,   2.205658,   3.738344]
    Covariance(r_h, r_e) [Ang^2]:         0.003421
    Correlation coefficient:              0.000643
    Center-of-mass size [Ang]:            1.771143
      Cartesian components [Ang]:       [  0.747743,   1.104066,   1.165704]

  Decomposition into state-averaged NTOs
    H- 0 -> L+ 7: -0.4541 ( 41.2%)
    H- 0 -> L+ 0: -0.3307 ( 21.9%)
    H- 0 -> L+ 8: -0.3100 ( 19.2%)
    H- 0 -> L+ 1: -0.1762 (  6.2%)
    H- 0 -> L+ 4:  0.0798 (  1.3%)
                   omega =  90.0%
  ----------------------------------------------------------------------------


  Excited state 4 (singlet, B2)                                    [converged]
  ----------------------------------------------------------------------------
  Term symbol:  4 (1) B2                                    R^2 =  3.27297e-09

  Total energy:                                            -78.6065214011 a.u.
  Excitation energy:                                               5.466498 eV

  Osc. strength:                                                      0.007258
  Trans. dip. moment [a.u.]:           [  -0.000000,    0.232791,   -0.000000]
  <i|r^2|0> [a.u.]:                    [   0.000000,   -0.000000,   -0.000000]

  Dip. moment [a.u.]:                  [  -0.000000,   -0.000000,   -0.399550]
  Total dipole [Debye]:                                               1.015554
  <r^2> [a.u.]:                        [  33.828299,   42.468696,   92.097761]
  Total <r^2> [a.u.]:                                               168.394756

  V1^2 = 0.9251, V2^2 = 0.0749

  Important amplitudes:
      occ i      occ j       vir a       vir b          v   
    ---------------------------------------------------------
     6 (A1) A               5 (B2) A                 -0.6480
     6 (A1) A               4 (B2) A                 -0.1675
    ---------------------------------------------------------

  Density matrix analysis:
  ------------------------
  NOs
    Occupation of frontier NOs:
       0.9883   0.9899
    Number of electrons: 18.000000
    Number of unpaired electrons: n_u =  2.42744, n_u,nl =  2.05123
    NO participation ratio (PR_NO):  2.990913
  
  
  Mulliken Population Analysis
  Atom      Charge (e)              h+              e-           Del q
  --------------------------------------------------------------------
   1 C       -0.703590        0.181921       -0.468129       -0.286207
   2 C       -0.633443        0.638408       -0.669772       -0.031363
   3 H        0.038559        0.006518       -0.006050        0.000468
   4 H        0.083006       -0.010108       -0.044386       -0.054494
   5 H        0.038559        0.006518       -0.006050        0.000468
   6 H        0.083006       -0.010108       -0.044386       -0.054494
   7 H        0.093904        0.469864       -0.044242        0.425622
  --------------------------------------------------------------------
  Sum:       -1.000000        1.283014       -1.283014        0.000000
  
  Multipole moment analysis of the density matrix
    Molecular charge:                      -1.000000
    Number of electrons:                   18.000000
      Center of electronic charge [Ang]: [  0.000000,   0.000000,   0.011746]
    Total nuclear charge:                  17.000000
      Center of nuclear charge [Ang]:    [ -0.000000,   0.000000,  -0.000000]
    Dipole moment [D]:                     1.015554
      Cartesian components [D]:          [ -0.000000,  -0.000000,  -1.015554]
    RMS size of the density [Ang]:         1.618519
      Cartesian components [Ang]:        [  0.725446,   0.812829,   1.196929]
  
  Exciton analysis of the difference density matrix
    <r_h> [Ang]:                  [ -0.000000,   0.000000,  -2.332526]
    <r_e> [Ang]:                  [ -0.000000,   0.000000,  -0.153178]
    |<r_e - r_h>| [Ang]:            2.179348
    Hole size [Ang]:                2.314962
      Cartesian components [Ang]: [  1.121646,   1.128705,   1.681364]
    Electron size [Ang]:            3.463524
      Cartesian components [Ang]: [  1.546132,   2.555825,   1.753063]

  Transition density matrix analysis:
  -----------------------------------
  
  CT numbers (Mulliken)
    omega =     0.9091
    <Phe> =    -0.0021
  
  Exciton analysis of the transition density matrix
    Trans. dipole moment [D]:             0.295848
      Cartesian components [D]:         [ -0.000000,   0.295848,  -0.000000]
    <r_h> [Ang]:                        [ -0.000000,   0.000000,  -2.837207]
    <r_e> [Ang]:                        [ -0.000000,   0.000000,   0.164720]
    |<r_e - r_h>| [Ang]:                  3.001927
    Hole size [Ang]:                      1.712197
      Cartesian components [Ang]:       [  0.951085,   0.953181,   1.057593]
    Electron size [Ang]:                  3.664826
      Cartesian components [Ang]:       [  1.635797,   2.831993,   1.653764]
    RMS electron-hole separation [Ang]:   5.035935
      Cartesian components [Ang]:       [  1.892169,   2.988049,   3.584954]
    Covariance(r_h, r_e) [Ang^2]:         0.006746
    Correlation coefficient:              0.001075
    Center-of-mass size [Ang]:            2.023367
      Cartesian components [Ang]:       [  0.946108,   1.494074,   0.983177]

  Decomposition into state-averaged NTOs
    H- 0 -> L+ 7:  0.3907 ( 30.5%)
    H- 0 -> L+ 4:  0.3631 ( 26.4%)
    H- 0 -> L+ 0: -0.3542 ( 25.1%)
    H- 0 -> L+ 8: -0.1746 (  6.1%)
    H- 0 -> L+ 1:  0.1169 (  2.7%)
                   omega =  90.9%
  ----------------------------------------------------------------------------


  Excited state 5 (singlet, B2)                                    [converged]
  ----------------------------------------------------------------------------
  Term symbol:  5 (1) B2                                    R^2 =  5.39166e-09

  Total energy:                                            -78.5819261291 a.u.
  Excitation energy:                                               6.135769 eV

  Osc. strength:                                                      0.022597
  Trans. dip. moment [a.u.]:           [  -0.000000,   -0.387711,   -0.000000]
  <i|r^2|0> [a.u.]:                    [   0.000000,    0.000000,   -0.000000]

  Dip. moment [a.u.]:                  [   0.000000,   -0.000000,   -0.629336]
  Total dipole [Debye]:                                               1.599614
  <r^2> [a.u.]:                        [  38.671529,   27.812635,  160.416649]
  Total <r^2> [a.u.]:                                               226.900814

  V1^2 = 0.9419, V2^2 = 0.0581

  Important amplitudes:
      occ i      occ j       vir a       vir b          v   
    ---------------------------------------------------------
     1 (B2) A               7 (A1) A                  0.6167
     1 (B2) A               9 (A1) A                  0.2699
    ---------------------------------------------------------

  Density matrix analysis:
  ------------------------
  NOs
    Occupation of frontier NOs:
       0.9843   0.9978
    Number of electrons: 18.000000
    Number of unpaired electrons: n_u =  2.36313, n_u,nl =  2.03135
    NO participation ratio (PR_NO):  2.831142
  
  
  Mulliken Population Analysis
  Atom      Charge (e)              h+              e-           Del q
  --------------------------------------------------------------------
   1 C       -2.086429        0.534641       -2.203688       -1.669047
   2 C        0.671922        0.577522        0.696479        1.274002
   3 H        0.168561        0.115836        0.014635        0.130470
   4 H        0.212510        0.075881       -0.000871        0.075010
   5 H        0.168561        0.115836        0.014635        0.130470
   6 H        0.212510        0.075881       -0.000871        0.075010
   7 H       -0.347633        0.019918       -0.035834       -0.015915
  --------------------------------------------------------------------
  Sum:       -1.000000        1.515515       -1.515515       -0.000000
  
  Multipole moment analysis of the density matrix
    Molecular charge:                      -1.000000
    Number of electrons:                   18.000000
      Center of electronic charge [Ang]: [ -0.000000,   0.000000,   0.018502]
    Total nuclear charge:                  17.000000
      Center of nuclear charge [Ang]:    [ -0.000000,   0.000000,  -0.000000]
    Dipole moment [D]:                     1.599613
      Cartesian components [D]:          [  0.000000,  -0.000000,  -1.599613]
    RMS size of the density [Ang]:         1.878719
      Cartesian components [Ang]:        [  0.775641,   0.657788,   1.579646]
  
  Exciton analysis of the difference density matrix
    <r_h> [Ang]:                  [ -0.000000,  -0.000000,   0.153234]
    <r_e> [Ang]:                  [ -0.000000,   0.000000,   2.078474]
    |<r_e - r_h>| [Ang]:            1.925241
    Hole size [Ang]:                1.929896
      Cartesian components [Ang]: [  0.895994,   0.962127,   1.412800]
    Electron size [Ang]:            3.357225
      Cartesian components [Ang]: [  1.629851,   1.633768,   2.438309]

  Transition density matrix analysis:
  -----------------------------------
  
  CT numbers (Mulliken)
    omega =     0.9116
    <Phe> =    -0.0029
  
  Exciton analysis of the transition density matrix
    Trans. dipole moment [D]:             0.492731
      Cartesian components [D]:         [ -0.000000,  -0.492731,  -0.000000]
    <r_h> [Ang]:                        [ -0.000000,  -0.000000,   0.271872]
    <r_e> [Ang]:                        [ -0.000000,   0.000000,   3.189798]
    |<r_e - r_h>| [Ang]:                  2.917926
    Hole size [Ang]:                      1.281993
      Cartesian components [Ang]:       [  0.522693,   0.885389,   0.765757]
    Electron size [Ang]:                  3.414286
      Cartesian components [Ang]:       [  1.916589,   1.942893,   2.051634]
    RMS electron-hole separation [Ang]:   4.666739
      Cartesian components [Ang]:       [  1.986281,   2.129933,   3.646441]
    Covariance(r_h, r_e) [Ang^2]:         0.018346
    Correlation coefficient:              0.004191
    Center-of-mass size [Ang]:            1.826030
      Cartesian components [Ang]:       [  0.993445,   1.070150,   1.096464]

  Decomposition into state-averaged NTOs
    H- 1 -> L+ 3: -0.5520 ( 60.9%)
    H- 1 -> L+ 5:  0.3136 ( 19.7%)
    H- 1 -> L+ 2: -0.1659 (  5.5%)
    H- 1 -> L+ 6: -0.1572 (  4.9%)
                   omega =  91.2%
  ----------------------------------------------------------------------------


  Excited state 6 (singlet, B2)                                    [converged]
  ----------------------------------------------------------------------------
  Term symbol:  6 (1) B2                                    R^2 =  1.72979e-08

  Total energy:                                            -78.5504976122 a.u.
  Excitation energy:                                               6.990983 eV

  Osc. strength:                                                      0.008656
  Trans. dip. moment [a.u.]:           [  -0.000000,   -0.224803,   -0.000000]
  <i|r^2|0> [a.u.]:                    [  -0.000000,   -0.000000,    0.000000]

  Dip. moment [a.u.]:                  [  -0.000000,    0.000000,    0.133764]
  Total dipole [Debye]:                                               0.339995
  <r^2> [a.u.]:                        [  32.245517,   32.487997,  106.623231]
  Total <r^2> [a.u.]:                                               171.356746

  V1^2 = 0.9219, V2^2 = 0.0781

  Important amplitudes:
      occ i      occ j       vir a       vir b          v   
    ---------------------------------------------------------
     6 (A1) A               6 (B2) A                  0.5929
     6 (A1) A               4 (B2) A                 -0.1944
    ---------------------------------------------------------

  Density matrix analysis:
  ------------------------
  NOs
    Occupation of frontier NOs:
       0.8424   1.1159
    Number of electrons: 18.000000
    Number of unpaired electrons: n_u =  2.48528, n_u,nl =  2.16459
    NO participation ratio (PR_NO):  3.953939
  
  
  Mulliken Population Analysis
  Atom      Charge (e)              h+              e-           Del q
  --------------------------------------------------------------------
   1 C       -0.582496        0.263273       -0.428387       -0.165114
   2 C       -0.741200        0.519195       -0.658315       -0.139120
   3 H        0.044745        0.009317       -0.002663        0.006654
   4 H        0.096681       -0.009108       -0.031711       -0.040819
   5 H        0.044745        0.009317       -0.002663        0.006654
   6 H        0.096681       -0.009108       -0.031711       -0.040819
   7 H        0.040845        0.406812       -0.034249        0.372563
  --------------------------------------------------------------------
  Sum:       -1.000000        1.189698       -1.189698        0.000000
  
  Multipole moment analysis of the density matrix
    Molecular charge:                      -1.000000
    Number of electrons:                   18.000000
      Center of electronic charge [Ang]: [  0.000000,  -0.000000,  -0.003933]
    Total nuclear charge:                  17.000000
      Center of nuclear charge [Ang]:    [ -0.000000,   0.000000,  -0.000000]
    Dipole moment [D]:                     0.339995
      Cartesian components [D]:          [ -0.000000,   0.000000,   0.339995]
    RMS size of the density [Ang]:         1.632729
      Cartesian components [Ang]:        [  0.708271,   0.710929,   1.287920]
  
  Exciton analysis of the difference density matrix
    <r_h> [Ang]:                  [ -0.000000,   0.000000,  -2.086733]
    <r_e> [Ang]:                  [ -0.000000,  -0.000000,   0.026336]
    |<r_e - r_h>| [Ang]:            2.113069
    Hole size [Ang]:                2.381655
      Cartesian components [Ang]: [  1.070595,   1.097846,   1.822318]
    Electron size [Ang]:            3.469673
      Cartesian components [Ang]: [  1.412402,   2.127613,   2.348833]

  Transition density matrix analysis:
  -----------------------------------
  
  CT numbers (Mulliken)
    omega =     0.9015
    <Phe> =    -0.0035
  
  Exciton analysis of the transition density matrix
    Trans. dipole moment [D]:             0.285696
      Cartesian components [D]:         [ -0.000000,  -0.285696,  -0.000000]
    <r_h> [Ang]:                        [ -0.000000,   0.000000,  -2.383620]
    <r_e> [Ang]:                        [ -0.000000,  -0.000000,   0.277189]
    |<r_e - r_h>| [Ang]:                  2.660809
    Hole size [Ang]:                      1.983599
      Cartesian components [Ang]:       [  0.899512,   0.940655,   1.496900]
    Electron size [Ang]:                  3.583436
      Cartesian components [Ang]:       [  1.443637,   2.270224,   2.367068]
    RMS electron-hole separation [Ang]:   4.813364
      Cartesian components [Ang]:       [  1.700701,   2.454100,   3.775379]
    Covariance(r_h, r_e) [Ang^2]:         0.343553
    Correlation coefficient:              0.048333
    Center-of-mass size [Ang]:            2.089425
      Cartesian components [Ang]:       [  0.850594,   1.230334,   1.458926]

  Decomposition into state-averaged NTOs
    H- 0 -> L+ 8: -0.5030 ( 50.6%)
    H- 0 -> L+ 0:  0.3449 ( 23.8%)
    H- 1 -> L+ 2:  0.2134 (  9.1%)
    H- 1 -> L+ 5:  0.1287 (  3.3%)
    H- 0 -> L+ 7:  0.1109 (  2.5%)
                   omega =  90.1%
  ----------------------------------------------------------------------------


  Excited state 7 (singlet, B2)                                    [converged]
  ----------------------------------------------------------------------------
  Term symbol:  7 (1) B2                                    R^2 =  1.48741e-08

  Total energy:                                            -78.5445765433 a.u.
  Excitation energy:                                               7.152103 eV

  Osc. strength:                                                      0.193931
  Trans. dip. moment [a.u.]:           [  -0.000000,    1.052028,    0.000000]
  <i|r^2|0> [a.u.]:                    [   0.000000,    0.000000,   -0.000000]

  Dip. moment [a.u.]:                  [  -0.000000,    0.000000,    2.801624]
  Total dipole [Debye]:                                               7.121020
  <r^2> [a.u.]:                        [  38.850516,   29.383186,  131.392807]
  Total <r^2> [a.u.]:                                               199.626509

  V1^2 = 0.9422, V2^2 = 0.0578

  Important amplitudes:
      occ i      occ j       vir a       vir b          v   
    ---------------------------------------------------------
     1 (B2) A               8 (A1) A                 -0.4147
     1 (B2) A               9 (A1) A                 -0.3534
    ---------------------------------------------------------

  Density matrix analysis:
  ------------------------
  NOs
    Occupation of frontier NOs:
       0.8549   1.1123
    Number of electrons: 18.000000
    Number of unpaired electrons: n_u =  2.42970, n_u,nl =  2.13514
    NO participation ratio (PR_NO):  3.742252
  
  
  Mulliken Population Analysis
  Atom      Charge (e)              h+              e-           Del q
  --------------------------------------------------------------------
   1 C       -0.478397        0.547708       -0.608723       -0.061014
   2 C       -0.841512        0.475663       -0.715095       -0.239432
   3 H        0.117338        0.077618        0.001630        0.079248
   4 H        0.186779        0.052987       -0.003707        0.049280
   5 H        0.117338        0.077618        0.001630        0.079248
   6 H        0.186779        0.052987       -0.003707        0.049280
   7 H       -0.288326        0.062477       -0.019086        0.043392
  --------------------------------------------------------------------
  Sum:       -1.000000        1.347059       -1.347059        0.000000
  
  Multipole moment analysis of the density matrix
    Molecular charge:                      -1.000000
    Number of electrons:                   18.000000
      Center of electronic charge [Ang]: [  0.000000,  -0.000000,  -0.082364]
    Total nuclear charge:                  17.000000
      Center of nuclear charge [Ang]:    [ -0.000000,   0.000000,  -0.000000]
    Dipole moment [D]:                     7.121018
      Cartesian components [D]:          [ -0.000000,   0.000000,   7.121018]
    RMS size of the density [Ang]:         1.760350
      Cartesian components [Ang]:        [  0.777434,   0.676105,   1.427345]
  
  Exciton analysis of the difference density matrix
    <r_h> [Ang]:                  [ -0.000000,  -0.000000,  -0.105081]
    <r_e> [Ang]:                  [  0.000000,  -0.000000,   0.713105]
    |<r_e - r_h>| [Ang]:            0.818186
    Hole size [Ang]:                2.101114
      Cartesian components [Ang]: [  0.911284,   1.010131,   1.601212]
    Electron size [Ang]:            3.401683
      Cartesian components [Ang]: [  1.718446,   1.818900,   2.304343]

  Transition density matrix analysis:
  -----------------------------------
  
  CT numbers (Mulliken)
    omega =     0.9137
    <Phe> =    -0.0180
  
  Exciton analysis of the transition density matrix
    Trans. dipole moment [D]:             1.336995
      Cartesian components [D]:         [ -0.000000,   1.336995,   0.000000]
    <r_h> [Ang]:                        [ -0.000000,  -0.000000,  -0.153307]
    <r_e> [Ang]:                        [  0.000000,  -0.000000,   0.936161]
    |<r_e - r_h>| [Ang]:                  1.089468
    Hole size [Ang]:                      1.716729
      Cartesian components [Ang]:       [  0.598471,   0.893933,   1.337862]
    Electron size [Ang]:                  3.744558
      Cartesian components [Ang]:       [  1.923366,   2.047772,   2.475683]
    RMS electron-hole separation [Ang]:   4.165772
      Cartesian components [Ang]:       [  2.013857,   2.229022,   2.886087]
    Covariance(r_h, r_e) [Ang^2]:         0.401075
    Correlation coefficient:              0.062391
    Center-of-mass size [Ang]:            2.107784
      Cartesian components [Ang]:       [  1.007395,   1.119870,   1.474381]

  Decomposition into state-averaged NTOs
    H- 1 -> L+ 2:  0.5281 ( 55.8%)
    H- 1 -> L+ 5:  0.3139 ( 19.7%)
    H- 0 -> L+ 8:  0.1964 (  7.7%)
    H- 0 -> L+ 0: -0.1486 (  4.4%)
    H- 1 -> L+ 6:  0.1283 (  3.3%)
                   omega =  91.4%
  ----------------------------------------------------------------------------


  Excited state 8 (singlet, B2)                                    [converged]
  ----------------------------------------------------------------------------
  Term symbol:  8 (1) B2                                    R^2 =  2.38372e-08

  Total energy:                                            -78.4987477266 a.u.
  Excitation energy:                                               8.399169 eV

  Osc. strength:                                                      0.001330
  Trans. dip. moment [a.u.]:           [  -0.000000,   -0.080382,    0.000000]
  <i|r^2|0> [a.u.]:                    [   0.000000,   -0.000000,   -0.000000]

  Dip. moment [a.u.]:                  [   0.000000,    0.000000,    6.340352]
  Total dipole [Debye]:                                              16.115570
  <r^2> [a.u.]:                        [  45.560533,   34.351829,  167.208808]
  Total <r^2> [a.u.]:                                               247.121169

  V1^2 = 0.9396, V2^2 = 0.0604

  Important amplitudes:
      occ i      occ j       vir a       vir b          v   
    ---------------------------------------------------------
     1 (B2) A               9 (A1) A                 -0.4917
     1 (B2) A               8 (A1) A                  0.4312
    ---------------------------------------------------------

  Density matrix analysis:
  ------------------------
  NOs
    Occupation of frontier NOs:
       0.9835   0.9968
    Number of electrons: 18.000000
    Number of unpaired electrons: n_u =  2.36035, n_u,nl =  2.03102
    NO participation ratio (PR_NO):  2.829313
  
  
  Mulliken Population Analysis
  Atom      Charge (e)              h+              e-           Del q
  --------------------------------------------------------------------
   1 C       -0.931000        0.606221       -1.119839       -0.513618
   2 C       -0.401648        0.497179       -0.296746        0.200432
   3 H        0.129499        0.108613       -0.017204        0.091409
   4 H        0.208016        0.084431       -0.013915        0.070516
   5 H        0.129499        0.108613       -0.017204        0.091409
   6 H        0.208016        0.084431       -0.013915        0.070516
   7 H       -0.342383        0.028309       -0.038974       -0.010665
  --------------------------------------------------------------------
  Sum:       -1.000000        1.517796       -1.517796       -0.000000
  
  Multipole moment analysis of the density matrix
    Molecular charge:                      -1.000000
    Number of electrons:                   18.000000
      Center of electronic charge [Ang]: [ -0.000000,  -0.000000,  -0.186398]
    Total nuclear charge:                  17.000000
      Center of nuclear charge [Ang]:    [ -0.000000,   0.000000,  -0.000000]
    Dipole moment [D]:                     16.115565
      Cartesian components [D]:          [  0.000000,   0.000000,  16.115565]
    RMS size of the density [Ang]:         1.951859
      Cartesian components [Ang]:        [  0.841898,   0.731038,   1.602044]
  
  Exciton analysis of the difference density matrix
    <r_h> [Ang]:                  [  0.000000,  -0.000000,   0.142538]
    <r_e> [Ang]:                  [ -0.000000,  -0.000000,  -0.365086]
    |<r_e - r_h>| [Ang]:            0.507624
    Hole size [Ang]:                1.848908
      Cartesian components [Ang]: [  0.861820,   0.922975,   1.350498]
    Electron size [Ang]:            4.342962
      Cartesian components [Ang]: [  1.965847,   1.949162,   3.346271]

  Transition density matrix analysis:
  -----------------------------------
  
  CT numbers (Mulliken)
    omega =     0.9081
    <Phe> =    -0.0010
  
  Exciton analysis of the transition density matrix
    Trans. dipole moment [D]:             0.102155
      Cartesian components [D]:         [ -0.000000,  -0.102155,   0.000000]
    <r_h> [Ang]:                        [ -0.000000,  -0.000000,   0.270105]
    <r_e> [Ang]:                        [ -0.000000,  -0.000000,  -0.570111]
    |<r_e - r_h>| [Ang]:                  0.840216
    Hole size [Ang]:                      1.279144
      Cartesian components [Ang]:       [  0.522455,   0.885311,   0.761233]
    Electron size [Ang]:                  5.204809
      Cartesian components [Ang]:       [  2.355799,   2.354567,   3.999533]
    RMS electron-hole separation [Ang]:   5.421356
      Cartesian components [Ang]:       [  2.412824,   2.512725,   4.153986]
    Covariance(r_h, r_e) [Ang^2]:         0.020554
    Correlation coefficient:              0.003087
    Center-of-mass size [Ang]:            2.681761
      Cartesian components [Ang]:       [  1.206626,   1.259140,   2.037268]

  Decomposition into state-averaged NTOs
    H- 1 -> L+ 6: -0.4524 ( 40.9%)
    H- 1 -> L+ 3:  0.3524 ( 24.8%)
    H- 1 -> L+ 5:  0.3415 ( 23.3%)
    H- 1 -> L+ 2: -0.0897 (  1.6%)
                   omega =  90.8%
  ----------------------------------------------------------------------------


  Excited state 9 (singlet, B2)                                    [converged]
  ----------------------------------------------------------------------------
  Term symbol:  9 (1) B2                                    R^2 =  8.51309e-06

  Total energy:                                            -78.4689137605 a.u.
  Excitation energy:                                               9.210992 eV

  Osc. strength:                                                      0.000219
  Trans. dip. moment [a.u.]:           [  -0.000000,    0.031121,   -0.000000]
  <i|r^2|0> [a.u.]:                    [   0.000000,   -0.000000,   -0.000000]

  Dip. moment [a.u.]:                  [   0.000000,   -0.000000,  -16.765581]
  Total dipole [Debye]:                                              42.613864
  <r^2> [a.u.]:                        [  59.522757,   83.347903,  150.567330]
  Total <r^2> [a.u.]:                                               293.437991

  V1^2 = 0.0208, V2^2 = 0.9792

  Important amplitudes:
      occ i      occ j       vir a       vir b          v   
    ---------------------------------------------------------
     6 (A1) A   6 (A1) B    7 (A1) A    2 (B2) B      0.3486
     5 (A1) A               2 (B2) A                  0.0708
    ---------------------------------------------------------

  Density matrix analysis:
  ------------------------
  NOs
    Occupation of frontier NOs:
       0.9916   0.9973
    Number of electrons: 18.000000
    Number of unpaired electrons: n_u =  2.44011, n_u,nl =  2.06378
    NO participation ratio (PR_NO):  2.985273
  
  
  Mulliken Population Analysis
  Atom      Charge (e)              h+              e-           Del q
  --------------------------------------------------------------------
   1 C       -3.663085        0.255545       -3.501247       -3.245702
   2 C        1.321880        0.428338        1.495622        1.923960
   3 H        0.051963        0.007040        0.006833        0.013873
   4 H        0.125000       -0.010297       -0.002203       -0.012500
   5 H        0.051963        0.007040        0.006833        0.013873
   6 H        0.125000       -0.010297       -0.002203       -0.012500
   7 H        0.987279        1.311859        0.007137        1.318996
  --------------------------------------------------------------------
  Sum:       -1.000000        1.989228       -1.989228       -0.000000
  
  Multipole moment analysis of the density matrix
    Molecular charge:                      -1.000000
    Number of electrons:                   18.000000
      Center of electronic charge [Ang]: [ -0.000000,   0.000000,   0.492887]
    Total nuclear charge:                  17.000000
      Center of nuclear charge [Ang]:    [ -0.000000,   0.000000,  -0.000000]
    Dipole moment [D]:                     42.613852
      Cartesian components [D]:          [  0.000000,  -0.000000, -42.613852]
    RMS size of the density [Ang]:         2.078971
      Cartesian components [Ang]:        [  0.962291,   1.138708,   1.448951]
  
  Exciton analysis of the difference density matrix
    <r_h> [Ang]:                  [  0.000000,   0.000000,  -2.834057]
    <r_e> [Ang]:                  [ -0.000000,   0.000000,   2.925295]
    |<r_e - r_h>| [Ang]:            5.759353
    Hole size [Ang]:                1.603306
      Cartesian components [Ang]: [  0.885009,   0.888001,   0.999401]
    Electron size [Ang]:            4.520450
      Cartesian components [Ang]: [  2.265108,   3.151935,   2.317123]

  Transition density matrix analysis:
  -----------------------------------
  
  CT numbers (Mulliken)
    omega =     0.0206
    <Phe> =    -0.0017
  
  Exciton analysis of the transition density matrix
    Trans. dipole moment [D]:             0.039551
      Cartesian components [D]:         [ -0.000000,   0.039551,  -0.000000]
    <r_h> [Ang]:                        [ -0.000000,  -0.000000,  -0.852826]
    <r_e> [Ang]:                        [ -0.000000,  -0.000000,   1.954998]
    |<r_e - r_h>| [Ang]:                  2.807824
    Hole size [Ang]:                      1.861556
      Cartesian components [Ang]:       [  0.634071,   0.508986,   1.674598]
    Electron size [Ang]:                  4.384333
      Cartesian components [Ang]:       [  1.997128,   3.445458,   1.833760]
    RMS electron-hole separation [Ang]:   5.597341
      Cartesian components [Ang]:       [  2.095371,   3.482733,   3.848404]
    Covariance(r_h, r_e) [Ang^2]:        -0.379293
    Correlation coefficient:             -0.046472
    Center-of-mass size [Ang]:            2.341430
      Cartesian components [Ang]:       [  1.047682,   1.741483,   1.162709]

  Decomposition into state-averaged NTOs
    H- 2 -> L+ 1:  0.0752 (  1.1%)
                   omega =   2.1%
  ----------------------------------------------------------------------------


  Excited state 10 (singlet, B2)                                    [converged]
  ----------------------------------------------------------------------------
  Term symbol:  10 (1) B2                                   R^2 =  7.59525e-07

  Total energy:                                            -78.4615807337 a.u.
  Excitation energy:                                               9.410534 eV

  Osc. strength:                                                      0.046658
  Trans. dip. moment [a.u.]:           [   0.000000,    0.449862,   -0.000000]
  <i|r^2|0> [a.u.]:                    [   0.000000,    0.000000,    0.000000]

  Dip. moment [a.u.]:                  [   0.000000,   -0.000000,    4.824745]
  Total dipole [Debye]:                                              12.263280
  <r^2> [a.u.]:                        [  38.350978,   26.602795,  153.833716]
  Total <r^2> [a.u.]:                                               218.787488

  V1^2 = 0.9458, V2^2 = 0.0542

  Important amplitudes:
      occ i      occ j       vir a       vir b          v   
    ---------------------------------------------------------
     1 (B2) A              10 (A1) A                  0.5915
     1 (B2) A               8 (A1) A                  0.2621
    ---------------------------------------------------------

  Density matrix analysis:
  ------------------------
  NOs
    Occupation of frontier NOs:
       0.9856   0.9881
    Number of electrons: 18.000000
    Number of unpaired electrons: n_u =  2.37146, n_u,nl =  2.03333
    NO participation ratio (PR_NO):  2.874420
  
  
  Mulliken Population Analysis
  Atom      Charge (e)              h+              e-           Del q
  --------------------------------------------------------------------
   1 C       -0.851058        0.543271       -0.976946       -0.433676
   2 C       -0.407492        0.520933       -0.326345        0.194588
   3 H        0.117095        0.093118       -0.014113        0.079005
   4 H        0.196554        0.075012       -0.015958        0.059054
   5 H        0.117095        0.093118       -0.014113        0.079005
   6 H        0.196554        0.075012       -0.015958        0.059054
   7 H       -0.368748        0.024232       -0.061262       -0.037030
  --------------------------------------------------------------------
  Sum:       -1.000000        1.424695       -1.424695        0.000000
  
  Multipole moment analysis of the density matrix
    Molecular charge:                      -1.000000
    Number of electrons:                   18.000000
      Center of electronic charge [Ang]: [ -0.000000,   0.000000,  -0.141841]
    Total nuclear charge:                  17.000000
      Center of nuclear charge [Ang]:    [ -0.000000,   0.000000,  -0.000000]
    Dipole moment [D]:                     12.263277
      Cartesian components [D]:          [  0.000000,  -0.000000,  12.263277]
    RMS size of the density [Ang]:         1.839453
      Cartesian components [Ang]:        [  0.772419,   0.643322,   1.540485]
  
  Exciton analysis of the difference density matrix
    <r_h> [Ang]:                  [  0.000000,  -0.000000,   0.151338]
    <r_e> [Ang]:                  [ -0.000000,   0.000000,   0.173487]
    |<r_e - r_h>| [Ang]:            0.022149
    Hole size [Ang]:                1.759324
      Cartesian components [Ang]: [  0.830023,   0.916660,   1.251407]
    Electron size [Ang]:            3.753840
      Cartesian components [Ang]: [  1.611739,   1.567521,   3.006076]

  Transition density matrix analysis:
  -----------------------------------
  
  CT numbers (Mulliken)
    omega =     0.9135
    <Phe> =    -0.0082
  
  Exciton analysis of the transition density matrix
    Trans. dipole moment [D]:             0.571717
      Cartesian components [D]:         [  0.000000,   0.571717,  -0.000000]
    <r_h> [Ang]:                        [ -0.000000,  -0.000000,   0.264442]
    <r_e> [Ang]:                        [ -0.000000,   0.000000,   0.209265]
    |<r_e - r_h>| [Ang]:                  0.055176
    Hole size [Ang]:                      1.279428
      Cartesian components [Ang]:       [  0.522181,   0.882137,   0.765570]
    Electron size [Ang]:                  4.343543
      Cartesian components [Ang]:       [  1.855451,   1.817220,   3.481577]
    RMS electron-hole separation [Ang]:   4.523126
      Cartesian components [Ang]:       [  1.927042,   2.015490,   3.561317]
    Covariance(r_h, r_e) [Ang^2]:         0.023839
    Correlation coefficient:              0.004290
    Center-of-mass size [Ang]:            2.266659
      Cartesian components [Ang]:       [  0.964009,   1.012264,   1.784308]

  Decomposition into state-averaged NTOs
    H- 1 -> L+ 6: -0.4521 ( 40.9%)
    H- 1 -> L+ 5: -0.3510 ( 24.6%)
    H- 1 -> L+ 2:  0.3149 ( 19.8%)
    H- 1 -> L+ 3: -0.1644 (  5.4%)
                   omega =  91.3%
  ----------------------------------------------------------------------------


--------------------------------------------------------------------------------
  Time of ADC calculation:  CPU 129.75 s  wall 38.94 s
================================================================================
 
 --------------------------------------------------------------
             Orbital Energies (a.u.) and Symmetries
 --------------------------------------------------------------
 
 Alpha MOs, Restricted
 -- Occupied --                  
-11.076 -11.072  -0.883  -0.621  -0.502  -0.406  -0.354  -0.220
  1 A1    2 A1    3 A1    4 A1    1 B1    5 A1    2 B1    1 B2                 
 -0.036
  6 A1                                                                         
 -- Virtual --                   
  0.129   0.131   0.136   0.169   0.175   0.198   0.225   0.274
  7 A1    3 B1    2 B2    4 B1    3 B2    8 A1    9 A1    4 B2                 
  0.287   0.304   0.324   0.327   0.390   0.412   0.421   0.441
  5 B1   10 A1    6 B1    5 B2   11 A1   12 A1    6 B2   13 A1                 
  0.487   0.505   0.623   0.693   0.865   0.935   1.014   1.032
  7 B1   14 A1    8 B1   15 A1   16 A1    9 B1   17 A1    7 B2                 
  1.049   1.090   1.096   1.141   1.179   1.200   1.209   1.272
 10 B1   18 A1    8 B2   19 A1   20 A1   21 A1   11 B1    1 A2                 
  1.444   1.445   1.502   1.510   1.753   1.761   1.836   1.878
  9 B2    2 A2   12 B1   22 A1   23 A1   13 B1   14 B1   10 B2                 
  1.952   2.009   2.035   2.101   2.157   2.176   2.206   2.285
 15 B1   11 B2   24 A1   12 B2   25 A1    3 A2   16 B1   26 A1                 
  2.334   2.476   2.572   2.602   2.715   2.734   2.962   2.967
 13 B2   27 A1    4 A2   28 A1   17 B1   29 A1   30 A1   18 B1                 
  3.425   3.505
 31 A1   19 B1                                                                 
 
 Beta MOs, Restricted
 -- Occupied --                  
-11.076 -11.072  -0.883  -0.621  -0.502  -0.406  -0.354  -0.220
  1 A1    2 A1    3 A1    4 A1    1 B1    5 A1    2 B1    1 B2                 
 -0.036
  6 A1                                                                         
 -- Virtual --                   
  0.129   0.131   0.136   0.169   0.175   0.198   0.225   0.274
  7 A1    3 B1    2 B2    4 B1    3 B2    8 A1    9 A1    4 B2                 
  0.287   0.304   0.324   0.327   0.390   0.412   0.421   0.441
  5 B1   10 A1    6 B1    5 B2   11 A1   12 A1    6 B2   13 A1                 
  0.487   0.505   0.623   0.693   0.865   0.935   1.014   1.032
  7 B1   14 A1    8 B1   15 A1   16 A1    9 B1   17 A1    7 B2                 
  1.049   1.090   1.096   1.141   1.179   1.200   1.209   1.272
 10 B1   18 A1    8 B2   19 A1   20 A1   21 A1   11 B1    1 A2                 
  1.444   1.445   1.502   1.510   1.753   1.761   1.836   1.878
  9 B2    2 A2   12 B1   22 A1   23 A1   13 B1   14 B1   10 B2                 
  1.952   2.009   2.035   2.101   2.157   2.176   2.206   2.285
 15 B1   11 B2   24 A1   12 B2   25 A1    3 A2   16 B1   26 A1                 
  2.334   2.476   2.572   2.602   2.715   2.734   2.962   2.967
 13 B2   27 A1    4 A2   28 A1   17 B1   29 A1   30 A1   18 B1                 
  3.425   3.505
 31 A1   19 B1                                                                 
 --------------------------------------------------------------
 
          Ground-State Mulliken Net Atomic Charges

     Atom                 Charge (a.u.)
  ----------------------------------------
      1 C                    -0.492674
      2 C                    -0.469526
      3 H                     0.031597
      4 H                     0.132926
      5 H                     0.031597
      6 H                     0.132926
      7 H                    -0.366846
  ----------------------------------------
  Sum of atomic charges =    -1.000000

 -----------------------------------------------------------------
                    Cartesian Multipole Moments
 -----------------------------------------------------------------
    Charge (ESU x 10^10)
                -4.8032
    Dipole Moment (Debye)
         X       0.0000      Y       0.0000      Z      12.4210
       Tot      12.4210
    Quadrupole Moments (Debye-Ang)
        XX     -20.0835     XY       0.0000     YY     -24.3571
        XZ      -0.0000     YZ       0.0000     ZZ     -63.0830
    Octopole Moments (Debye-Ang^2)
       XXX       0.0000    XXY      -0.0000    XYY       0.0000
       YYY      -0.0000    XXZ      17.6536    XYZ       0.0000
       YYZ      17.5936    XZZ       0.0000    YZZ      -0.0000
       ZZZ     169.7226
    Hexadecapole Moments (Debye-Ang^3)
      XXXX     -69.7642   XXXY       0.0000   XXYY     -23.3212
      XYYY       0.0000   YYYY     -65.1857   XXXZ      -0.0000
      XXYZ       0.0000   XYYZ      -0.0000   YYYZ       0.0000
      XXZZ     -93.5112   XYZZ       0.0000   YYZZ     -96.6603
      XZZZ      -0.0000   YZZZ       0.0000   ZZZZ    -801.1502
 -----------------------------------------------------------------
 Total job time:  121.53s(wall), 175.57s(cpu) 
 Fri Mar 25 13:36:51 2022

        *************************************************************
        *                                                           *
        *  Thank you very much for using Q-Chem.  Have a nice day.  *
        *                                                           *
        *************************************************************


