/src/tsommerfeld/qchem/exe/qcprog.exe .input0.555556.1615.qcin.1 /src/jdavis/qchem.scratch/qchem1615/

                  Welcome to Q-Chem
     A Quantum Leap Into The Future Of Chemistry


 Q-Chem 5.4 (devel), Q-Chem, Inc., Pleasanton, CA (2021)

 E. Epifanovsky,  A. T. B. Gilbert,  Xintian Feng,  Joonho Lee,  Yuezhi Mao,  
 N. Mardirossian,  P. Pokhilko,  A. White,  M. Wormit,  M. P. Coons,  
 A. L. Dempwolff,  Zhengting Gan,  D. Hait,  P. R. Horn,  L. D. Jacobson,  
 I. Kaliman,  J. Kussmann,  A. W. Lange,  Ka Un Lao,  D. S. Levine,  Jie Liu,  
 S. C. McKenzie,  A. F. Morrison,  K. Nanda,  F. Plasser,  D. R. Rehn,  
 M. L. Vidal,  Zhi-Qiang You,  Ying Zhu,  B. Alam,  B. Albrecht,  
 A. Aldossary,  E. Alguire,  J. H. Andersen,  D. Barton,  K. Begam,  A. Behn,  
 Y. A. Bernard,  E. J. Berquist,  H. Burton,  A. Carreras,  K. Carter-Fenk,  
 R. Chakraborty,  A. D. Chien,  K. D. Closser,  V. Cofer-Shabica,  
 S. Dasgupta,  Jia Deng,  M. de Wergifosse,  M. Diedenhofen,  Hainam Do,  
 S. Ehlert,  Po-Tung Fang,  S. Fatehi,  Qingguo Feng,  T. Friedhoff,  
 J. Gayvert,  Qinghui Ge,  G. Gidofalvi,  M. Goldey,  J. Gomes,  
 C. Gonzalez-Espinoza,  S. Gulania,  A. Gunina,  M. W. D. Hanson-Heine,  
 P. H. P. Harbach,  A. W. Hauser,  M. F. Herbst,  M. Hernandez Vera,  
 M. Hodecker,  Z. C. Holden,  S. Houck,  Xunkun Huang,  Kerwin Hui,  
 B. C. Huynh,  M. Ivanov,  Hyunjun Ji,  Hanjie Jiang,  B. Kaduk,  S. Kaehler,  
 K. Khistyaev,  Jaehoon Kim,  P. Klunzinger,  Z. Koczor-Benda,  
 Joong Hoon Koh,  D. Kosenkov,  L. Koulias,  T. Kowalczyk,  C. M. Krauter,  
 K. Kue,  A. Kunitsa,  T. Kus,  A. Landau,  K. V. Lawler,  D. Lefrancois,  
 S. Lehtola,  Rain Li,  Yi-Pei Li,  Jiashu Liang,  M. Liebenthal,  
 Hung-Hsuan Lin,  You-Sheng Lin,  Fenglai Liu,  Kuan-Yu Liu,  
 M. Loipersberger,  A. Luenser,  A. Manjanath,  P. Manohar,  E. Mansoor,  
 S. F. Manzer,  Shan-Ping Mao,  A. V. Marenich,  T. Markovich,  S. Mason,  
 S. A. Maurer,  P. F. McLaughlin,  M. F. S. J. Menger,  J.-M. Mewes,  
 S. A. Mewes,  P. Morgante,  J. W. Mullinax,  K. J. Oosterbaan,  G. Paran,  
 Alexander C. Paul,  Suranjan K. Paul,  F. Pavosevic,  Zheng Pei,  S. Prager,  
 E. I. Proynov,  E. Ramos,  B. Rana,  A. E. Rask,  A. Rettig,  R. M. Richard,  
 F. Rob,  E. Rossomme,  T. Scheele,  M. Scheurer,  M. Schneider,  
 N. Sergueev,  S. M. Sharada,  W. Skomorowski,  D. W. Small,  C. J. Stein,  
 Yu-Chuan Su,  E. J. Sundstrom,  Zhen Tao,  J. Thirman,  T. Tsuchimochi,  
 N. M. Tubman,  S. P. Veccham,  O. Vydrov,  J. Wenzel,  J. Witte,  A. Yamada,  
 Kun Yao,  S. Yeganeh,  S. R. Yost,  A. Zech,  Igor Ying Zhang,  Xing Zhang,  
 Yu Zhang,  D. Zuev,  A. Aspuru-Guzik,  A. T. Bell,  N. A. Besley,  
 K. B. Bravaya,  B. R. Brooks,  D. Casanova,  Jeng-Da Chai,  S. Coriani,  
 C. J. Cramer,  A. E. DePrince, III,  R. A. DiStasio Jr.,  A. Dreuw,  
 B. D. Dunietz,  T. R. Furlani,  W. A. Goddard III,  S. Grimme,  
 S. Hammes-Schiffer,  T. Head-Gordon,  W. J. Hehre,  Chao-Ping Hsu,  
 T.-C. Jagau,  Yousung Jung,  A. Klamt,  Jing Kong,  D. S. Lambrecht,  
 WanZhen Liang,  N. J. Mayhall,  C. W. McCurdy,  J. B. Neaton,  
 C. Ochsenfeld,  J. A. Parkhill,  R. Peverati,  V. A. Rassolov,  Yihan Shao,  
 L. V. Slipchenko,  T. Stauch,  R. P. Steele,  J. E. Subotnik,  
 A. J. W. Thom,  A. Tkatchenko,  D. G. Truhlar,  T. Van Voorhis,  
 T. A. Wesolowski,  K. B. Whaley,  H. L. Woodcock III,  P. M. Zimmerman,  
 S. Faraji,  P. M. W. Gill,  M. Head-Gordon,  J. M. Herbert,  A. I. Krylov

 Additional authors for Version 5.4.1: 
 S. Kotaru,  Shaozhi Li,  Xiangyuan Li,  F. Matz,  A. Molle,  Haisheng Ren,  
 Yingli Su,  Hung-Yi Tsai,  C. Utku,  Fang Wang

 Contributors to earlier versions of Q-Chem not listed above: 
 R. D. Adamson,  B. Austin,  R. Baer,  J. Baker,  G. J. O. Beran,  
 K. Brandhorst,  S. T. Brown,  E. F. C. Byrd,  A. K. Chakraborty,  
 G. K. L. Chan,  Chun-Min Chang,  Yunqing Chen,  C.-L. Cheng,  
 Siu Hung Chien,  D. M. Chipman,  D. L. Crittenden,  H. Dachsel,  
 R. J. Doerksen,  A. D. Dutoi,  R. G. Edgar,  J. Fosso-Tande,  
 L. Fusti-Molnar,  D. Ghosh,  A. Ghysels,  A. Golubeva-Zadorozhnaya,  
 J. Gonthier,  M. S. Gordon,  S. R. Gwaltney,  G. Hawkins,  J. E. Herr,  
 A. Heyden,  S. Hirata,  E. G. Hohenstein,  G. Kedziora,  F. J. Keil,  
 C. Kelley,  Jihan Kim,  R. A. King,  R. Z. Khaliullin,  P. P. Korambath,  
 W. Kurlancheek,  A. Laurent,  A. M. Lee,  M. S. Lee,  S. V. Levchenko,  
 Ching Yeh Lin,  D. Liotard,  E. Livshits,  R. C. Lochan,  I. Lotan,  
 L. A. Martinez-Martinez,  P. E. Maslen,  N. Nair,  D. P. O'Neill,  
 D. Neuhauser,  E. Neuscamman,  C. M. Oana,  R. Olivares-Amaya,  R. Olson,  
 T. M. Perrine,  B. Peters,  P. A. Pieniazek,  A. Prociuk,  Y. M. Rhee,  
 J. Ritchie,  M. A. Rohrdanz,  E. Rosta,  N. J. Russ,  H. F. Schaefer III,  
 M. W. Schmidt,  N. E. Schultz,  S. Sharma,  N. Shenvi,  C. D. Sherrill,  
 A. C. Simmonett,  A. Sodt,  T. Stein,  D. Stuck,  K. S. Thanthiriwatte,  
 V. Vanovschi,  L. Vogt,  Tao Wang,  A. Warshel,  M. A. Watson,  
 C. F. Williams,  Q. Wu,  X. Xu,  Jun Yang,  W. Zhang,  Yan Zhao

 Please cite Q-Chem as follows:
 Y. Shao et al., Mol. Phys. 113, 184-215 (2015)
 DOI: 10.1080/00268976.2014.952696

 Q-Chem 5.4.1 for Intel X86 EM64T Linux

 Parts of Q-Chem use Armadillo 9.900.5 (Nocturnal Misbehaviour).
 http://arma.sourceforge.net/

 Q-Chem begins on Fri Mar 25 13:24:39 2022  

 Host: node01
0

     Scratch files written to /src/jdavis/qchem.scratch/qchem1615//
 Processing $rem in /src/tsommerfeld/qchem/config/preferences:
 Processing $rem in /home/jdavis/.qchemrc:

 Checking the input file for inconsistencies... 	...done.

--------------------------------------------------------------
User input:
--------------------------------------------------------------
$molecule
-1 1
C         0.0000000000    0.0000000000    0.8417902907
C         0.0000000000    0.0000000000   -0.4872097093
H         0.9623488518    0.0000000000    1.3363703127
H         0.9623489048    0.0000000000   -0.9817896873
H        -0.9623488518    0.0000000000    1.3363703127
H        -0.9623489048    0.0000000000   -0.9817896873
H         0.0000000000    0.0000000000   -2.8366446508
$end

$rem
   METHOD adc(2)
   BASIS gen
   PURECART 11
   EE_STATES [0,0,0,10]
   scf_convergence 8
   ADC_DAVIDSON_MAXITER 120
   ADC_DAVIDSON_MAXSUBSPACE 200
   adc_nguess_singles 100
   THRESH 14
   S2THRESH 14
   adc_davidson_conv 5
   adc_davidson_thresh 14
   THREADS 10
   MEM_TOTAL 95000
   STATE_ANALYSIS TRUE
$end
$basis
C 1
S   9   1.00
      6.665000D+03           6.920000D-04
      1.000000D+03           5.329000D-03
      2.280000D+02           2.707700D-02
      6.471000D+01           1.017180D-01
      2.106000D+01           2.747400D-01
      7.495000D+00           4.485640D-01
      2.797000D+00           2.850740D-01
      5.215000D-01           1.520400D-02
      1.596000D-01          -3.191000D-03
S   9   1.00
      6.665000D+03          -1.460000D-04
      1.000000D+03          -1.154000D-03
      2.280000D+02          -5.725000D-03
      6.471000D+01          -2.331200D-02
      2.106000D+01          -6.395500D-02
      7.495000D+00          -1.499810D-01
      2.797000D+00          -1.272620D-01
      5.215000D-01           5.445290D-01
      1.596000D-01           5.804960D-01
S   1   1.00
      1.596000D-01           1.000000D+00
S   1   1.00
      0.0469000              1.0000000
P   4   1.00
      9.439000D+00           3.810900D-02
      2.002000D+00           2.094800D-01
      5.456000D-01           5.085570D-01
      1.517000D-01           4.688420D-01
P   1   1.00
      1.517000D-01           1.000000D+00
P   1   1.00
      0.0337111      1.0000000
P   1   1.00
      0.0168556      1.0000000
D   1   1.00
      5.500000D-01           1.0000000
****
C 2
S   9   1.00
      6.665000D+03           6.920000D-04
      1.000000D+03           5.329000D-03
      2.280000D+02           2.707700D-02
      6.471000D+01           1.017180D-01
      2.106000D+01           2.747400D-01
      7.495000D+00           4.485640D-01
      2.797000D+00           2.850740D-01
      5.215000D-01           1.520400D-02
      1.596000D-01          -3.191000D-03
S   9   1.00
      6.665000D+03          -1.460000D-04
      1.000000D+03          -1.154000D-03
      2.280000D+02          -5.725000D-03
      6.471000D+01          -2.331200D-02
      2.106000D+01          -6.395500D-02
      7.495000D+00          -1.499810D-01
      2.797000D+00          -1.272620D-01
      5.215000D-01           5.445290D-01
      1.596000D-01           5.804960D-01
S   1   1.00
      1.596000D-01           1.000000D+00
S   1   1.00
      0.0469000              1.0000000
P   4   1.00
      9.439000D+00           3.810900D-02
      2.002000D+00           2.094800D-01
      5.456000D-01           5.085570D-01
      1.517000D-01           4.688420D-01
P   1   1.00
      1.517000D-01           1.000000D+00
P   1   1.00
      0.0337111      1.0000000
P   1   1.00
      0.0168556      1.0000000
D   1   1.00
      5.500000D-01           1.0000000
****
H 3
cc-pVDZ
****
H 4
cc-pVDZ
****
H 5
cc-pVDZ
****
H 6
cc-pVDZ
****
H 7
aug-cc-pVDZ
****
$end
--------------------------------------------------------------
 ----------------------------------------------------------------
             Standard Nuclear Orientation (Angstroms)
    I     Atom           X                Y                Z
 ----------------------------------------------------------------
    1      C       0.0000000000     0.0000000000     0.8417902855
    2      C       0.0000000000     0.0000000000    -0.4872097145
    3      H       0.9623488518     0.0000000000     1.3363703075
    4      H       0.9623489048     0.0000000000    -0.9817896925
    5      H      -0.9623488518     0.0000000000     1.3363703075
    6      H      -0.9623489048     0.0000000000    -0.9817896925
    7      H       0.0000000000     0.0000000000    -2.8366446560
 ----------------------------------------------------------------
 Molecular Point Group                 C2v   NOp =  4
 Largest Abelian Subgroup              C2v   NOp =  4
 Nuclear Repulsion Energy =          36.55739271 hartrees
 There are        9 alpha and        9 beta electrons
 Requested basis set is non-standard
 There are 33 shells and 67 basis functions
 Total memory of 95000 MB is distributed as follows: 
   MEM_STATIC is set to 192 MB
   QALLOC/CCMAN JOB total memory use is  94808 MB
 Warning: actual memory use might exceed 95000 MB

 Total QAlloc Memory Limit  95000 MB
 Mega-Array Size       188 MB
 MEM_STATIC part       192 MB

                       Distance Matrix (Angstroms)
             C (  1)   C (  2)   H (  3)   H (  4)   H (  5)   H (  6)
   C (  2)  1.329000
   H (  3)  1.082000  2.061931
   H (  4)  2.061931  1.082000  2.318160
   H (  5)  1.082000  2.061931  1.924698  3.013026
   H (  6)  2.061931  1.082000  3.013026  1.924698  2.318160
   H (  7)  3.678435  2.349435  4.282542  2.089642  4.282542  2.089642

 
 A cutoff of  1.0D-14 yielded    561 shell pairs
 There are      2337 function pairs (      2484 Cartesian)
 Smallest overlap matrix eigenvalue = 6.39E-04

 Scale SEOQF with 1.000000e-01/1.000000e-01/1.000000e-01

 Standard Electronic Orientation quadrupole field applied
 Nucleus-field energy     =    -0.0000000019 hartrees
 ================ Generating on-the-fly SAD Guess ================
Attempting to make child job directory: /src/jdavis/qchem.scratch/qchem1615//Frg1/
Attempting to make child job directory: /src/jdavis/qchem.scratch/qchem1615//Frg2/
Creating input file /src/jdavis/qchem.scratch/qchem1615/Frg1.input
using default PutDataFrgm: nothing
calling putenv with: QCSCRATCH=/src/jdavis/qchem.scratch/qchem1615/ 
Spawning Job For Fragment 0
Done Job For Fragment 0
calling putenv with: QCSCRATCH=/src/jdavis/qchem.scratch 
calling putenv with: QCTHREADS=1 
Creating input file /src/jdavis/qchem.scratch/qchem1615/Frg2.input
using default PutDataFrgm: nothing
calling putenv with: QCSCRATCH=/src/jdavis/qchem.scratch/qchem1615/ 
Spawning Job For Fragment 1
Done Job For Fragment 1
calling putenv with: QCSCRATCH=/src/jdavis/qchem.scratch 
calling putenv with: QCTHREADS=1 
 Time for running child jobs:  CPU 1.77 s  wall 54.30 s
 ============= Method Specific SAD Guess Constructed =============
 Guess from on-the-fly superposition of atomic densities
 Warning: Energy on first SCF cycle will be non-variational
 A restricted Hartree-Fock SCF calculation will be
 performed using Pulay DIIS extrapolation
 SCF converges when DIIS error is below 1.0E-08
 using 10 threads for integral computing
 -------------------------------------------------------
 OpenMP Integral computing Module                
 Release: version 1.0, May 2013, Q-Chem Inc. Pittsburgh 
 -------------------------------------------------------
 ---------------------------------------
  Cycle       Energy         DIIS Error
 ---------------------------------------
    1     -78.8385839512      7.39E-02
    2     -78.4375891731      7.16E-03
    3     -78.4954036886      2.36E-03
    4     -78.4995345688      8.91E-04
    5     -78.5002783394      2.36E-04
    6     -78.5003555775      7.19E-05
    7     -78.5003655919      3.46E-05
    8     -78.5003678234      7.43E-06
    9     -78.5003679827      1.58E-06
   10     -78.5003679931      2.97E-07
   11     -78.5003679936      6.20E-08
   12     -78.5003679936      1.45E-08
   13     -78.5003679936      3.76E-09 Convergence criterion met
 ---------------------------------------
 SCF time:  CPU 12.80 s  wall 1.29 s
 SCF   energy in the final basis set = -78.50036799
 Total energy in the final basis set = -78.50036799
================================================================================
|                                                                              |
|                                 A D C  M A N                                 |
|                                                                              |
 ------------------------------------------------------------------------------ 
|                                                                              |
| Components:                                                                  |
|                                                                              |
| - libvmm - 1.3-trunk                                                         |
|   Authors:                                                                   |
|   Evgeny Epifanovsky, Ilya Kaliman                                           |
|                                                                              |
| - libtensor - 2.5-trunk                                                      |
|   Authors:                                                                   |
|   Evgeny Epifanovsky, Michael Wormit, Dmitry Zuev, Sam Manzer,               |
|   Ilya Kaliman                                                               |
|                                                                              |
| - libwfa - 1.1-trunk                                                         |
|   Authors:                                                                   |
|   Felix Plasser, Stefanie Mewes (Baeppler), Benjamin Thomitzni,              |
|   Michael Wormit, Feng Chen, Anna I. Krylov, Pavel Pokhilko                  |
|                                                                              |
| - libadc - 1.1-trunk                                                         |
|   Authors:                                                                   |
|   Michael Wormit, Adrian L. Dempwolff, Philipp H. P. Harbach,                |
|   Caroline Krauter, Dirk Rehn, Matthias Schneider, Jan Wenzel                |
|                                                                              |
| - adcman - 2.6-trunk                                                         |
|   Authors:                                                                   |
|   Michael Wormit, Adrian L. Dempwolff, Philipp H. P. Harbach,                |
|   Caroline Krauter, Daniel Lefrancois, Jan-Michael Mewes, Dirk Rehn,         |
|   Matthias Schneider, Jan Wenzel, Andreas Dreuw                              |
|                                                                              |
| Authors of earlier versions of ADCMAN:                                       |
| Andreas Dreuw, Jan Hendrik Starcke, Dirk Rehn, Michael Wormit                |
|                                                                              |
================================================================================

 
 Alpha MOs, Restricted
 -- Occupied --                  
-11.076 -11.072  -0.884  -0.621  -0.503  -0.407  -0.354  -0.220
  1 A1    2 A1    3 A1    4 A1    1 B1    5 A1    2 B1    1 B2                 
 -0.036
  6 A1                                                                         
 -- Virtual --                   
  0.116   0.116   0.120   0.149   0.154   0.171   0.198   0.247
  7 A1    3 B1    2 B2    4 B1    3 B2    8 A1    9 A1    5 B1                 
  0.250   0.286   0.289   0.289   0.353   0.385   0.408   0.426
  4 B2    6 B1    5 B2   10 A1   11 A1    6 B2   12 A1   13 A1                 
  0.475   0.505   0.582   0.694   0.839   0.889   0.979   1.011
  7 B1   14 A1    8 B1   15 A1   16 A1    9 B1    7 B2   17 A1                 
  1.052   1.053   1.086   1.131   1.165   1.182   1.201   1.272
  8 B2   10 B1   18 A1   19 A1   20 A1   11 B1   21 A1    1 A2                 
  1.443   1.445   1.476   1.503   1.752   1.761   1.834   1.875
  9 B2    2 A2   22 A1   12 B1   23 A1   13 B1   14 B1   10 B2                 
  1.943   2.002   2.037   2.099   2.129   2.176   2.189   2.289
 15 B1   11 B2   24 A1   12 B2   25 A1    3 A2   16 B1   26 A1                 
  2.332   2.468   2.571   2.598   2.695   2.736   2.959   2.969
 13 B2   27 A1    4 A2   28 A1   17 B1   29 A1   30 A1   18 B1                 
  3.420   3.504
 31 A1   19 B1                                                                 
 
 Beta MOs, Restricted
 -- Occupied --                  
-11.076 -11.072  -0.884  -0.621  -0.503  -0.407  -0.354  -0.220
  1 A1    2 A1    3 A1    4 A1    1 B1    5 A1    2 B1    1 B2                 
 -0.036
  6 A1                                                                         
 -- Virtual --                   
  0.116   0.116   0.120   0.149   0.154   0.171   0.198   0.247
  7 A1    3 B1    2 B2    4 B1    3 B2    8 A1    9 A1    5 B1                 
  0.250   0.286   0.289   0.289   0.353   0.385   0.408   0.426
  4 B2    6 B1    5 B2   10 A1   11 A1    6 B2   12 A1   13 A1                 
  0.475   0.505   0.582   0.694   0.839   0.889   0.979   1.011
  7 B1   14 A1    8 B1   15 A1   16 A1    9 B1    7 B2   17 A1                 
  1.052   1.053   1.086   1.131   1.165   1.182   1.201   1.272
  8 B2   10 B1   18 A1   19 A1   20 A1   11 B1   21 A1    1 A2                 
  1.443   1.445   1.476   1.503   1.752   1.761   1.834   1.875
  9 B2    2 A2   22 A1   12 B1   23 A1   13 B1   14 B1   10 B2                 
  1.943   2.002   2.037   2.099   2.129   2.176   2.189   2.289
 15 B1   11 B2   24 A1   12 B2   25 A1    3 A2   16 B1   26 A1                 
  2.332   2.468   2.571   2.598   2.695   2.736   2.959   2.969
 13 B2   27 A1    4 A2   28 A1   17 B1   29 A1   30 A1   18 B1                 
  3.420   3.504
 31 A1   19 B1                                                                 

--------------------------------------------------------------------------------
                                   HF Summary                                   
--------------------------------------------------------------------------------
  Energy:                                                  -78.5003679936 a.u.
  Dip. moment [a.u.]:                  [  -0.000000,    0.000000,    4.853132]
  Total dipole [Debye]:                                              12.335433
  <r^2> [a.u.]:                        [  28.367639,   18.352194,  115.547913]
  Total <r^2> [a.u.]:                                               162.267746
--------------------------------------------------------------------------------

--------------------------------------------------------------------------------
                                 MP(2) Summary                                  
--------------------------------------------------------------------------------
  MP energy contribution:                                   -0.3064414389 a.u.
  Total energy:                                            -78.8068094325 a.u.
  Dip. moment [a.u.]:                  [  -0.000000,   -0.000000,    4.838608]
  Total dipole [Debye]:                                              12.298517
  <r^2> [a.u.]:                        [  28.954814,   18.733997,  115.948255]
  Total <r^2> [a.u.]:                                               163.637066

  Density matrix analysis:
  ------------------------
  NOs
    Occupation of frontier NOs:
       0.0437   1.9375
    Number of electrons: 18.000000
    Number of unpaired electrons: n_u =  0.47613, n_u,nl =  0.05260
    NO participation ratio (PR_NO): 16.564657
  
  
  Mulliken Population Analysis
  Atom      Charge (e)              h+              e-           Del q
  --------------------------------------------------------------------
   1 C       -0.209389        0.121917       -0.087225        0.034691
   2 C       -0.771188        0.070753       -0.168736       -0.097983
   3 H        0.037337        0.018328       -0.012058        0.006270
   4 H        0.134281        0.016202       -0.012212        0.003990
   5 H        0.037337        0.018328       -0.012058        0.006270
   6 H        0.134281        0.016202       -0.012212        0.003990
   7 H       -0.362659        0.058066       -0.015293        0.042773
  --------------------------------------------------------------------
  Sum:       -1.000000        0.319794       -0.319794       -0.000000
  
  Multipole moment analysis of the density matrix
    Molecular charge:                      -1.000000
    Number of electrons:                   18.000000
      Center of electronic charge [Ang]: [  0.000000,   0.000000,  -0.142249]
    Total nuclear charge:                  17.000000
      Center of nuclear charge [Ang]:    [ -0.000000,   0.000000,  -0.000000]
    Dipole moment [D]:                     12.298514
      Cartesian components [D]:          [ -0.000000,  -0.000000,  12.298514]
    RMS size of the density [Ang]:         1.589179
      Cartesian components [Ang]:        [  0.671159,   0.539859,   1.335511]
  
  Exciton analysis of the difference density matrix
    <r_h> [Ang]:                  [  0.000000,   0.000000,  -0.294215]
    <r_e> [Ang]:                  [  0.000000,   0.000000,  -0.270182]
    |<r_e - r_h>| [Ang]:            0.024033
    Hole size [Ang]:                2.128510
      Cartesian components [Ang]: [  0.856350,   0.862938,   1.747157]
    Electron size [Ang]:            2.396490
      Cartesian components [Ang]: [  1.116914,   1.038744,   1.848427]
--------------------------------------------------------------------------------
  Starting Davidson for singlet states of irrep B2 ... 
--------------------------------------------------------------------------------
   It NVec Conv  Avg. Norm  Max. Norm  Conv. states           Remark
--------------------------------------------------------------------------------
       100    0  1.005e-01  4.528e-01  0.0994 n n n n n n n n Guess.
    1  110    0  1.533e-02  9.924e-02  0.0481 n n n n n n n n 
    2  120    0  2.223e-03  1.870e-02  0.0480 n n n n n n n n 
    3  130    0  4.129e-04  4.038e-03  0.0480 n n n n n n n n 
    4  140    7  4.303e-05  4.234e-04  0.0480 y y y y n y y y 
    5  150    9  1.768e-06  1.715e-05  0.0480 y y y y y y y y 
    6  160   10  9.656e-08  9.399e-07  0.0480 y y y y y y y y Converged.
--------------------------------------------------------------------------------
  Davidson Summary: 
 ------------------------------------------------------------
  State  0: excitation energy =   0.0480 a.u.   (converged)
  State  1: excitation energy =   0.0605 a.u.   (converged)
  State  2: excitation energy =   0.1079 a.u.   (converged)
  State  3: excitation energy =   0.1638 a.u.   (converged)
  State  4: excitation energy =   0.2183 a.u.   (converged)
  State  5: excitation energy =   0.2243 a.u.   (converged)
  State  6: excitation energy =   0.2504 a.u.   (converged)
  State  7: excitation energy =   0.2930 a.u.   (converged)
  State  8: excitation energy =   0.3111 a.u.   (converged)
  State  9: excitation energy =   0.3291 a.u.   (converged)
 ------------------------------------------------------------


--------------------------------------------------------------------------------
                   State-averaged natural transition orbitals
--------------------------------------------------------------------------------
--------------------------------------------------------------------------------

--------------------------------------------------------------------------------
                             Excited State Summary
--------------------------------------------------------------------------------
--------------------------------------------------------------------------------

  Excited state 1 (singlet, B2)                                    [converged]
  ----------------------------------------------------------------------------
  Term symbol:  1 (1) B2                                    R^2 =  9.22661e-10

  Total energy:                                            -78.7588535965 a.u.
  Excitation energy:                                               1.304945 eV

  Osc. strength:                                                      0.000878
  Trans. dip. moment [a.u.]:           [  -0.000000,   -0.165694,   -0.000000]
  <i|r^2|0> [a.u.]:                    [   0.000000,    0.000000,   -0.000000]

  Dip. moment [a.u.]:                  [  -0.000000,   -0.000000,   -1.570960]
  Total dipole [Debye]:                                               3.992982
  <r^2> [a.u.]:                        [  44.460011,   75.360994,  103.901591]
  Total <r^2> [a.u.]:                                               223.722596

  V1^2 = 0.9109, V2^2 = 0.0891

  Important amplitudes:
      occ i      occ j       vir a       vir b          v   
    ---------------------------------------------------------
     6 (A1) A               2 (B2) A                  0.5929
     6 (A1) A               3 (B2) A                  0.3136
    ---------------------------------------------------------

  Density matrix analysis:
  ------------------------
  NOs
    Occupation of frontier NOs:
       0.9858   0.9986
    Number of electrons: 18.000000
    Number of unpaired electrons: n_u =  2.41694, n_u,nl =  2.04772
    NO participation ratio (PR_NO):  2.948069
  
  
  Mulliken Population Analysis
  Atom      Charge (e)              h+              e-           Del q
  --------------------------------------------------------------------
   1 C       -1.074426        0.045224       -0.910261       -0.865037
   2 C       -0.304470        0.774574       -0.307856        0.466718
   3 H        0.059265        0.023869       -0.001940        0.021929
   4 H        0.096679       -0.008977       -0.028625       -0.037602
   5 H        0.059265        0.023869       -0.001940        0.021929
   6 H        0.096679       -0.008977       -0.028625       -0.037602
   7 H        0.067007        0.494084       -0.064418        0.429666
  --------------------------------------------------------------------
  Sum:       -1.000000        1.343666       -1.343666        0.000000
  
  Multipole moment analysis of the density matrix
    Molecular charge:                      -1.000000
    Number of electrons:                   18.000000
      Center of electronic charge [Ang]: [  0.000000,   0.000000,   0.046184]
    Total nuclear charge:                  17.000000
      Center of nuclear charge [Ang]:    [ -0.000000,   0.000000,  -0.000000]
    Dipole moment [D]:                     3.992980
      Cartesian components [D]:          [ -0.000000,  -0.000000,  -3.992980]
    RMS size of the density [Ang]:         1.865034
      Cartesian components [Ang]:        [  0.831667,   1.082775,   1.270543]
  
  Exciton analysis of the difference density matrix
    <r_h> [Ang]:                  [  0.000000,  -0.000000,  -2.242985]
    <r_e> [Ang]:                  [  0.000000,   0.000000,   0.281301]
    |<r_e - r_h>| [Ang]:            2.524286
    Hole size [Ang]:                2.555052
      Cartesian components [Ang]: [  1.215233,   1.219393,   1.888010]
    Electron size [Ang]:            4.899220
      Cartesian components [Ang]: [  2.169833,   3.645318,   2.450680]

  Transition density matrix analysis:
  -----------------------------------
  
  CT numbers (Mulliken)
    omega =     0.8972
    <Phe> =    -0.0007
  
  Exciton analysis of the transition density matrix
    Trans. dipole moment [D]:             0.210576
      Cartesian components [D]:         [ -0.000000,  -0.210576,  -0.000000]
    <r_h> [Ang]:                        [  0.000000,   0.000000,  -2.837941]
    <r_e> [Ang]:                        [  0.000000,   0.000000,   0.768337]
    |<r_e - r_h>| [Ang]:                  3.606278
    Hole size [Ang]:                      1.775781
      Cartesian components [Ang]:       [  0.984755,   0.990515,   1.096601]
    Electron size [Ang]:                  5.366273
      Cartesian components [Ang]:       [  2.400793,   4.158296,   2.396174]
    RMS electron-hole separation [Ang]:   6.703563
      Cartesian components [Ang]:       [  2.594907,   4.274535,   4.464590]
    Covariance(r_h, r_e) [Ang^2]:         0.008884
    Correlation coefficient:              0.000932
    Center-of-mass size [Ang]:            2.827015
      Cartesian components [Ang]:       [  1.297455,   2.137373,   1.319190]

  Decomposition into state-averaged NTOs
    H- 0 -> L+ 3: -0.6220 ( 77.4%)
    H- 0 -> L+ 0:  0.2245 ( 10.1%)
                   omega =  89.7%
  ----------------------------------------------------------------------------


  Excited state 2 (singlet, B2)                                    [converged]
  ----------------------------------------------------------------------------
  Term symbol:  2 (1) B2                                    R^2 =  4.99828e-10

  Total energy:                                            -78.7462788194 a.u.
  Excitation energy:                                               1.647122 eV

  Osc. strength:                                                      0.119108
  Trans. dip. moment [a.u.]:           [  -0.000000,   -1.718021,   -0.000000]
  <i|r^2|0> [a.u.]:                    [  -0.000000,   -0.000000,   -0.000000]

  Dip. moment [a.u.]:                  [  -0.000000,    0.000000,    0.682281]
  Total dipole [Debye]:                                               1.734186
  <r^2> [a.u.]:                        [  41.544411,   66.597935,  133.455196]
  Total <r^2> [a.u.]:                                               241.597542

  V1^2 = 0.9113, V2^2 = 0.0887

  Important amplitudes:
      occ i      occ j       vir a       vir b          v   
    ---------------------------------------------------------
     6 (A1) A               3 (B2) A                  0.5876
     6 (A1) A               2 (B2) A                 -0.3057
    ---------------------------------------------------------

  Density matrix analysis:
  ------------------------
  NOs
    Occupation of frontier NOs:
       0.9861   0.9983
    Number of electrons: 18.000000
    Number of unpaired electrons: n_u =  2.41621, n_u,nl =  2.04739
    NO participation ratio (PR_NO):  2.946572
  
  
  Mulliken Population Analysis
  Atom      Charge (e)              h+              e-           Del q
  --------------------------------------------------------------------
   1 C       -0.284931        0.018846       -0.094388       -0.075542
   2 C       -1.100775        0.779358       -1.108945       -0.329587
   3 H        0.058489        0.022557       -0.001405        0.021152
   4 H        0.100329       -0.009312       -0.024640       -0.033952
   5 H        0.058489        0.022557       -0.001405        0.021152
   6 H        0.100329       -0.009312       -0.024640       -0.033952
   7 H        0.068070        0.495788       -0.065059        0.430729
  --------------------------------------------------------------------
  Sum:       -1.000000        1.320482       -1.320482        0.000000
  
  Multipole moment analysis of the density matrix
    Molecular charge:                      -1.000000
    Number of electrons:                   18.000000
      Center of electronic charge [Ang]: [  0.000000,  -0.000000,  -0.020058]
    Total nuclear charge:                  17.000000
      Center of nuclear charge [Ang]:    [ -0.000000,   0.000000,  -0.000000]
    Dipole moment [D]:                     1.734185
      Cartesian components [D]:          [ -0.000000,   0.000000,   1.734185]
    RMS size of the density [Ang]:         1.938599
      Cartesian components [Ang]:        [  0.803935,   1.017877,   1.440756]
  
  Exciton analysis of the difference density matrix
    <r_h> [Ang]:                  [  0.000000,   0.000000,  -2.312307]
    <r_e> [Ang]:                  [  0.000000,  -0.000000,  -0.646678]
    |<r_e - r_h>| [Ang]:            1.665629
    Hole size [Ang]:                2.542893
      Cartesian components [Ang]: [  1.225715,   1.232041,   1.856342]
    Electron size [Ang]:            5.284657
      Cartesian components [Ang]: [  2.042595,   3.415876,   3.476664]

  Transition density matrix analysis:
  -----------------------------------
  
  CT numbers (Mulliken)
    omega =     0.8975
    <Phe> =    -0.0065
  
  Exciton analysis of the transition density matrix
    Trans. dipole moment [D]:             2.183386
      Cartesian components [D]:         [ -0.000000,  -2.183386,  -0.000000]
    <r_h> [Ang]:                        [  0.000000,   0.000000,  -2.840810]
    <r_e> [Ang]:                        [  0.000000,  -0.000000,  -0.462405]
    |<r_e - r_h>| [Ang]:                  2.378404
    Hole size [Ang]:                      1.773207
      Cartesian components [Ang]:       [  0.984881,   0.990949,   1.091922]
    Electron size [Ang]:                  5.847876
      Cartesian components [Ang]:       [  2.223602,   3.851178,   3.797589]
    RMS electron-hole separation [Ang]:   6.555414
      Cartesian components [Ang]:       [  2.431947,   3.976090,   4.609750]
    Covariance(r_h, r_e) [Ang^2]:         0.012639
    Correlation coefficient:              0.001219
    Center-of-mass size [Ang]:            3.056436
      Cartesian components [Ang]:       [  1.215980,   1.988580,   1.977054]

  Decomposition into state-averaged NTOs
    H- 0 -> L+ 6: -0.5350 ( 57.2%)
    H- 0 -> L+ 7: -0.3425 ( 23.5%)
    H- 0 -> L+ 0:  0.1583 (  5.0%)
    H- 0 -> L+ 8:  0.1080 (  2.3%)
    H- 0 -> L+ 3:  0.0900 (  1.6%)
                   omega =  89.7%
  ----------------------------------------------------------------------------


  Excited state 3 (singlet, B2)                                    [converged]
  ----------------------------------------------------------------------------
  Term symbol:  3 (1) B2                                    R^2 =  4.06034e-09

  Total energy:                                            -78.6989554054 a.u.
  Excitation energy:                                               2.934857 eV

  Osc. strength:                                                      0.003580
  Trans. dip. moment [a.u.]:           [  -0.000000,   -0.223128,    0.000000]
  <i|r^2|0> [a.u.]:                    [   0.000000,    0.000000,    0.000000]

  Dip. moment [a.u.]:                  [   0.000000,    0.000000,   -0.412264]
  Total dipole [Debye]:                                               1.047871
  <r^2> [a.u.]:                        [  30.040826,   29.093819,   99.030613]
  Total <r^2> [a.u.]:                                               158.165257

  V1^2 = 0.9255, V2^2 = 0.0745

  Important amplitudes:
      occ i      occ j       vir a       vir b          v   
    ---------------------------------------------------------
     6 (A1) A               4 (B2) A                 -0.5537
     6 (A1) A               5 (B2) A                  0.2895
    ---------------------------------------------------------

  Density matrix analysis:
  ------------------------
  NOs
    Occupation of frontier NOs:
       0.9884   0.9907
    Number of electrons: 18.000000
    Number of unpaired electrons: n_u =  2.41076, n_u,nl =  2.04237
    NO participation ratio (PR_NO):  2.950930
  
  
  Mulliken Population Analysis
  Atom      Charge (e)              h+              e-           Del q
  --------------------------------------------------------------------
   1 C       -0.616370        0.054008       -0.460988       -0.406980
   2 C       -0.645185        0.765337       -0.639334        0.126003
   3 H        0.017737        0.009517       -0.029116       -0.019599
   4 H        0.063318       -0.008649       -0.062314       -0.070963
   5 H        0.017737        0.009517       -0.029116       -0.019599
   6 H        0.063318       -0.008649       -0.062314       -0.070963
   7 H        0.099443        0.494464       -0.032363        0.462101
  --------------------------------------------------------------------
  Sum:       -1.000000        1.315545       -1.315545       -0.000000
  
  Multipole moment analysis of the density matrix
    Molecular charge:                      -1.000000
    Number of electrons:                   18.000000
      Center of electronic charge [Ang]: [ -0.000000,  -0.000000,   0.012120]
    Total nuclear charge:                  17.000000
      Center of nuclear charge [Ang]:    [ -0.000000,   0.000000,  -0.000000]
    Dipole moment [D]:                     1.047871
      Cartesian components [D]:          [  0.000000,   0.000000,  -1.047871]
    RMS size of the density [Ang]:         1.568583
      Cartesian components [Ang]:        [  0.683630,   0.672768,   1.241163]
  
  Exciton analysis of the difference density matrix
    <r_h> [Ang]:                  [  0.000000,   0.000000,  -2.203211]
    <r_e> [Ang]:                  [  0.000000,  -0.000000,  -0.091051]
    |<r_e - r_h>| [Ang]:            2.112160
    Hole size [Ang]:                2.363908
      Cartesian components [Ang]: [  1.115822,   1.133237,   1.748935]
    Electron size [Ang]:            3.044531
      Cartesian components [Ang]: [  1.215001,   1.868002,   2.074491]

  Transition density matrix analysis:
  -----------------------------------
  
  CT numbers (Mulliken)
    omega =     0.9000
    <Phe> =    -0.0087
  
  Exciton analysis of the transition density matrix
    Trans. dipole moment [D]:             0.283568
      Cartesian components [D]:         [ -0.000000,  -0.283568,   0.000000]
    <r_h> [Ang]:                        [  0.000000,   0.000000,  -2.800157]
    <r_e> [Ang]:                        [  0.000000,  -0.000000,   0.132375]
    |<r_e - r_h>| [Ang]:                  2.932532
    Hole size [Ang]:                      1.780067
      Cartesian components [Ang]:       [  0.970039,   0.974540,   1.130458]
    Electron size [Ang]:                  3.134918
      Cartesian components [Ang]:       [  1.174137,   2.020375,   2.089785]
    RMS electron-hole separation [Ang]:   4.646742
      Cartesian components [Ang]:       [  1.522878,   2.242457,   3.774181]
    Covariance(r_h, r_e) [Ang^2]:         0.001944
    Correlation coefficient:              0.000348
    Center-of-mass size [Ang]:            1.802792
      Cartesian components [Ang]:       [  0.761576,   1.121904,   1.188021]

  Decomposition into state-averaged NTOs
    H- 0 -> L+ 7:  0.4673 ( 43.7%)
    H- 0 -> L+ 0:  0.3177 ( 20.2%)
    H- 0 -> L+ 8:  0.2785 ( 15.5%)
    H- 0 -> L+ 3:  0.1958 (  7.7%)
    H- 0 -> L+ 6: -0.1184 (  2.8%)
                   omega =  90.0%
  ----------------------------------------------------------------------------


  Excited state 4 (singlet, B2)                                    [converged]
  ----------------------------------------------------------------------------
  Term symbol:  4 (1) B2                                    R^2 =  2.36813e-09

  Total energy:                                            -78.6429854255 a.u.
  Excitation energy:                                               4.457878 eV

  Osc. strength:                                                      0.009824
  Trans. dip. moment [a.u.]:           [   0.000000,    0.299914,   -0.000000]
  <i|r^2|0> [a.u.]:                    [  -0.000000,   -0.000000,   -0.000000]

  Dip. moment [a.u.]:                  [   0.000000,   -0.000000,   -0.421464]
  Total dipole [Debye]:                                               1.071255
  <r^2> [a.u.]:                        [  35.573706,   47.816775,   93.801251]
  Total <r^2> [a.u.]:                                               177.191731

  V1^2 = 0.9217, V2^2 = 0.0783

  Important amplitudes:
      occ i      occ j       vir a       vir b          v   
    ---------------------------------------------------------
     6 (A1) A               5 (B2) A                 -0.6074
     6 (A1) A               4 (B2) A                 -0.2864
    ---------------------------------------------------------

  Density matrix analysis:
  ------------------------
  NOs
    Occupation of frontier NOs:
       0.9864   0.9920
    Number of electrons: 18.000000
    Number of unpaired electrons: n_u =  2.42349, n_u,nl =  2.05009
    NO participation ratio (PR_NO):  2.980898
  
  
  Mulliken Population Analysis
  Atom      Charge (e)              h+              e-           Del q
  --------------------------------------------------------------------
   1 C       -0.663821        0.040021       -0.494453       -0.454432
   2 C       -0.661366        0.768371       -0.658549        0.109821
   3 H        0.040269        0.006820       -0.003887        0.002932
   4 H        0.083050       -0.011929       -0.039302       -0.051231
   5 H        0.040269        0.006820       -0.003887        0.002932
   6 H        0.083050       -0.011929       -0.039302       -0.051231
   7 H        0.078549        0.490776       -0.049568        0.441207
  --------------------------------------------------------------------
  Sum:       -1.000000        1.288949       -1.288949        0.000000
  
  Multipole moment analysis of the density matrix
    Molecular charge:                      -1.000000
    Number of electrons:                   18.000000
      Center of electronic charge [Ang]: [ -0.000000,   0.000000,   0.012391]
    Total nuclear charge:                  17.000000
      Center of nuclear charge [Ang]:    [ -0.000000,   0.000000,  -0.000000]
    Dipole moment [D]:                     1.071255
      Cartesian components [D]:          [  0.000000,  -0.000000,  -1.071255]
    RMS size of the density [Ang]:         1.660254
      Cartesian components [Ang]:        [  0.743925,   0.862492,   1.207943]
  
  Exciton analysis of the difference density matrix
    <r_h> [Ang]:                  [  0.000000,  -0.000000,  -2.316443]
    <r_e> [Ang]:                  [  0.000000,   0.000000,  -0.156923]
    |<r_e - r_h>| [Ang]:            2.159520
    Hole size [Ang]:                2.408399
      Cartesian components [Ang]: [  1.166302,   1.177883,   1.747203]
    Electron size [Ang]:            3.753194
      Cartesian components [Ang]: [  1.672793,   2.775921,   1.892747]

  Transition density matrix analysis:
  -----------------------------------
  
  CT numbers (Mulliken)
    omega =     0.9060
    <Phe> =    -0.0032
  
  Exciton analysis of the transition density matrix
    Trans. dipole moment [D]:             0.381153
      Cartesian components [D]:         [  0.000000,   0.381153,  -0.000000]
    <r_h> [Ang]:                        [  0.000000,   0.000000,  -2.825892]
    <r_e> [Ang]:                        [  0.000000,   0.000000,   0.165701]
    |<r_e - r_h>| [Ang]:                  2.991593
    Hole size [Ang]:                      1.774629
      Cartesian components [Ang]:       [  0.978639,   0.984010,   1.106028]
    Electron size [Ang]:                  3.989787
      Cartesian components [Ang]:       [  1.780503,   3.083288,   1.800431]
    RMS electron-hole separation [Ang]:   5.291875
      Cartesian components [Ang]:       [  2.031710,   3.236308,   3.660930]
    Covariance(r_h, r_e) [Ang^2]:         0.006698
    Correlation coefficient:              0.000946
    Center-of-mass size [Ang]:            2.184096
      Cartesian components [Ang]:       [  1.015875,   1.618347,   1.057936]

  Decomposition into state-averaged NTOs
    H- 0 -> L+ 0: -0.4050 ( 32.8%)
    H- 0 -> L+ 6: -0.3782 ( 28.6%)
    H- 0 -> L+ 7:  0.3219 ( 20.7%)
    H- 0 -> L+ 8: -0.1820 (  6.6%)
    H- 0 -> L+ 3: -0.0941 (  1.8%)
                   omega =  90.6%
  ----------------------------------------------------------------------------


  Excited state 5 (singlet, B2)                                    [converged]
  ----------------------------------------------------------------------------
  Term symbol:  5 (1) B2                                    R^2 =  3.18956e-08

  Total energy:                                            -78.5884687964 a.u.
  Excitation energy:                                               5.941351 eV

  Osc. strength:                                                      0.065531
  Trans. dip. moment [a.u.]:           [  -0.000000,   -0.670967,    0.000000]
  <i|r^2|0> [a.u.]:                    [   0.000000,    0.000000,    0.000000]

  Dip. moment [a.u.]:                  [  -0.000000,   -0.000000,   -0.319707]
  Total dipole [Debye]:                                               0.812615
  <r^2> [a.u.]:                        [  31.733580,   34.550421,  104.572172]
  Total <r^2> [a.u.]:                                               170.856173

  V1^2 = 0.9154, V2^2 = 0.0846

  Important amplitudes:
      occ i      occ j       vir a       vir b          v   
    ---------------------------------------------------------
     6 (A1) A               6 (B2) A                 -0.6214
     6 (A1) A               4 (B2) A                 -0.2352
    ---------------------------------------------------------

  Density matrix analysis:
  ------------------------
  NOs
    Occupation of frontier NOs:
       0.9635   1.0017
    Number of electrons: 18.000000
    Number of unpaired electrons: n_u =  2.46832, n_u,nl =  2.06159
    NO participation ratio (PR_NO):  3.137655
  
  
  Mulliken Population Analysis
  Atom      Charge (e)              h+              e-           Del q
  --------------------------------------------------------------------
   1 C       -0.605933        0.065645       -0.462189       -0.396544
   2 C       -0.668273        0.748725       -0.645811        0.102915
   3 H        0.026253        0.006311       -0.017394       -0.011084
   4 H        0.069810       -0.013759       -0.050712       -0.064471
   5 H        0.026253        0.006311       -0.017394       -0.011084
   6 H        0.069810       -0.013759       -0.050712       -0.064471
   7 H        0.082079        0.485135       -0.040397        0.444738
  --------------------------------------------------------------------
  Sum:       -1.000000        1.284609       -1.284609       -0.000000
  
  Multipole moment analysis of the density matrix
    Molecular charge:                      -1.000000
    Number of electrons:                   18.000000
      Center of electronic charge [Ang]: [  0.000000,   0.000000,   0.009399]
    Total nuclear charge:                  17.000000
      Center of nuclear charge [Ang]:    [ -0.000000,   0.000000,  -0.000000]
    Dipole moment [D]:                     0.812615
      Cartesian components [D]:          [ -0.000000,  -0.000000,  -0.812615]
    RMS size of the density [Ang]:         1.630321
      Cartesian components [Ang]:        [  0.702626,   0.733148,   1.275443]
  
  Exciton analysis of the difference density matrix
    <r_h> [Ang]:                  [  0.000000,  -0.000000,  -2.258763]
    <r_e> [Ang]:                  [  0.000000,   0.000000,  -0.133865]
    |<r_e - r_h>| [Ang]:            2.124898
    Hole size [Ang]:                2.360001
      Cartesian components [Ang]: [  1.126035,   1.138984,   1.733311]
    Electron size [Ang]:            3.496766
      Cartesian components [Ang]: [  1.368828,   2.178317,   2.368251]

  Transition density matrix analysis:
  -----------------------------------
  
  CT numbers (Mulliken)
    omega =     0.8953
    <Phe> =    -0.0072
  
  Exciton analysis of the transition density matrix
    Trans. dipole moment [D]:             0.852714
      Cartesian components [D]:         [ -0.000000,  -0.852714,   0.000000]
    <r_h> [Ang]:                        [  0.000000,   0.000000,  -2.753460]
    <r_e> [Ang]:                        [  0.000000,   0.000000,   0.151168]
    |<r_e - r_h>| [Ang]:                  2.904628
    Hole size [Ang]:                      1.820922
      Cartesian components [Ang]:       [  0.967863,   0.978005,   1.192688]
    Electron size [Ang]:                  3.698135
      Cartesian components [Ang]:       [  1.395194,   2.394075,   2.449089]
    RMS electron-hole separation [Ang]:   5.015981
      Cartesian components [Ang]:       [  1.697956,   2.585533,   3.948674]
    Covariance(r_h, r_e) [Ang^2]:         0.134377
    Correlation coefficient:              0.019955
    Center-of-mass size [Ang]:            2.077301
      Cartesian components [Ang]:       [  0.849058,   1.293367,   1.386174]

  Decomposition into state-averaged NTOs
    H- 0 -> L+ 8: -0.5557 ( 61.8%)
    H- 0 -> L+ 0:  0.3423 ( 23.4%)
    H- 0 -> L+ 3:  0.0738 (  1.1%)
    H- 1 -> L+ 2:  0.0721 (  1.0%)
                   omega =  89.5%
  ----------------------------------------------------------------------------


  Excited state 6 (singlet, B2)                                    [converged]
  ----------------------------------------------------------------------------
  Term symbol:  6 (1) B2                                    R^2 =  8.37421e-09

  Total energy:                                            -78.5825048053 a.u.
  Excitation energy:                                               6.103639 eV

  Osc. strength:                                                      0.027862
  Trans. dip. moment [a.u.]:           [  -0.000000,   -0.431650,   -0.000000]
  <i|r^2|0> [a.u.]:                    [   0.000000,    0.000000,    0.000000]

  Dip. moment [a.u.]:                  [  -0.000000,   -0.000000,   -0.759194]
  Total dipole [Debye]:                                               1.929678
  <r^2> [a.u.]:                        [  40.616703,   29.967925,  167.095127]
  Total <r^2> [a.u.]:                                               237.679755

  V1^2 = 0.9405, V2^2 = 0.0595

  Important amplitudes:
      occ i      occ j       vir a       vir b          v   
    ---------------------------------------------------------
     1 (B2) A               7 (A1) A                  0.5818
     1 (B2) A               9 (A1) A                  0.3196
    ---------------------------------------------------------

  Density matrix analysis:
  ------------------------
  NOs
    Occupation of frontier NOs:
       0.9849   0.9972
    Number of electrons: 18.000000
    Number of unpaired electrons: n_u =  2.39437, n_u,nl =  2.03800
    NO participation ratio (PR_NO):  2.903869
  
  
  Mulliken Population Analysis
  Atom      Charge (e)              h+              e-           Del q
  --------------------------------------------------------------------
   1 C       -1.375553        0.578618       -1.744782       -1.166164
   2 C        0.009350        0.524738        0.255800        0.780538
   3 H        0.164303        0.113554        0.013413        0.126967
   4 H        0.209486        0.077119       -0.001915        0.075204
   5 H        0.164303        0.113554        0.013413        0.126967
   6 H        0.209486        0.077119       -0.001915        0.075204
   7 H       -0.381375        0.023636       -0.042352       -0.018716
  --------------------------------------------------------------------
  Sum:       -1.000000        1.508338       -1.508338       -0.000000
  
  Multipole moment analysis of the density matrix
    Molecular charge:                      -1.000000
    Number of electrons:                   18.000000
      Center of electronic charge [Ang]: [  0.000000,   0.000000,   0.022319]
    Total nuclear charge:                  17.000000
      Center of nuclear charge [Ang]:    [ -0.000000,   0.000000,  -0.000000]
    Dipole moment [D]:                     1.929677
      Cartesian components [D]:          [ -0.000000,  -0.000000,  -1.929677]
    RMS size of the density [Ang]:         1.922789
      Cartesian components [Ang]:        [  0.794909,   0.682800,   1.612149]
  
  Exciton analysis of the difference density matrix
    <r_h> [Ang]:                  [ -0.000000,   0.000000,   0.122313]
    <r_e> [Ang]:                  [  0.000000,   0.000000,   2.086216]
    |<r_e - r_h>| [Ang]:            1.963903
    Hole size [Ang]:                1.974913
      Cartesian components [Ang]: [  0.914655,   0.979311,   1.450737]
    Electron size [Ang]:            3.648184
      Cartesian components [Ang]: [  1.732532,   1.744898,   2.694978]

  Transition density matrix analysis:
  -----------------------------------
  
  CT numbers (Mulliken)
    omega =     0.9103
    <Phe> =    -0.0039
  
  Exciton analysis of the transition density matrix
    Trans. dipole moment [D]:             0.548573
      Cartesian components [D]:         [ -0.000000,  -0.548573,  -0.000000]
    <r_h> [Ang]:                        [  0.000000,   0.000000,   0.228455]
    <r_e> [Ang]:                        [  0.000000,   0.000000,   3.187306]
    |<r_e - r_h>| [Ang]:                  2.958851
    Hole size [Ang]:                      1.339497
      Cartesian components [Ang]:       [  0.531659,   0.887178,   0.851179]
    Electron size [Ang]:                  3.825825
      Cartesian components [Ang]:       [  2.040022,   2.074540,   2.484256]
    RMS electron-hole separation [Ang]:   4.987723
      Cartesian components [Ang]:       [  2.107907,   2.252661,   3.919136]
    Covariance(r_h, r_e) [Ang^2]:         0.154300
    Correlation coefficient:              0.030109
    Center-of-mass size [Ang]:            2.045714
      Cartesian components [Ang]:       [  1.054210,   1.129947,   1.340451]

  Decomposition into state-averaged NTOs
    H- 1 -> L+ 2: -0.5189 ( 53.9%)
    H- 1 -> L+ 5: -0.2993 ( 17.9%)
    H- 1 -> L+ 4:  0.2874 ( 16.5%)
    H- 1 -> L+ 1: -0.0835 (  1.4%)
                   omega =  91.0%
  ----------------------------------------------------------------------------


  Excited state 7 (singlet, B2)                                    [converged]
  ----------------------------------------------------------------------------
  Term symbol:  7 (1) B2                                    R^2 =  1.31968e-08

  Total energy:                                            -78.5564517521 a.u.
  Excitation energy:                                               6.812579 eV

  Osc. strength:                                                      0.113629
  Trans. dip. moment [a.u.]:           [  -0.000000,   -0.825105,   -0.000000]
  <i|r^2|0> [a.u.]:                    [  -0.000000,   -0.000000,    0.000000]

  Dip. moment [a.u.]:                  [   0.000000,    0.000000,    2.036988]
  Total dipole [Debye]:                                               5.177508
  <r^2> [a.u.]:                        [  43.824842,   32.518929,  150.527142]
  Total <r^2> [a.u.]:                                               226.870912

  V1^2 = 0.9438, V2^2 = 0.0562

  Important amplitudes:
      occ i      occ j       vir a       vir b          v   
    ---------------------------------------------------------
     1 (B2) A               8 (A1) A                  0.4399
     1 (B2) A               9 (A1) A                  0.3329
    ---------------------------------------------------------

  Density matrix analysis:
  ------------------------
  NOs
    Occupation of frontier NOs:
       0.9855   0.9903
    Number of electrons: 18.000000
    Number of unpaired electrons: n_u =  2.37309, n_u,nl =  2.03370
    NO participation ratio (PR_NO):  2.872335
  
  
  Mulliken Population Analysis
  Atom      Charge (e)              h+              e-           Del q
  --------------------------------------------------------------------
   1 C        0.370670        0.651421       -0.071362        0.580059
   2 C       -1.646636        0.460453       -1.335902       -0.875449
   3 H        0.113336        0.095636       -0.019636        0.076000
   4 H        0.215834        0.076611        0.004942        0.081553
   5 H        0.113336        0.095636       -0.019636        0.076000
   6 H        0.215834        0.076611        0.004942        0.081553
   7 H       -0.382374        0.018311       -0.038026       -0.019715
  --------------------------------------------------------------------
  Sum:       -1.000000        1.474679       -1.474679       -0.000000
  
  Multipole moment analysis of the density matrix
    Molecular charge:                      -1.000000
    Number of electrons:                   18.000000
      Center of electronic charge [Ang]: [ -0.000000,  -0.000000,  -0.059885]
    Total nuclear charge:                  17.000000
      Center of nuclear charge [Ang]:    [ -0.000000,   0.000000,  -0.000000]
    Dipole moment [D]:                     5.177506
      Cartesian components [D]:          [  0.000000,   0.000000,   5.177506]
    RMS size of the density [Ang]:         1.877732
      Cartesian components [Ang]:        [  0.825705,   0.711268,   1.529113]
  
  Exciton analysis of the difference density matrix
    <r_h> [Ang]:                  [  0.000000,   0.000000,   0.143709]
    <r_e> [Ang]:                  [ -0.000000,  -0.000000,   1.149049]
    |<r_e - r_h>| [Ang]:            1.005340
    Hole size [Ang]:                1.928957
      Cartesian components [Ang]: [  0.902168,   0.987843,   1.389652]
    Electron size [Ang]:            3.798521
      Cartesian components [Ang]: [  1.907248,   1.895645,   2.682853]

  Transition density matrix analysis:
  -----------------------------------
  
  CT numbers (Mulliken)
    omega =     0.9136
    <Phe> =    -0.0093
  
  Exciton analysis of the transition density matrix
    Trans. dipole moment [D]:             1.048604
      Cartesian components [D]:         [ -0.000000,  -1.048604,  -0.000000]
    <r_h> [Ang]:                        [  0.000000,   0.000000,   0.261656]
    <r_e> [Ang]:                        [ -0.000000,  -0.000000,   1.705602]
    |<r_e - r_h>| [Ang]:                  1.443946
    Hole size [Ang]:                      1.291061
      Cartesian components [Ang]:       [  0.523881,   0.885343,   0.780099]
    Electron size [Ang]:                  4.295082
      Cartesian components [Ang]:       [  2.236570,   2.232226,   2.909064]
    RMS electron-hole separation [Ang]:   4.702296
      Cartesian components [Ang]:       [  2.296608,   2.394040,   3.332529]
    Covariance(r_h, r_e) [Ang^2]:         0.043983
    Correlation coefficient:              0.007932
    Center-of-mass size [Ang]:            2.247362
      Cartesian components [Ang]:       [  1.148802,   1.204357,   1.510103]

  Decomposition into state-averaged NTOs
    H- 1 -> L+ 4: -0.4729 ( 44.7%)
    H- 1 -> L+ 1: -0.4204 ( 35.4%)
    H- 1 -> L+ 2: -0.2260 ( 10.2%)
                   omega =  91.4%
  ----------------------------------------------------------------------------


  Excited state 8 (singlet, B2)                                    [converged]
  ----------------------------------------------------------------------------
  Term symbol:  8 (1) B2                                    R^2 =  1.94929e-08

  Total energy:                                            -78.5138507806 a.u.
  Excitation energy:                                               7.971810 eV

  Osc. strength:                                                      0.005861
  Trans. dip. moment [a.u.]:           [  -0.000000,    0.173237,    0.000000]
  <i|r^2|0> [a.u.]:                    [   0.000000,    0.000000,   -0.000000]

  Dip. moment [a.u.]:                  [  -0.000000,   -0.000000,    7.552645]
  Total dipole [Debye]:                                              19.196911
  <r^2> [a.u.]:                        [  49.635412,   38.175263,  181.286634]
  Total <r^2> [a.u.]:                                               269.097309

  V1^2 = 0.9385, V2^2 = 0.0615

  Important amplitudes:
      occ i      occ j       vir a       vir b          v   
    ---------------------------------------------------------
     1 (B2) A               9 (A1) A                  0.4901
     1 (B2) A               8 (A1) A                 -0.4166
    ---------------------------------------------------------

  Density matrix analysis:
  ------------------------
  NOs
    Occupation of frontier NOs:
       0.9832   0.9975
    Number of electrons: 18.000000
    Number of unpaired electrons: n_u =  2.36422, n_u,nl =  2.03170
    NO participation ratio (PR_NO):  2.837515
  
  
  Mulliken Population Analysis
  Atom      Charge (e)              h+              e-           Del q
  --------------------------------------------------------------------
   1 C       -1.033779        0.593973       -1.418362       -0.824389
   2 C       -0.236920        0.513616        0.020652        0.534268
   3 H        0.128157        0.107251       -0.016430        0.090821
   4 H        0.196148        0.086968       -0.025102        0.061867
   5 H        0.128157        0.107251       -0.016430        0.090821
   6 H        0.196148        0.086968       -0.025102        0.061867
   7 H       -0.377912        0.031141       -0.046395       -0.015254
  --------------------------------------------------------------------
  Sum:       -1.000000        1.527169       -1.527169       -0.000000
  
  Multipole moment analysis of the density matrix
    Molecular charge:                      -1.000000
    Number of electrons:                   18.000000
      Center of electronic charge [Ang]: [  0.000000,   0.000000,  -0.222038]
    Total nuclear charge:                  17.000000
      Center of nuclear charge [Ang]:    [ -0.000000,   0.000000,  -0.000000]
    Dipole moment [D]:                     19.196906
      Cartesian components [D]:          [ -0.000000,  -0.000000,  19.196906]
    RMS size of the density [Ang]:         2.033982
      Cartesian components [Ang]:        [  0.878741,   0.770648,   1.664632]
  
  Exciton analysis of the difference density matrix
    <r_h> [Ang]:                  [  0.000000,   0.000000,   0.127937]
    <r_e> [Ang]:                  [  0.000000,   0.000000,  -0.812500]
    |<r_e - r_h>| [Ang]:            0.940437
    Hole size [Ang]:                1.869913
      Cartesian components [Ang]: [  0.878180,   0.937970,   1.358524]
    Electron size [Ang]:            4.710674
      Cartesian components [Ang]: [  2.136185,   2.108228,   3.630776]

  Transition density matrix analysis:
  -----------------------------------
  
  CT numbers (Mulliken)
    omega =     0.9077
    <Phe> =    -0.0015
  
  Exciton analysis of the transition density matrix
    Trans. dipole moment [D]:             0.220162
      Cartesian components [D]:         [ -0.000000,   0.220162,   0.000000]
    <r_h> [Ang]:                        [  0.000000,   0.000000,   0.268405]
    <r_e> [Ang]:                        [  0.000000,   0.000000,  -1.255104]
    |<r_e - r_h>| [Ang]:                  1.523510
    Hole size [Ang]:                      1.279618
      Cartesian components [Ang]:       [  0.522534,   0.885869,   0.761325]
    Electron size [Ang]:                  5.637375
      Cartesian components [Ang]:       [  2.575916,   2.557843,   4.313015]
    RMS electron-hole separation [Ang]:   5.975035
      Cartesian components [Ang]:       [  2.628140,   2.703795,   4.635020]
    Covariance(r_h, r_e) [Ang^2]:         0.018734
    Correlation coefficient:              0.002597
    Center-of-mass size [Ang]:            2.892010
      Cartesian components [Ang]:       [  1.314311,   1.355004,   2.190953]

  Decomposition into state-averaged NTOs
    H- 1 -> L+ 5:  0.5571 ( 62.1%)
    H- 1 -> L+ 2: -0.3225 ( 20.8%)
    H- 1 -> L+ 1:  0.1890 (  7.1%)
                   omega =  90.8%
  ----------------------------------------------------------------------------


  Excited state 9 (singlet, B2)                                    [converged]
  ----------------------------------------------------------------------------
  Term symbol:  9 (1) B2                                    R^2 =  9.39946e-07

  Total energy:                                            -78.4956617196 a.u.
  Excitation energy:                                               8.466760 eV

  Osc. strength:                                                      0.000257
  Trans. dip. moment [a.u.]:           [  -0.000000,   -0.035184,    0.000000]
  <i|r^2|0> [a.u.]:                    [  -0.000000,   -0.000000,   -0.000000]

  Dip. moment [a.u.]:                  [  -0.000000,    0.000000,  -17.778171]
  Total dipole [Debye]:                                              45.187612
  <r^2> [a.u.]:                        [  69.262305,  101.177155,  174.714841]
  Total <r^2> [a.u.]:                                               345.154301

  V1^2 = 0.0156, V2^2 = 0.9844

  Important amplitudes:
      occ i      occ j       vir a       vir b          v   
    ---------------------------------------------------------
     6 (A1) A   6 (A1) B    7 (A1) A    2 (B2) B     -0.3487
     6 (A1) A               2 (B2) A                 -0.0770
    ---------------------------------------------------------

  Density matrix analysis:
  ------------------------
  NOs
    Occupation of frontier NOs:
       0.9998   1.0040
    Number of electrons: 18.000000
    Number of unpaired electrons: n_u =  2.41128, n_u,nl =  2.06604
    NO participation ratio (PR_NO):  2.894871
  
  
  Mulliken Population Analysis
  Atom      Charge (e)              h+              e-           Del q
  --------------------------------------------------------------------
   1 C       -3.702676       -0.013419       -3.479868       -3.493287
   2 C        1.361378        0.662437        1.470129        2.132565
   3 H        0.048134        0.005417        0.005380        0.010798
   4 H        0.118166       -0.014969       -0.001147       -0.016116
   5 H        0.048134        0.005417        0.005380        0.010798
   6 H        0.118166       -0.014969       -0.001147       -0.016116
   7 H        1.008699        1.366076        0.005281        1.371357
  --------------------------------------------------------------------
  Sum:       -1.000000        1.995990       -1.995990       -0.000000
  
  Multipole moment analysis of the density matrix
    Molecular charge:                      -1.000000
    Number of electrons:                   18.000000
      Center of electronic charge [Ang]: [  0.000000,  -0.000000,   0.522656]
    Total nuclear charge:                  17.000000
      Center of nuclear charge [Ang]:    [ -0.000000,   0.000000,  -0.000000]
    Dipole moment [D]:                     45.187599
      Cartesian components [D]:          [ -0.000000,   0.000000, -45.187599]
    RMS size of the density [Ang]:         2.257531
      Cartesian components [Ang]:        [  1.038038,   1.254602,   1.563616]
  
  Exciton analysis of the difference density matrix
    <r_h> [Ang]:                  [ -0.000000,  -0.000000,  -2.840527]
    <r_e> [Ang]:                  [  0.000000,  -0.000000,   3.155636]
    |<r_e - r_h>| [Ang]:            5.996163
    Hole size [Ang]:                1.608951
      Cartesian components [Ang]: [  0.894630,   0.900878,   0.988321]
    Electron size [Ang]:            5.115207
      Cartesian components [Ang]: [  2.540733,   3.518236,   2.707771]

  Transition density matrix analysis:
  -----------------------------------
  
  CT numbers (Mulliken)
    omega =     0.0156
    <Phe> =     0.0015
  
  Exciton analysis of the transition density matrix
    Trans. dipole moment [D]:             0.044714
      Cartesian components [D]:         [ -0.000000,  -0.044714,   0.000000]
    <r_h> [Ang]:                        [ -0.000000,   0.000000,  -1.981775]
    <r_e> [Ang]:                        [  0.000000,  -0.000000,   2.572310]
    |<r_e - r_h>| [Ang]:                  4.554085
    Hole size [Ang]:                      1.824765
      Cartesian components [Ang]:       [  0.667429,   0.614744,   1.583160]
    Electron size [Ang]:                  5.256873
      Cartesian components [Ang]:       [  2.433810,   4.213789,   1.988784]
    RMS electron-hole separation [Ang]:   7.216912
      Cartesian components [Ang]:       [  2.523663,   4.258914,   5.251342]
    Covariance(r_h, r_e) [Ang^2]:        -0.189822
    Correlation coefficient:             -0.019788
    Center-of-mass size [Ang]:            2.765178
      Cartesian components [Ang]:       [  1.261835,   2.128938,   1.233533]

  Decomposition into state-averaged NTOs
                   omega =   1.6%
  ----------------------------------------------------------------------------


  Excited state 10 (singlet, B2)                                    [converged]
  ----------------------------------------------------------------------------
  Term symbol:  10 (1) B2                                   R^2 =  2.17145e-07

  Total energy:                                            -78.4777016891 a.u.
  Excitation energy:                                               8.955477 eV

  Osc. strength:                                                      0.088947
  Trans. dip. moment [a.u.]:           [  -0.000000,   -0.636712,   -0.000000]
  <i|r^2|0> [a.u.]:                    [  -0.000000,   -0.000000,    0.000000]

  Dip. moment [a.u.]:                  [  -0.000000,    0.000000,    5.163431]
  Total dipole [Debye]:                                              13.124134
  <r^2> [a.u.]:                        [  41.128537,   29.619948,  157.390636]
  Total <r^2> [a.u.]:                                               228.139121

  V1^2 = 0.9467, V2^2 = 0.0533

  Important amplitudes:
      occ i      occ j       vir a       vir b          v   
    ---------------------------------------------------------
     1 (B2) A              10 (A1) A                  0.5895
     1 (B2) A               8 (A1) A                 -0.2819
    ---------------------------------------------------------

  Density matrix analysis:
  ------------------------
  NOs
    Occupation of frontier NOs:
       0.9829   0.9911
    Number of electrons: 18.000000
    Number of unpaired electrons: n_u =  2.36221, n_u,nl =  2.03160
    NO participation ratio (PR_NO):  2.851732
  
  
  Mulliken Population Analysis
  Atom      Charge (e)              h+              e-           Del q
  --------------------------------------------------------------------
   1 C       -0.537206        0.565408       -0.893225       -0.327817
   2 C       -0.705652        0.517877       -0.452342        0.065535
   3 H        0.117029        0.088999       -0.009307        0.079692
   4 H        0.202379        0.074869       -0.006771        0.068098
   5 H        0.117029        0.088999       -0.009307        0.079692
   6 H        0.202379        0.074869       -0.006771        0.068098
   7 H       -0.395958        0.021080       -0.054379       -0.033299
  --------------------------------------------------------------------
  Sum:       -1.000000        1.432101       -1.432101        0.000000
  
  Multipole moment analysis of the density matrix
    Molecular charge:                      -1.000000
    Number of electrons:                   18.000000
      Center of electronic charge [Ang]: [  0.000000,  -0.000000,  -0.151798]
    Total nuclear charge:                  17.000000
      Center of nuclear charge [Ang]:    [ -0.000000,   0.000000,  -0.000000]
    Dipole moment [D]:                     13.124130
      Cartesian components [D]:          [ -0.000000,   0.000000,  13.124130]
    RMS size of the density [Ang]:         1.877804
      Cartesian components [Ang]:        [  0.799901,   0.678824,   1.557403]
  
  Exciton analysis of the difference density matrix
    <r_h> [Ang]:                  [  0.000000,   0.000000,   0.149050]
    <r_e> [Ang]:                  [  0.000000,  -0.000000,   0.029024]
    |<r_e - r_h>| [Ang]:            0.120026
    Hole size [Ang]:                1.795074
      Cartesian components [Ang]: [  0.848017,   0.938642,   1.273621]
    Electron size [Ang]:            3.981984
      Cartesian components [Ang]: [  1.760552,   1.734835,   3.122018]

  Transition density matrix analysis:
  -----------------------------------
  
  CT numbers (Mulliken)
    omega =     0.9150
    <Phe> =    -0.0113
  
  Exciton analysis of the transition density matrix
    Trans. dipole moment [D]:             0.809180
      Cartesian components [D]:         [ -0.000000,  -0.809180,  -0.000000]
    <r_h> [Ang]:                        [  0.000000,   0.000000,   0.264502]
    <r_e> [Ang]:                        [  0.000000,  -0.000000,   0.013685]
    |<r_e - r_h>| [Ang]:                  0.250817
    Hole size [Ang]:                      1.279342
      Cartesian components [Ang]:       [  0.521772,   0.884252,   0.763260]
    Electron size [Ang]:                  4.618645
      Cartesian components [Ang]:       [  2.038872,   2.021644,   3.617712]
    RMS electron-hole separation [Ang]:   4.794699
      Cartesian components [Ang]:       [  2.104173,   2.202918,   3.702533]
    Covariance(r_h, r_e) [Ang^2]:         0.021184
    Correlation coefficient:              0.003585
    Center-of-mass size [Ang]:            2.398488
      Cartesian components [Ang]:       [  1.052490,   1.105107,   1.850336]

  Decomposition into state-averaged NTOs
    H- 1 -> L+ 1: -0.4888 ( 47.8%)
    H- 1 -> L+ 4:  0.3791 ( 28.7%)
    H- 1 -> L+ 5:  0.2173 (  9.4%)
    H- 1 -> L+ 2:  0.1646 (  5.4%)
                   omega =  91.5%
  ----------------------------------------------------------------------------


--------------------------------------------------------------------------------
  Time of ADC calculation:  CPU 134.12 s  wall 39.65 s
================================================================================
 
 --------------------------------------------------------------
             Orbital Energies (a.u.) and Symmetries
 --------------------------------------------------------------
 
 Alpha MOs, Restricted
 -- Occupied --                  
-11.076 -11.072  -0.884  -0.621  -0.503  -0.407  -0.354  -0.220
  1 A1    2 A1    3 A1    4 A1    1 B1    5 A1    2 B1    1 B2                 
 -0.036
  6 A1                                                                         
 -- Virtual --                   
  0.116   0.116   0.120   0.149   0.154   0.171   0.198   0.247
  7 A1    3 B1    2 B2    4 B1    3 B2    8 A1    9 A1    5 B1                 
  0.250   0.286   0.289   0.289   0.353   0.385   0.408   0.426
  4 B2    6 B1    5 B2   10 A1   11 A1    6 B2   12 A1   13 A1                 
  0.475   0.505   0.582   0.694   0.839   0.889   0.979   1.011
  7 B1   14 A1    8 B1   15 A1   16 A1    9 B1    7 B2   17 A1                 
  1.052   1.053   1.086   1.131   1.165   1.182   1.201   1.272
  8 B2   10 B1   18 A1   19 A1   20 A1   11 B1   21 A1    1 A2                 
  1.443   1.445   1.476   1.503   1.752   1.761   1.834   1.875
  9 B2    2 A2   22 A1   12 B1   23 A1   13 B1   14 B1   10 B2                 
  1.943   2.002   2.037   2.099   2.129   2.176   2.189   2.289
 15 B1   11 B2   24 A1   12 B2   25 A1    3 A2   16 B1   26 A1                 
  2.332   2.468   2.571   2.598   2.695   2.736   2.959   2.969
 13 B2   27 A1    4 A2   28 A1   17 B1   29 A1   30 A1   18 B1                 
  3.420   3.504
 31 A1   19 B1                                                                 
 
 Beta MOs, Restricted
 -- Occupied --                  
-11.076 -11.072  -0.884  -0.621  -0.503  -0.407  -0.354  -0.220
  1 A1    2 A1    3 A1    4 A1    1 B1    5 A1    2 B1    1 B2                 
 -0.036
  6 A1                                                                         
 -- Virtual --                   
  0.116   0.116   0.120   0.149   0.154   0.171   0.198   0.247
  7 A1    3 B1    2 B2    4 B1    3 B2    8 A1    9 A1    5 B1                 
  0.250   0.286   0.289   0.289   0.353   0.385   0.408   0.426
  4 B2    6 B1    5 B2   10 A1   11 A1    6 B2   12 A1   13 A1                 
  0.475   0.505   0.582   0.694   0.839   0.889   0.979   1.011
  7 B1   14 A1    8 B1   15 A1   16 A1    9 B1    7 B2   17 A1                 
  1.052   1.053   1.086   1.131   1.165   1.182   1.201   1.272
  8 B2   10 B1   18 A1   19 A1   20 A1   11 B1   21 A1    1 A2                 
  1.443   1.445   1.476   1.503   1.752   1.761   1.834   1.875
  9 B2    2 A2   22 A1   12 B1   23 A1   13 B1   14 B1   10 B2                 
  1.943   2.002   2.037   2.099   2.129   2.176   2.189   2.289
 15 B1   11 B2   24 A1   12 B2   25 A1    3 A2   16 B1   26 A1                 
  2.332   2.468   2.571   2.598   2.695   2.736   2.959   2.969
 13 B2   27 A1    4 A2   28 A1   17 B1   29 A1   30 A1   18 B1                 
  3.420   3.504
 31 A1   19 B1                                                                 
 --------------------------------------------------------------
 
          Ground-State Mulliken Net Atomic Charges

     Atom                 Charge (a.u.)
  ----------------------------------------
      1 C                    -0.244081
      2 C                    -0.673204
      3 H                     0.031067
      4 H                     0.130291
      5 H                     0.031067
      6 H                     0.130291
      7 H                    -0.405432
  ----------------------------------------
  Sum of atomic charges =    -1.000000

 -----------------------------------------------------------------
                    Cartesian Multipole Moments
 -----------------------------------------------------------------
    Charge (ESU x 10^10)
                -4.8032
    Dipole Moment (Debye)
         X      -0.0000      Y       0.0000      Z      12.3354
       Tot      12.3354
    Quadrupole Moments (Debye-Ang)
        XX     -20.3622     XY      -0.0000     YY     -24.6843
        XZ       0.0000     YZ      -0.0000     ZZ     -63.0885
    Octopole Moments (Debye-Ang^2)
       XXX      -0.0000    XXY       0.0000    XYY      -0.0000
       YYY       0.0000    XXZ      17.6505    XYZ      -0.0000
       YYZ      17.6401    XZZ      -0.0000    YZZ       0.0000
       ZZZ     168.8251
    Hexadecapole Moments (Debye-Ang^3)
      XXXX     -75.9144   XXXY      -0.0000   XXYY     -25.4827
      XYYY      -0.0000   YYYY     -71.9922   XXXZ       0.0000
      XXYZ      -0.0000   XYYZ       0.0000   YYYZ      -0.0000
      XXZZ     -97.0283   XYZZ      -0.0000   YYZZ    -100.4455
      XZZZ       0.0000   YZZZ      -0.0000   ZZZZ    -806.3205
 -----------------------------------------------------------------
 Total job time:  122.37s(wall), 180.86s(cpu) 
 Fri Mar 25 13:26:42 2022

        *************************************************************
        *                                                           *
        *  Thank you very much for using Q-Chem.  Have a nice day.  *
        *                                                           *
        *************************************************************


