/src/tsommerfeld/qchem/exe/qcprog.exe .input1.222222.3452.qcin.1 /src/jdavis/qchem.scratch/qchem3452/

                  Welcome to Q-Chem
     A Quantum Leap Into The Future Of Chemistry


 Q-Chem 5.4 (devel), Q-Chem, Inc., Pleasanton, CA (2021)

 E. Epifanovsky,  A. T. B. Gilbert,  Xintian Feng,  Joonho Lee,  Yuezhi Mao,  
 N. Mardirossian,  P. Pokhilko,  A. White,  M. Wormit,  M. P. Coons,  
 A. L. Dempwolff,  Zhengting Gan,  D. Hait,  P. R. Horn,  L. D. Jacobson,  
 I. Kaliman,  J. Kussmann,  A. W. Lange,  Ka Un Lao,  D. S. Levine,  Jie Liu,  
 S. C. McKenzie,  A. F. Morrison,  K. Nanda,  F. Plasser,  D. R. Rehn,  
 M. L. Vidal,  Zhi-Qiang You,  Ying Zhu,  B. Alam,  B. Albrecht,  
 A. Aldossary,  E. Alguire,  J. H. Andersen,  D. Barton,  K. Begam,  A. Behn,  
 Y. A. Bernard,  E. J. Berquist,  H. Burton,  A. Carreras,  K. Carter-Fenk,  
 R. Chakraborty,  A. D. Chien,  K. D. Closser,  V. Cofer-Shabica,  
 S. Dasgupta,  Jia Deng,  M. de Wergifosse,  M. Diedenhofen,  Hainam Do,  
 S. Ehlert,  Po-Tung Fang,  S. Fatehi,  Qingguo Feng,  T. Friedhoff,  
 J. Gayvert,  Qinghui Ge,  G. Gidofalvi,  M. Goldey,  J. Gomes,  
 C. Gonzalez-Espinoza,  S. Gulania,  A. Gunina,  M. W. D. Hanson-Heine,  
 P. H. P. Harbach,  A. W. Hauser,  M. F. Herbst,  M. Hernandez Vera,  
 M. Hodecker,  Z. C. Holden,  S. Houck,  Xunkun Huang,  Kerwin Hui,  
 B. C. Huynh,  M. Ivanov,  Hyunjun Ji,  Hanjie Jiang,  B. Kaduk,  S. Kaehler,  
 K. Khistyaev,  Jaehoon Kim,  P. Klunzinger,  Z. Koczor-Benda,  
 Joong Hoon Koh,  D. Kosenkov,  L. Koulias,  T. Kowalczyk,  C. M. Krauter,  
 K. Kue,  A. Kunitsa,  T. Kus,  A. Landau,  K. V. Lawler,  D. Lefrancois,  
 S. Lehtola,  Rain Li,  Yi-Pei Li,  Jiashu Liang,  M. Liebenthal,  
 Hung-Hsuan Lin,  You-Sheng Lin,  Fenglai Liu,  Kuan-Yu Liu,  
 M. Loipersberger,  A. Luenser,  A. Manjanath,  P. Manohar,  E. Mansoor,  
 S. F. Manzer,  Shan-Ping Mao,  A. V. Marenich,  T. Markovich,  S. Mason,  
 S. A. Maurer,  P. F. McLaughlin,  M. F. S. J. Menger,  J.-M. Mewes,  
 S. A. Mewes,  P. Morgante,  J. W. Mullinax,  K. J. Oosterbaan,  G. Paran,  
 Alexander C. Paul,  Suranjan K. Paul,  F. Pavosevic,  Zheng Pei,  S. Prager,  
 E. I. Proynov,  E. Ramos,  B. Rana,  A. E. Rask,  A. Rettig,  R. M. Richard,  
 F. Rob,  E. Rossomme,  T. Scheele,  M. Scheurer,  M. Schneider,  
 N. Sergueev,  S. M. Sharada,  W. Skomorowski,  D. W. Small,  C. J. Stein,  
 Yu-Chuan Su,  E. J. Sundstrom,  Zhen Tao,  J. Thirman,  T. Tsuchimochi,  
 N. M. Tubman,  S. P. Veccham,  O. Vydrov,  J. Wenzel,  J. Witte,  A. Yamada,  
 Kun Yao,  S. Yeganeh,  S. R. Yost,  A. Zech,  Igor Ying Zhang,  Xing Zhang,  
 Yu Zhang,  D. Zuev,  A. Aspuru-Guzik,  A. T. Bell,  N. A. Besley,  
 K. B. Bravaya,  B. R. Brooks,  D. Casanova,  Jeng-Da Chai,  S. Coriani,  
 C. J. Cramer,  A. E. DePrince, III,  R. A. DiStasio Jr.,  A. Dreuw,  
 B. D. Dunietz,  T. R. Furlani,  W. A. Goddard III,  S. Grimme,  
 S. Hammes-Schiffer,  T. Head-Gordon,  W. J. Hehre,  Chao-Ping Hsu,  
 T.-C. Jagau,  Yousung Jung,  A. Klamt,  Jing Kong,  D. S. Lambrecht,  
 WanZhen Liang,  N. J. Mayhall,  C. W. McCurdy,  J. B. Neaton,  
 C. Ochsenfeld,  J. A. Parkhill,  R. Peverati,  V. A. Rassolov,  Yihan Shao,  
 L. V. Slipchenko,  T. Stauch,  R. P. Steele,  J. E. Subotnik,  
 A. J. W. Thom,  A. Tkatchenko,  D. G. Truhlar,  T. Van Voorhis,  
 T. A. Wesolowski,  K. B. Whaley,  H. L. Woodcock III,  P. M. Zimmerman,  
 S. Faraji,  P. M. W. Gill,  M. Head-Gordon,  J. M. Herbert,  A. I. Krylov

 Additional authors for Version 5.4.1: 
 S. Kotaru,  Shaozhi Li,  Xiangyuan Li,  F. Matz,  A. Molle,  Haisheng Ren,  
 Yingli Su,  Hung-Yi Tsai,  C. Utku,  Fang Wang

 Contributors to earlier versions of Q-Chem not listed above: 
 R. D. Adamson,  B. Austin,  R. Baer,  J. Baker,  G. J. O. Beran,  
 K. Brandhorst,  S. T. Brown,  E. F. C. Byrd,  A. K. Chakraborty,  
 G. K. L. Chan,  Chun-Min Chang,  Yunqing Chen,  C.-L. Cheng,  
 Siu Hung Chien,  D. M. Chipman,  D. L. Crittenden,  H. Dachsel,  
 R. J. Doerksen,  A. D. Dutoi,  R. G. Edgar,  J. Fosso-Tande,  
 L. Fusti-Molnar,  D. Ghosh,  A. Ghysels,  A. Golubeva-Zadorozhnaya,  
 J. Gonthier,  M. S. Gordon,  S. R. Gwaltney,  G. Hawkins,  J. E. Herr,  
 A. Heyden,  S. Hirata,  E. G. Hohenstein,  G. Kedziora,  F. J. Keil,  
 C. Kelley,  Jihan Kim,  R. A. King,  R. Z. Khaliullin,  P. P. Korambath,  
 W. Kurlancheek,  A. Laurent,  A. M. Lee,  M. S. Lee,  S. V. Levchenko,  
 Ching Yeh Lin,  D. Liotard,  E. Livshits,  R. C. Lochan,  I. Lotan,  
 L. A. Martinez-Martinez,  P. E. Maslen,  N. Nair,  D. P. O'Neill,  
 D. Neuhauser,  E. Neuscamman,  C. M. Oana,  R. Olivares-Amaya,  R. Olson,  
 T. M. Perrine,  B. Peters,  P. A. Pieniazek,  A. Prociuk,  Y. M. Rhee,  
 J. Ritchie,  M. A. Rohrdanz,  E. Rosta,  N. J. Russ,  H. F. Schaefer III,  
 M. W. Schmidt,  N. E. Schultz,  S. Sharma,  N. Shenvi,  C. D. Sherrill,  
 A. C. Simmonett,  A. Sodt,  T. Stein,  D. Stuck,  K. S. Thanthiriwatte,  
 V. Vanovschi,  L. Vogt,  Tao Wang,  A. Warshel,  M. A. Watson,  
 C. F. Williams,  Q. Wu,  X. Xu,  Jun Yang,  W. Zhang,  Yan Zhao

 Please cite Q-Chem as follows:
 Y. Shao et al., Mol. Phys. 113, 184-215 (2015)
 DOI: 10.1080/00268976.2014.952696

 Q-Chem 5.4.1 for Intel X86 EM64T Linux

 Parts of Q-Chem use Armadillo 9.900.5 (Nocturnal Misbehaviour).
 http://arma.sourceforge.net/

 Q-Chem begins on Fri Mar 25 14:13:18 2022  

 Host: node01
0

     Scratch files written to /src/jdavis/qchem.scratch/qchem3452//
 Processing $rem in /src/tsommerfeld/qchem/config/preferences:
 Processing $rem in /home/jdavis/.qchemrc:

 Checking the input file for inconsistencies... 	...done.

--------------------------------------------------------------
User input:
--------------------------------------------------------------
$molecule
-1 1
C         0.0000000000    0.0000000000    0.8417902907
C         0.0000000000    0.0000000000   -0.4872097093
H         0.9623488518    0.0000000000    1.3363703127
H         0.9623489048    0.0000000000   -0.9817896873
H        -0.9623488518    0.0000000000    1.3363703127
H        -0.9623489048    0.0000000000   -0.9817896873
H         0.0000000000    0.0000000000   -2.8366446508
$end

$rem
   METHOD adc(2)
   BASIS gen
   PURECART 11
   EE_STATES [0,0,0,10]
   scf_convergence 8
   ADC_DAVIDSON_MAXITER 120
   ADC_DAVIDSON_MAXSUBSPACE 200
   adc_nguess_singles 100
   THRESH 14
   S2THRESH 14
   adc_davidson_conv 5
   adc_davidson_thresh 14
   THREADS 10
   MEM_TOTAL 95000
   STATE_ANALYSIS TRUE
$end
$basis
C 1
S   9   1.00
      6.665000D+03           6.920000D-04
      1.000000D+03           5.329000D-03
      2.280000D+02           2.707700D-02
      6.471000D+01           1.017180D-01
      2.106000D+01           2.747400D-01
      7.495000D+00           4.485640D-01
      2.797000D+00           2.850740D-01
      5.215000D-01           1.520400D-02
      1.596000D-01          -3.191000D-03
S   9   1.00
      6.665000D+03          -1.460000D-04
      1.000000D+03          -1.154000D-03
      2.280000D+02          -5.725000D-03
      6.471000D+01          -2.331200D-02
      2.106000D+01          -6.395500D-02
      7.495000D+00          -1.499810D-01
      2.797000D+00          -1.272620D-01
      5.215000D-01           5.445290D-01
      1.596000D-01           5.804960D-01
S   1   1.00
      1.596000D-01           1.000000D+00
S   1   1.00
      0.0469000              1.0000000
P   4   1.00
      9.439000D+00           3.810900D-02
      2.002000D+00           2.094800D-01
      5.456000D-01           5.085570D-01
      1.517000D-01           4.688420D-01
P   1   1.00
      1.517000D-01           1.000000D+00
P   1   1.00
      0.0741644      1.0000000
P   1   1.00
      0.0370822      1.0000000
D   1   1.00
      5.500000D-01           1.0000000
****
C 2
S   9   1.00
      6.665000D+03           6.920000D-04
      1.000000D+03           5.329000D-03
      2.280000D+02           2.707700D-02
      6.471000D+01           1.017180D-01
      2.106000D+01           2.747400D-01
      7.495000D+00           4.485640D-01
      2.797000D+00           2.850740D-01
      5.215000D-01           1.520400D-02
      1.596000D-01          -3.191000D-03
S   9   1.00
      6.665000D+03          -1.460000D-04
      1.000000D+03          -1.154000D-03
      2.280000D+02          -5.725000D-03
      6.471000D+01          -2.331200D-02
      2.106000D+01          -6.395500D-02
      7.495000D+00          -1.499810D-01
      2.797000D+00          -1.272620D-01
      5.215000D-01           5.445290D-01
      1.596000D-01           5.804960D-01
S   1   1.00
      1.596000D-01           1.000000D+00
S   1   1.00
      0.0469000              1.0000000
P   4   1.00
      9.439000D+00           3.810900D-02
      2.002000D+00           2.094800D-01
      5.456000D-01           5.085570D-01
      1.517000D-01           4.688420D-01
P   1   1.00
      1.517000D-01           1.000000D+00
P   1   1.00
      0.0741644      1.0000000
P   1   1.00
      0.0370822      1.0000000
D   1   1.00
      5.500000D-01           1.0000000
****
H 3
cc-pVDZ
****
H 4
cc-pVDZ
****
H 5
cc-pVDZ
****
H 6
cc-pVDZ
****
H 7
aug-cc-pVDZ
****
$end
--------------------------------------------------------------
 ----------------------------------------------------------------
             Standard Nuclear Orientation (Angstroms)
    I     Atom           X                Y                Z
 ----------------------------------------------------------------
    1      C       0.0000000000     0.0000000000     0.8417902855
    2      C       0.0000000000     0.0000000000    -0.4872097145
    3      H       0.9623488518     0.0000000000     1.3363703075
    4      H       0.9623489048     0.0000000000    -0.9817896925
    5      H      -0.9623488518     0.0000000000     1.3363703075
    6      H      -0.9623489048     0.0000000000    -0.9817896925
    7      H       0.0000000000     0.0000000000    -2.8366446560
 ----------------------------------------------------------------
 Molecular Point Group                 C2v   NOp =  4
 Largest Abelian Subgroup              C2v   NOp =  4
 Nuclear Repulsion Energy =          36.55739271 hartrees
 There are        9 alpha and        9 beta electrons
 Requested basis set is non-standard
 There are 33 shells and 67 basis functions
 Total memory of 95000 MB is distributed as follows: 
   MEM_STATIC is set to 192 MB
   QALLOC/CCMAN JOB total memory use is  94808 MB
 Warning: actual memory use might exceed 95000 MB

 Total QAlloc Memory Limit  95000 MB
 Mega-Array Size       188 MB
 MEM_STATIC part       192 MB

                       Distance Matrix (Angstroms)
             C (  1)   C (  2)   H (  3)   H (  4)   H (  5)   H (  6)
   C (  2)  1.329000
   H (  3)  1.082000  2.061931
   H (  4)  2.061931  1.082000  2.318160
   H (  5)  1.082000  2.061931  1.924698  3.013026
   H (  6)  2.061931  1.082000  3.013026  1.924698  2.318160
   H (  7)  3.678435  2.349435  4.282542  2.089642  4.282542  2.089642

 
 A cutoff of  1.0D-14 yielded    561 shell pairs
 There are      2337 function pairs (      2484 Cartesian)
 Smallest overlap matrix eigenvalue = 1.84E-04

 Scale SEOQF with 1.000000e-01/1.000000e-01/1.000000e-01

 Standard Electronic Orientation quadrupole field applied
 Nucleus-field energy     =    -0.0000000019 hartrees
 ================ Generating on-the-fly SAD Guess ================
Attempting to make child job directory: /src/jdavis/qchem.scratch/qchem3452//Frg1/
Attempting to make child job directory: /src/jdavis/qchem.scratch/qchem3452//Frg2/
Creating input file /src/jdavis/qchem.scratch/qchem3452/Frg1.input
using default PutDataFrgm: nothing
calling putenv with: QCSCRATCH=/src/jdavis/qchem.scratch/qchem3452/ 
Spawning Job For Fragment 0
Done Job For Fragment 0
calling putenv with: QCSCRATCH=/src/jdavis/qchem.scratch 
calling putenv with: QCTHREADS=1 
Creating input file /src/jdavis/qchem.scratch/qchem3452/Frg2.input
using default PutDataFrgm: nothing
calling putenv with: QCSCRATCH=/src/jdavis/qchem.scratch/qchem3452/ 
Spawning Job For Fragment 1
Done Job For Fragment 1
calling putenv with: QCSCRATCH=/src/jdavis/qchem.scratch 
calling putenv with: QCTHREADS=1 
 Time for running child jobs:  CPU 1.76 s  wall 54.26 s
 ============= Method Specific SAD Guess Constructed =============
 Guess from on-the-fly superposition of atomic densities
 Warning: Energy on first SCF cycle will be non-variational
 A restricted Hartree-Fock SCF calculation will be
 performed using Pulay DIIS extrapolation
 SCF converges when DIIS error is below 1.0E-08
 using 10 threads for integral computing
 -------------------------------------------------------
 OpenMP Integral computing Module                
 Release: version 1.0, May 2013, Q-Chem Inc. Pittsburgh 
 -------------------------------------------------------
 ---------------------------------------
  Cycle       Energy         DIIS Error
 ---------------------------------------
    1     -78.8392954787      7.39E-02
    2     -78.4382918408      7.16E-03
    3     -78.4958233798      2.35E-03
    4     -78.4999841803      8.98E-04
    5     -78.5007480712      2.37E-04
    6     -78.5008301696      7.45E-05
    7     -78.5008415155      3.61E-05
    8     -78.5008440122      7.45E-06
    9     -78.5008441517      1.45E-06
   10     -78.5008441572      2.40E-07
   11     -78.5008441574      4.66E-08
   12     -78.5008441574      1.08E-08
   13     -78.5008441574      1.94E-09 Convergence criterion met
 ---------------------------------------
 SCF time:  CPU 12.13 s  wall 1.22 s
 SCF   energy in the final basis set = -78.50084416
 Total energy in the final basis set = -78.50084416
================================================================================
|                                                                              |
|                                 A D C  M A N                                 |
|                                                                              |
 ------------------------------------------------------------------------------ 
|                                                                              |
| Components:                                                                  |
|                                                                              |
| - libvmm - 1.3-trunk                                                         |
|   Authors:                                                                   |
|   Evgeny Epifanovsky, Ilya Kaliman                                           |
|                                                                              |
| - libtensor - 2.5-trunk                                                      |
|   Authors:                                                                   |
|   Evgeny Epifanovsky, Michael Wormit, Dmitry Zuev, Sam Manzer,               |
|   Ilya Kaliman                                                               |
|                                                                              |
| - libwfa - 1.1-trunk                                                         |
|   Authors:                                                                   |
|   Felix Plasser, Stefanie Mewes (Baeppler), Benjamin Thomitzni,              |
|   Michael Wormit, Feng Chen, Anna I. Krylov, Pavel Pokhilko                  |
|                                                                              |
| - libadc - 1.1-trunk                                                         |
|   Authors:                                                                   |
|   Michael Wormit, Adrian L. Dempwolff, Philipp H. P. Harbach,                |
|   Caroline Krauter, Dirk Rehn, Matthias Schneider, Jan Wenzel                |
|                                                                              |
| - adcman - 2.6-trunk                                                         |
|   Authors:                                                                   |
|   Michael Wormit, Adrian L. Dempwolff, Philipp H. P. Harbach,                |
|   Caroline Krauter, Daniel Lefrancois, Jan-Michael Mewes, Dirk Rehn,         |
|   Matthias Schneider, Jan Wenzel, Andreas Dreuw                              |
|                                                                              |
| Authors of earlier versions of ADCMAN:                                       |
| Andreas Dreuw, Jan Hendrik Starcke, Dirk Rehn, Michael Wormit                |
|                                                                              |
================================================================================

 
 Alpha MOs, Restricted
 -- Occupied --                  
-11.075 -11.071  -0.882  -0.620  -0.501  -0.405  -0.353  -0.219
  1 A1    2 A1    3 A1    4 A1    1 B1    5 A1    2 B1    1 B2                 
 -0.034
  6 A1                                                                         
 -- Virtual --                   
  0.163   0.183   0.190   0.234   0.234   0.253   0.315   0.325
  7 A1    3 B1    2 B2    3 B2    4 B1    8 A1    9 A1    4 B2                 
  0.336   0.404   0.430   0.446   0.466   0.473   0.495   0.507
 10 A1   11 A1    5 B1   12 A1    5 B2    6 B1    7 B1   13 A1                 
  0.564   0.583   0.702   0.766   0.984   1.009   1.077   1.091
  6 B2   14 A1    8 B1   15 A1   16 A1    9 B1   17 A1   18 A1                 
  1.122   1.157   1.189   1.212   1.232   1.273   1.284   1.325
 19 A1   10 B1   11 B1   20 A1    7 B2    1 A2    8 B2   21 A1                 
  1.446   1.449   1.480   1.584   1.764   1.789   1.852   1.884
  2 A2    9 B2   22 A1   12 B1   23 A1   13 B1   14 B1   10 B2                 
  1.984   2.029   2.058   2.107   2.177   2.225   2.256   2.300
 15 B1   11 B2   24 A1   12 B2    3 A2   25 A1   16 B1   26 A1                 
  2.344   2.525   2.573   2.630   2.744   2.744   2.990   2.996
 13 B2   27 A1    4 A2   28 A1   29 A1   17 B1   18 B1   30 A1                 
  3.441   3.505
 31 A1   19 B1                                                                 
 
 Beta MOs, Restricted
 -- Occupied --                  
-11.075 -11.071  -0.882  -0.620  -0.501  -0.405  -0.353  -0.219
  1 A1    2 A1    3 A1    4 A1    1 B1    5 A1    2 B1    1 B2                 
 -0.034
  6 A1                                                                         
 -- Virtual --                   
  0.163   0.183   0.190   0.234   0.234   0.253   0.315   0.325
  7 A1    3 B1    2 B2    3 B2    4 B1    8 A1    9 A1    4 B2                 
  0.336   0.404   0.430   0.446   0.466   0.473   0.495   0.507
 10 A1   11 A1    5 B1   12 A1    5 B2    6 B1    7 B1   13 A1                 
  0.564   0.583   0.702   0.766   0.984   1.009   1.077   1.091
  6 B2   14 A1    8 B1   15 A1   16 A1    9 B1   17 A1   18 A1                 
  1.122   1.157   1.189   1.212   1.232   1.273   1.284   1.325
 19 A1   10 B1   11 B1   20 A1    7 B2    1 A2    8 B2   21 A1                 
  1.446   1.449   1.480   1.584   1.764   1.789   1.852   1.884
  2 A2    9 B2   22 A1   12 B1   23 A1   13 B1   14 B1   10 B2                 
  1.984   2.029   2.058   2.107   2.177   2.225   2.256   2.300
 15 B1   11 B2   24 A1   12 B2    3 A2   25 A1   16 B1   26 A1                 
  2.344   2.525   2.573   2.630   2.744   2.744   2.990   2.996
 13 B2   27 A1    4 A2   28 A1   29 A1   17 B1   18 B1   30 A1                 
  3.441   3.505
 31 A1   19 B1                                                                 

--------------------------------------------------------------------------------
                                   HF Summary                                   
--------------------------------------------------------------------------------
  Energy:                                                  -78.5008441574 a.u.
  Dip. moment [a.u.]:                  [  -0.000000,    0.000000,    4.869048]
  Total dipole [Debye]:                                              12.375887
  <r^2> [a.u.]:                        [  27.838049,   17.849377,  114.785614]
  Total <r^2> [a.u.]:                                               160.473040
--------------------------------------------------------------------------------

--------------------------------------------------------------------------------
                                 MP(2) Summary                                  
--------------------------------------------------------------------------------
  MP energy contribution:                                   -0.3078029751 a.u.
  Total energy:                                            -78.8086471325 a.u.
  Dip. moment [a.u.]:                  [  -0.000000,    0.000000,    4.862158]
  Total dipole [Debye]:                                              12.358375
  <r^2> [a.u.]:                        [  28.148500,   17.944215,  114.703694]
  Total <r^2> [a.u.]:                                               160.796408

  Density matrix analysis:
  ------------------------
  NOs
    Occupation of frontier NOs:
       0.0436   1.9373
    Number of electrons: 18.000000
    Number of unpaired electrons: n_u =  0.47425, n_u,nl =  0.05200
    NO participation ratio (PR_NO): 16.621645
  
  
  Mulliken Population Analysis
  Atom      Charge (e)              h+              e-           Del q
  --------------------------------------------------------------------
   1 C       -0.975418        0.118516       -0.113025        0.005491
   2 C       -0.191455        0.062085       -0.126848       -0.064763
   3 H        0.055536        0.019476       -0.012318        0.007159
   4 H        0.166635        0.016246       -0.013416        0.002830
   5 H        0.055536        0.019476       -0.012318        0.007159
   6 H        0.166635        0.016246       -0.013416        0.002830
   7 H       -0.277470        0.053105       -0.013811        0.039294
  --------------------------------------------------------------------
  Sum:       -1.000000        0.305151       -0.305151       -0.000000
  
  Multipole moment analysis of the density matrix
    Molecular charge:                      -1.000000
    Number of electrons:                   18.000000
      Center of electronic charge [Ang]: [  0.000000,  -0.000000,  -0.142941]
    Total nuclear charge:                  17.000000
      Center of nuclear charge [Ang]:    [ -0.000000,   0.000000,  -0.000000]
    Dipole moment [D]:                     12.358372
      Cartesian components [D]:          [ -0.000000,   0.000000,  12.358372]
    RMS size of the density [Ang]:         1.575151
      Cartesian components [Ang]:        [  0.661748,   0.528357,   1.328168]
  
  Exciton analysis of the difference density matrix
    <r_h> [Ang]:                  [ -0.000000,   0.000000,  -0.210395]
    <r_e> [Ang]:                  [  0.000000,  -0.000000,  -0.198447]
    |<r_e - r_h>| [Ang]:            0.011948
    Hole size [Ang]:                1.908800
      Cartesian components [Ang]: [  0.762072,   0.769109,   1.572016]
    Electron size [Ang]:            1.986239
      Cartesian components [Ang]: [  0.930401,   0.823747,   1.549498]
--------------------------------------------------------------------------------
  Starting Davidson for singlet states of irrep B2 ... 
--------------------------------------------------------------------------------
   It NVec Conv  Avg. Norm  Max. Norm  Conv. states           Remark
--------------------------------------------------------------------------------
       100    0  1.057e-01  4.356e-01  0.1465 n n n n n n n n Guess.
    1  110    0  7.597e-03  4.122e-02  0.0939 n n n n n n n n 
    2  120    0  3.846e-03  3.499e-02  0.0935 n n n n n n n n 
    3  130    0  1.266e-03  1.246e-02  0.0935 n n n n n n n n 
    4  140    6  1.109e-04  1.103e-03  0.0935 y y y y y y n n 
    5  150    9  3.569e-06  3.555e-05  0.0935 y y y y y y y y 
    6  160   10  1.074e-07  1.069e-06  0.0935 y y y y y y y y Converged.
--------------------------------------------------------------------------------
  Davidson Summary: 
 ------------------------------------------------------------
  State  0: excitation energy =   0.0935 a.u.   (converged)
  State  1: excitation energy =   0.0970 a.u.   (converged)
  State  2: excitation energy =   0.1571 a.u.   (converged)
  State  3: excitation energy =   0.2320 a.u.   (converged)
  State  4: excitation energy =   0.2809 a.u.   (converged)
  State  5: excitation energy =   0.3272 a.u.   (converged)
  State  6: excitation energy =   0.3533 a.u.   (converged)
  State  7: excitation energy =   0.3725 a.u.   (converged)
  State  8: excitation energy =   0.3819 a.u.   (converged)
  State  9: excitation energy =   0.3925 a.u.   (converged)
 ------------------------------------------------------------


--------------------------------------------------------------------------------
                   State-averaged natural transition orbitals
--------------------------------------------------------------------------------
--------------------------------------------------------------------------------

--------------------------------------------------------------------------------
                             Excited State Summary
--------------------------------------------------------------------------------
--------------------------------------------------------------------------------

  Excited state 1 (singlet, B2)                                    [converged]
  ----------------------------------------------------------------------------
  Term symbol:  1 (1) B2                                    R^2 =  1.20485e-09

  Total energy:                                            -78.7151547788 a.u.
  Excitation energy:                                               2.544056 eV

  Osc. strength:                                                      0.037082
  Trans. dip. moment [a.u.]:           [   0.000000,    0.771324,    0.000000]
  <i|r^2|0> [a.u.]:                    [  -0.000000,   -0.000000,    0.000000]

  Dip. moment [a.u.]:                  [  -0.000000,   -0.000000,   -2.025504]
  Total dipole [Debye]:                                               5.148320
  <r^2> [a.u.]:                        [  30.210867,   31.195879,   98.250778]
  Total <r^2> [a.u.]:                                               159.657524

  V1^2 = 0.9273, V2^2 = 0.0727

  Important amplitudes:
      occ i      occ j       vir a       vir b          v   
    ---------------------------------------------------------
     6 (A1) A               2 (B2) A                  0.5238
     6 (A1) A               3 (B2) A                 -0.3283
    ---------------------------------------------------------

  Density matrix analysis:
  ------------------------
  NOs
    Occupation of frontier NOs:
       0.9910   0.9922
    Number of electrons: 18.000000
    Number of unpaired electrons: n_u =  2.41919, n_u,nl =  2.04604
    NO participation ratio (PR_NO):  2.957797
  
  
  Mulliken Population Analysis
  Atom      Charge (e)              h+              e-           Del q
  --------------------------------------------------------------------
   1 C       -1.243719        0.717637       -0.985938       -0.268301
   2 C       -0.168292        0.155920       -0.132758        0.023163
   3 H        0.063789        0.012173       -0.003921        0.008252
   4 H        0.094345       -0.009094       -0.063196       -0.072290
   5 H        0.063789        0.012173       -0.003921        0.008252
   6 H        0.094345       -0.009094       -0.063196       -0.072290
   7 H        0.095744        0.412966       -0.039752        0.373213
  --------------------------------------------------------------------
  Sum:       -1.000000        1.292681       -1.292681        0.000000
  
  Multipole moment analysis of the density matrix
    Molecular charge:                      -1.000000
    Number of electrons:                   18.000000
      Center of electronic charge [Ang]: [  0.000000,   0.000000,   0.059547]
    Total nuclear charge:                  17.000000
      Center of nuclear charge [Ang]:    [ -0.000000,   0.000000,  -0.000000]
    Dipole moment [D]:                     5.148318
      Cartesian components [D]:          [ -0.000000,  -0.000000,  -5.148318]
    RMS size of the density [Ang]:         1.574887
      Cartesian components [Ang]:        [  0.685562,   0.696648,   1.234891]
  
  Exciton analysis of the difference density matrix
    <r_h> [Ang]:                  [  0.000000,   0.000000,  -2.271145]
    <r_e> [Ang]:                  [  0.000000,   0.000000,   0.548416]
    |<r_e - r_h>| [Ang]:            2.819561
    Hole size [Ang]:                2.223645
      Cartesian components [Ang]: [  1.051355,   1.071196,   1.640667]
    Electron size [Ang]:            3.091153
      Cartesian components [Ang]: [  1.245837,   2.004524,   1.996247]

  Transition density matrix analysis:
  -----------------------------------
  
  CT numbers (Mulliken)
    omega =     0.9067
    <Phe> =    -0.0073
  
  Exciton analysis of the transition density matrix
    Trans. dipole moment [D]:             0.980255
      Cartesian components [D]:         [  0.000000,   0.980255,   0.000000]
    <r_h> [Ang]:                        [ -0.000000,   0.000000,  -2.825129]
    <r_e> [Ang]:                        [ -0.000000,   0.000000,   1.055241]
    |<r_e - r_h>| [Ang]:                  3.880370
    Hole size [Ang]:                      1.625564
      Cartesian components [Ang]:       [  0.906561,   0.911592,   0.994788]
    Electron size [Ang]:                  3.123957
      Cartesian components [Ang]:       [  1.268772,   2.191112,   1.829851]
    RMS electron-hole separation [Ang]:   5.243422
      Cartesian components [Ang]:       [  1.559293,   2.372881,   4.408120]
    Covariance(r_h, r_e) [Ang^2]:        -0.017320
    Correlation coefficient:             -0.003411
    Center-of-mass size [Ang]:            1.758332
      Cartesian components [Ang]:       [  0.779724,   1.186737,   1.037023]

  Decomposition into state-averaged NTOs
    H- 0 -> L+ 0: -0.5947 ( 70.7%)
    H- 0 -> L+ 1: -0.2355 ( 11.1%)
    H- 0 -> L+ 3:  0.1572 (  4.9%)
    H- 0 -> L+ 4: -0.1325 (  3.5%)
                   omega =  90.7%
  ----------------------------------------------------------------------------


  Excited state 2 (singlet, B2)                                    [converged]
  ----------------------------------------------------------------------------
  Term symbol:  2 (1) B2                                    R^2 =  6.02179e-10

  Total energy:                                            -78.7116728892 a.u.
  Excitation energy:                                               2.638803 eV

  Osc. strength:                                                      0.069126
  Trans. dip. moment [a.u.]:           [  -0.000000,   -1.034043,   -0.000000]
  <i|r^2|0> [a.u.]:                    [   0.000000,   -0.000000,   -0.000000]

  Dip. moment [a.u.]:                  [  -0.000000,    0.000000,    1.228823]
  Total dipole [Debye]:                                               3.123358
  <r^2> [a.u.]:                        [  33.386584,   41.776413,   92.262795]
  Total <r^2> [a.u.]:                                               167.425792

  V1^2 = 0.9334, V2^2 = 0.0666

  Important amplitudes:
      occ i      occ j       vir a       vir b          v   
    ---------------------------------------------------------
     6 (A1) A               3 (B2) A                  0.5503
     6 (A1) A               2 (B2) A                  0.3903
    ---------------------------------------------------------

  Density matrix analysis:
  ------------------------
  NOs
    Occupation of frontier NOs:
       0.9924   0.9955
    Number of electrons: 18.000000
    Number of unpaired electrons: n_u =  2.41825, n_u,nl =  2.04713
    NO participation ratio (PR_NO):  2.941182
  
  
  Mulliken Population Analysis
  Atom      Charge (e)              h+              e-           Del q
  --------------------------------------------------------------------
   1 C       -0.214118        0.751797        0.009503        0.761300
   2 C       -1.202290        0.115311       -1.126146       -1.010835
   3 H        0.055109        0.005302       -0.005730       -0.000428
   4 H        0.114342       -0.015772       -0.036521       -0.052293
   5 H        0.055109        0.005302       -0.005730       -0.000428
   6 H        0.114342       -0.015772       -0.036521       -0.052293
   7 H        0.077507        0.403461       -0.048485        0.354976
  --------------------------------------------------------------------
  Sum:       -1.000000        1.249629       -1.249629        0.000000
  
  Multipole moment analysis of the density matrix
    Molecular charge:                      -1.000000
    Number of electrons:                   18.000000
      Center of electronic charge [Ang]: [  0.000000,  -0.000000,  -0.036126]
    Total nuclear charge:                  17.000000
      Center of nuclear charge [Ang]:    [ -0.000000,   0.000000,  -0.000000]
    Dipole moment [D]:                     3.123357
      Cartesian components [D]:          [ -0.000000,   0.000000,   3.123357]
    RMS size of the density [Ang]:         1.613494
      Cartesian components [Ang]:        [  0.720694,   0.806177,   1.197514]
  
  Exciton analysis of the difference density matrix
    <r_h> [Ang]:                  [  0.000000,   0.000000,  -2.396362]
    <r_e> [Ang]:                  [  0.000000,  -0.000000,  -0.857764]
    |<r_e - r_h>| [Ang]:            1.538598
    Hole size [Ang]:                2.196072
      Cartesian components [Ang]: [  1.080377,   1.100156,   1.563706]
    Electron size [Ang]:            3.363793
      Cartesian components [Ang]: [  1.530037,   2.559469,   1.556665]

  Transition density matrix analysis:
  -----------------------------------
  
  CT numbers (Mulliken)
    omega =     0.9175
    <Phe> =    -0.0145
  
  Exciton analysis of the transition density matrix
    Trans. dipole moment [D]:             1.314138
      Cartesian components [D]:         [ -0.000000,  -1.314138,  -0.000000]
    <r_h> [Ang]:                        [ -0.000000,   0.000000,  -2.844073]
    <r_e> [Ang]:                        [  0.000000,  -0.000000,  -0.741121]
    |<r_e - r_h>| [Ang]:                  2.102952
    Hole size [Ang]:                      1.612537
      Cartesian components [Ang]:       [  0.909669,   0.915598,   0.966673]
    Electron size [Ang]:                  3.599871
      Cartesian components [Ang]:       [  1.624807,   2.813131,   1.550926]
    RMS electron-hole separation [Ang]:   4.467760
      Cartesian components [Ang]:       [  1.862085,   2.959167,   2.781520]
    Covariance(r_h, r_e) [Ang^2]:         0.010437
    Correlation coefficient:              0.001798
    Center-of-mass size [Ang]:            1.973590
      Cartesian components [Ang]:       [  0.931079,   1.478798,   0.917225]

  Decomposition into state-averaged NTOs
    H- 0 -> L+ 1: -0.5799 ( 67.3%)
    H- 0 -> L+ 3: -0.3127 ( 19.6%)
    H- 0 -> L+ 0:  0.1263 (  3.2%)
    H- 0 -> L+ 4:  0.0880 (  1.6%)
                   omega =  91.7%
  ----------------------------------------------------------------------------


  Excited state 3 (singlet, B2)                                    [converged]
  ----------------------------------------------------------------------------
  Term symbol:  3 (1) B2                                    R^2 =  1.30444e-09

  Total energy:                                            -78.6515153214 a.u.
  Excitation energy:                                               4.275774 eV

  Osc. strength:                                                      0.115627
  Trans. dip. moment [a.u.]:           [  -0.000000,   -1.050616,    0.000000]
  <i|r^2|0> [a.u.]:                    [  -0.000000,   -0.000000,    0.000000]

  Dip. moment [a.u.]:                  [  -0.000000,    0.000000,   -0.335111]
  Total dipole [Debye]:                                               0.851769
  <r^2> [a.u.]:                        [  30.658098,   31.895676,  101.152007]
  Total <r^2> [a.u.]:                                               163.705782

  V1^2 = 0.9234, V2^2 = 0.0766

  Important amplitudes:
      occ i      occ j       vir a       vir b          v   
    ---------------------------------------------------------
     6 (A1) A               4 (B2) A                 -0.6001
     6 (A1) A               3 (B2) A                  0.2355
    ---------------------------------------------------------

  Density matrix analysis:
  ------------------------
  NOs
    Occupation of frontier NOs:
       0.9860   0.9901
    Number of electrons: 18.000000
    Number of unpaired electrons: n_u =  2.42511, n_u,nl =  2.04733
    NO participation ratio (PR_NO):  2.993103
  
  
  Mulliken Population Analysis
  Atom      Charge (e)              h+              e-           Del q
  --------------------------------------------------------------------
   1 C       -0.668381        0.712248       -0.405211        0.307037
   2 C       -0.695561        0.173027       -0.677134       -0.504107
   3 H        0.040783        0.007810       -0.022564       -0.014753
   4 H        0.089427       -0.010180       -0.067028       -0.077208
   5 H        0.040783        0.007810       -0.022564       -0.014753
   6 H        0.089427       -0.010180       -0.067028       -0.077208
   7 H        0.103522        0.419237       -0.038246        0.380992
  --------------------------------------------------------------------
  Sum:       -1.000000        1.299774       -1.299774        0.000000
  
  Multipole moment analysis of the density matrix
    Molecular charge:                      -1.000000
    Number of electrons:                   18.000000
      Center of electronic charge [Ang]: [  0.000000,  -0.000000,   0.009852]
    Total nuclear charge:                  17.000000
      Center of nuclear charge [Ang]:    [ -0.000000,   0.000000,  -0.000000]
    Dipole moment [D]:                     0.851768
      Cartesian components [D]:          [ -0.000000,   0.000000,  -0.851768]
    RMS size of the density [Ang]:         1.595837
      Cartesian components [Ang]:        [  0.690617,   0.704419,   1.254408]
  
  Exciton analysis of the difference density matrix
    <r_h> [Ang]:                  [  0.000000,   0.000000,  -2.282431]
    <r_e> [Ang]:                  [  0.000000,  -0.000000,  -0.166466]
    |<r_e - r_h>| [Ang]:            2.115965
    Hole size [Ang]:                2.188090
      Cartesian components [Ang]: [  1.040320,   1.053755,   1.610923]
    Electron size [Ang]:            3.255200
      Cartesian components [Ang]: [  1.273948,   2.028832,   2.203911]

  Transition density matrix analysis:
  -----------------------------------
  
  CT numbers (Mulliken)
    omega =     0.9015
    <Phe> =    -0.0055
  
  Exciton analysis of the transition density matrix
    Trans. dipole moment [D]:             1.335199
      Cartesian components [D]:         [ -0.000000,  -1.335199,   0.000000]
    <r_h> [Ang]:                        [ -0.000000,   0.000000,  -2.824872]
    <r_e> [Ang]:                        [ -0.000000,  -0.000000,   0.105143]
    |<r_e - r_h>| [Ang]:                  2.930015
    Hole size [Ang]:                      1.625246
      Cartesian components [Ang]:       [  0.905813,   0.911161,   0.995345]
    Electron size [Ang]:                  3.460319
      Cartesian components [Ang]:       [  1.299860,   2.242731,   2.292232]
    RMS electron-hole separation [Ang]:   4.815162
      Cartesian components [Ang]:       [  1.584256,   2.420107,   3.849546]
    Covariance(r_h, r_e) [Ang^2]:         0.007217
    Correlation coefficient:              0.001283
    Center-of-mass size [Ang]:            1.912437
      Cartesian components [Ang]:       [  0.792212,   1.210702,   1.250607]

  Decomposition into state-averaged NTOs
    H- 0 -> L+ 3: -0.5031 ( 50.6%)
    H- 0 -> L+ 0: -0.2782 ( 15.5%)
    H- 0 -> L+ 4:  0.2470 ( 12.2%)
    H- 0 -> L+ 1:  0.2413 ( 11.6%)
                   omega =  90.1%
  ----------------------------------------------------------------------------


  Excited state 4 (singlet, B2)                                    [converged]
  ----------------------------------------------------------------------------
  Term symbol:  4 (1) B2                                    R^2 =  1.27242e-09

  Total energy:                                            -78.5766203727 a.u.
  Excitation energy:                                               6.313769 eV

  Osc. strength:                                                      0.048415
  Trans. dip. moment [a.u.]:           [  -0.000000,   -0.559457,    0.000000]
  <i|r^2|0> [a.u.]:                    [   0.000000,    0.000000,    0.000000]

  Dip. moment [a.u.]:                  [   0.000000,   -0.000000,   -0.186214]
  Total dipole [Debye]:                                               0.473309
  <r^2> [a.u.]:                        [  33.712091,   22.656160,  147.079567]
  Total <r^2> [a.u.]:                                               203.447818

  V1^2 = 0.9445, V2^2 = 0.0555

  Important amplitudes:
      occ i      occ j       vir a       vir b          v   
    ---------------------------------------------------------
     1 (B2) A               7 (A1) A                  0.6435
     1 (B2) A               8 (A1) A                  0.2185
    ---------------------------------------------------------

  Density matrix analysis:
  ------------------------
  NOs
    Occupation of frontier NOs:
       0.9839   0.9972
    Number of electrons: 18.000000
    Number of unpaired electrons: n_u =  2.35761, n_u,nl =  2.03034
    NO participation ratio (PR_NO):  2.820923
  
  
  Mulliken Population Analysis
  Atom      Charge (e)              h+              e-           Del q
  --------------------------------------------------------------------
   1 C       -0.295753        0.689923       -0.010258        0.679665
   2 C       -1.218014        0.409300       -1.435859       -1.026560
   3 H        0.166438        0.116332       -0.005431        0.110902
   4 H        0.242790        0.069069        0.007086        0.076155
   5 H        0.166438        0.116332       -0.005431        0.110902
   6 H        0.242790        0.069069        0.007086        0.076155
   7 H       -0.304688        0.011544       -0.038762       -0.027218
  --------------------------------------------------------------------
  Sum:       -1.000000        1.481568       -1.481568       -0.000000
  
  Multipole moment analysis of the density matrix
    Molecular charge:                      -1.000000
    Number of electrons:                   18.000000
      Center of electronic charge [Ang]: [ -0.000000,   0.000000,   0.005474]
    Total nuclear charge:                  17.000000
      Center of nuclear charge [Ang]:    [ -0.000000,   0.000000,  -0.000000]
    Dipole moment [D]:                     0.473309
      Cartesian components [D]:          [  0.000000,  -0.000000,  -0.473309]
    RMS size of the density [Ang]:         1.779055
      Cartesian components [Ang]:        [  0.724199,   0.593688,   1.512649]
  
  Exciton analysis of the difference density matrix
    <r_h> [Ang]:                  [  0.000000,  -0.000000,   0.206816]
    <r_e> [Ang]:                  [ -0.000000,   0.000000,   2.009962]
    |<r_e - r_h>| [Ang]:            1.803146
    Hole size [Ang]:                1.823062
      Cartesian components [Ang]: [  0.848274,   0.931116,   1.317957]
    Electron size [Ang]:            2.718059
      Cartesian components [Ang]: [  1.330839,   1.325735,   1.964470]

  Transition density matrix analysis:
  -----------------------------------
  
  CT numbers (Mulliken)
    omega =     0.9139
    <Phe> =    -0.0054
  
  Exciton analysis of the transition density matrix
    Trans. dipole moment [D]:             0.710999
      Cartesian components [D]:         [ -0.000000,  -0.710999,   0.000000]
    <r_h> [Ang]:                        [  0.000000,  -0.000000,   0.277076]
    <r_e> [Ang]:                        [ -0.000000,   0.000000,   2.987943]
    |<r_e - r_h>| [Ang]:                  2.710867
    Hole size [Ang]:                      1.279669
      Cartesian components [Ang]:       [  0.522566,   0.885775,   0.761499]
    Electron size [Ang]:                  2.579016
      Cartesian components [Ang]:       [  1.536214,   1.551201,   1.373005]
    RMS electron-hole separation [Ang]:   3.950655
      Cartesian components [Ang]:       [  1.622206,   1.780064,   3.131692]
    Covariance(r_h, r_e) [Ang^2]:         0.015000
    Correlation coefficient:              0.004545
    Center-of-mass size [Ang]:            1.442123
      Cartesian components [Ang]:       [  0.811558,   0.896245,   0.786027]

  Decomposition into state-averaged NTOs
    H- 1 -> L+ 5: -0.5136 ( 52.8%)
    H- 1 -> L+ 6: -0.3879 ( 30.1%)
    H- 1 -> L+ 2:  0.2057 (  8.5%)
                   omega =  91.4%
  ----------------------------------------------------------------------------


  Excited state 5 (singlet, B2)                                    [converged]
  ----------------------------------------------------------------------------
  Term symbol:  5 (1) B2                                    R^2 =  4.08100e-09

  Total energy:                                            -78.5277909587 a.u.
  Excitation energy:                                               7.642485 eV

  Osc. strength:                                                      0.174086
  Trans. dip. moment [a.u.]:           [   0.000000,    0.964242,   -0.000000]
  <i|r^2|0> [a.u.]:                    [  -0.000000,   -0.000000,   -0.000000]

  Dip. moment [a.u.]:                  [  -0.000000,   -0.000000,    3.710249]
  Total dipole [Debye]:                                               9.430513
  <r^2> [a.u.]:                        [  35.899953,   24.920480,  124.632359]
  Total <r^2> [a.u.]:                                               185.452792

  V1^2 = 0.9492, V2^2 = 0.0508

  Important amplitudes:
      occ i      occ j       vir a       vir b          v   
    ---------------------------------------------------------
     1 (B2) A               8 (A1) A                 -0.6273
     1 (B2) A               7 (A1) A                  0.2102
    ---------------------------------------------------------

  Density matrix analysis:
  ------------------------
  NOs
    Occupation of frontier NOs:
       0.9832   0.9901
    Number of electrons: 18.000000
    Number of unpaired electrons: n_u =  2.35988, n_u,nl =  2.03098
    NO participation ratio (PR_NO):  2.848486
  
  
  Mulliken Population Analysis
  Atom      Charge (e)              h+              e-           Del q
  --------------------------------------------------------------------
   1 C       -5.359640        0.453025       -4.837247       -4.384222
   2 C        3.884540        0.633939        3.442056        4.075995
   3 H        0.149445        0.089361        0.004547        0.093908
   4 H        0.240512        0.066599        0.007278        0.073877
   5 H        0.149445        0.089361        0.004547        0.093908
   6 H        0.240512        0.066599        0.007278        0.073877
   7 H       -0.304814        0.007570       -0.034914       -0.027344
  --------------------------------------------------------------------
  Sum:       -1.000000        1.406455       -1.406455       -0.000000
  
  Multipole moment analysis of the density matrix
    Molecular charge:                      -1.000000
    Number of electrons:                   18.000000
      Center of electronic charge [Ang]: [  0.000000,   0.000000,  -0.109077]
    Total nuclear charge:                  17.000000
      Center of nuclear charge [Ang]:    [ -0.000000,   0.000000,  -0.000000]
    Dipole moment [D]:                     9.430510
      Cartesian components [D]:          [ -0.000000,  -0.000000,   9.430510]
    RMS size of the density [Ang]:         1.695057
      Cartesian components [Ang]:        [  0.747329,   0.622649,   1.388173]
  
  Exciton analysis of the difference density matrix
    <r_h> [Ang]:                  [  0.000000,  -0.000000,   0.191529]
    <r_e> [Ang]:                  [  0.000000,   0.000000,   0.624934]
    |<r_e - r_h>| [Ang]:            0.433405
    Hole size [Ang]:                1.734405
      Cartesian components [Ang]: [  0.818040,   0.927100,   1.216330]
    Electron size [Ang]:            2.750172
      Cartesian components [Ang]: [  1.487455,   1.499502,   1.761369]

  Transition density matrix analysis:
  -----------------------------------
  
  CT numbers (Mulliken)
    omega =     0.9185
    <Phe> =    -0.0155
  
  Exciton analysis of the transition density matrix
    Trans. dipole moment [D]:             1.225429
      Cartesian components [D]:         [  0.000000,   1.225429,  -0.000000]
    <r_h> [Ang]:                        [  0.000000,  -0.000000,   0.267883]
    <r_e> [Ang]:                        [  0.000000,   0.000000,   0.838871]
    |<r_e - r_h>| [Ang]:                  0.570988
    Hole size [Ang]:                      1.281370
      Cartesian components [Ang]:       [  0.522379,   0.884888,   0.765507]
    Electron size [Ang]:                  3.066855
      Cartesian components [Ang]:       [  1.703922,   1.731646,   1.871804]
    RMS electron-hole separation [Ang]:   3.361134
      Cartesian components [Ang]:       [  1.781422,   1.934664,   2.093044]
    Covariance(r_h, r_e) [Ang^2]:         0.038156
    Correlation coefficient:              0.009710
    Center-of-mass size [Ang]:            1.667619
      Cartesian components [Ang]:       [  0.891487,   0.977283,   1.015443]

  Decomposition into state-averaged NTOs
    H- 1 -> L+ 2: -0.5774 ( 66.7%)
    H- 1 -> L+ 7: -0.2660 ( 14.2%)
    H- 1 -> L+ 6: -0.2245 ( 10.1%)
                   omega =  91.8%
  ----------------------------------------------------------------------------


  Excited state 6 (singlet, B2)                                    [converged]
  ----------------------------------------------------------------------------
  Term symbol:  6 (1) B2                                    R^2 =  1.18822e-08

  Total energy:                                            -78.4814035156 a.u.
  Excitation energy:                                               8.904752 eV

  Osc. strength:                                                      0.000010
  Trans. dip. moment [a.u.]:           [  -0.000000,   -0.006693,    0.000000]
  <i|r^2|0> [a.u.]:                    [  -0.000000,    0.000000,    0.000000]

  Dip. moment [a.u.]:                  [  -0.000000,    0.000000,   -0.290212]
  Total dipole [Debye]:                                               0.737646
  <r^2> [a.u.]:                        [  30.854739,   33.170403,   89.183484]
  Total <r^2> [a.u.]:                                               153.208625

  V1^2 = 0.9281, V2^2 = 0.0719

  Important amplitudes:
      occ i      occ j       vir a       vir b          v   
    ---------------------------------------------------------
     6 (A1) A               5 (B2) A                 -0.6627
     6 (A1) A               6 (B2) A                 -0.1353
    ---------------------------------------------------------

  Density matrix analysis:
  ------------------------
  NOs
    Occupation of frontier NOs:
       0.9829   0.9911
    Number of electrons: 18.000000
    Number of unpaired electrons: n_u =  2.44032, n_u,nl =  2.05497
    NO participation ratio (PR_NO):  3.033585
  
  
  Mulliken Population Analysis
  Atom      Charge (e)              h+              e-           Del q
  --------------------------------------------------------------------
   1 C       -0.668683        0.732960       -0.426225        0.306735
   2 C       -0.698843        0.155217       -0.662605       -0.507388
   3 H        0.042988        0.003534       -0.016082       -0.012548
   4 H        0.091460       -0.013668       -0.061507       -0.075175
   5 H        0.042988        0.003534       -0.016082       -0.012548
   6 H        0.091460       -0.013668       -0.061507       -0.075175
   7 H        0.098628        0.415049       -0.038951        0.376098
  --------------------------------------------------------------------
  Sum:       -1.000000        1.282958       -1.282958        0.000000
  
  Multipole moment analysis of the density matrix
    Molecular charge:                      -1.000000
    Number of electrons:                   18.000000
      Center of electronic charge [Ang]: [  0.000000,  -0.000000,   0.008532]
    Total nuclear charge:                  17.000000
      Center of nuclear charge [Ang]:    [ -0.000000,   0.000000,  -0.000000]
    Dipole moment [D]:                     0.737646
      Cartesian components [D]:          [ -0.000000,   0.000000,  -0.737646]
    RMS size of the density [Ang]:         1.543831
      Cartesian components [Ang]:        [  0.692829,   0.718357,   1.177866]
  
  Exciton analysis of the difference density matrix
    <r_h> [Ang]:                  [  0.000000,   0.000000,  -2.288530]
    <r_e> [Ang]:                  [  0.000000,  -0.000000,  -0.163349]
    |<r_e - r_h>| [Ang]:            2.125180
    Hole size [Ang]:                2.178843
      Cartesian components [Ang]: [  1.040555,   1.047313,   1.602416]
    Electron size [Ang]:            2.881297
      Cartesian components [Ang]: [  1.293615,   2.102440,   1.485994]

  Transition density matrix analysis:
  -----------------------------------
  
  CT numbers (Mulliken)
    omega =     0.9119
    <Phe> =    -0.0007
  
  Exciton analysis of the transition density matrix
    Trans. dipole moment [D]:             0.008506
      Cartesian components [D]:         [ -0.000000,  -0.008506,   0.000000]
    <r_h> [Ang]:                        [ -0.000000,   0.000000,  -2.823799]
    <r_e> [Ang]:                        [ -0.000000,  -0.000000,   0.112618]
    |<r_e - r_h>| [Ang]:                  2.936416
    Hole size [Ang]:                      1.625344
      Cartesian components [Ang]:       [  0.905822,   0.910831,   0.995799]
    Electron size [Ang]:                  3.007253
      Cartesian components [Ang]:       [  1.344257,   2.323871,   1.355052]
    RMS electron-hole separation [Ang]:   4.504728
      Cartesian components [Ang]:       [  1.620933,   2.495235,   3.382152]
    Covariance(r_h, r_e) [Ang^2]:         0.007641
    Correlation coefficient:              0.001563
    Center-of-mass size [Ang]:            1.710307
      Cartesian components [Ang]:       [  0.810502,   1.248377,   0.842490]

  Decomposition into state-averaged NTOs
    H- 0 -> L+ 4: -0.5987 ( 71.7%)
    H- 0 -> L+ 3: -0.2777 ( 15.4%)
    H- 0 -> L+ 8:  0.1183 (  2.8%)
                   omega =  91.2%
  ----------------------------------------------------------------------------


  Excited state 7 (singlet, B2)                                    [converged]
  ----------------------------------------------------------------------------
  Term symbol:  7 (1) B2                                    R^2 =  7.16903e-08

  Total energy:                                            -78.4553364785 a.u.
  Excitation energy:                                               9.614072 eV

  Osc. strength:                                                      0.000349
  Trans. dip. moment [a.u.]:           [  -0.000000,   -0.038515,    0.000000]
  <i|r^2|0> [a.u.]:                    [   0.000000,    0.000000,    0.000000]

  Dip. moment [a.u.]:                  [  -0.000000,   -0.000000,    4.294999]
  Total dipole [Debye]:                                              10.916800
  <r^2> [a.u.]:                        [  28.352776,   22.483384,  115.726416]
  Total <r^2> [a.u.]:                                               166.562576

  V1^2 = 0.9491, V2^2 = 0.0509

  Important amplitudes:
      occ i      occ j       vir a       vir b          v   
    ---------------------------------------------------------
     5 (A1) A               4 (B2) A                 -0.5117
     5 (A1) A               2 (B2) A                  0.2998
    ---------------------------------------------------------

  Density matrix analysis:
  ------------------------
  NOs
    Occupation of frontier NOs:
       0.9780   1.0202
    Number of electrons: 18.000000
    Number of unpaired electrons: n_u =  2.43121, n_u,nl =  2.05047
    NO participation ratio (PR_NO):  3.062212
  
  
  Mulliken Population Analysis
  Atom      Charge (e)              h+              e-           Del q
  --------------------------------------------------------------------
   1 C       -1.092169        0.466014       -0.582765       -0.116751
   2 C       -0.341252        0.400948       -0.550744       -0.149797
   3 H        0.123521        0.075520       -0.007535        0.067985
   4 H        0.231031        0.073536       -0.009140        0.064396
   5 H        0.123521        0.075520       -0.007535        0.067985
   6 H        0.231031        0.073536       -0.009140        0.064396
   7 H       -0.275683        0.014702       -0.012915        0.001787
  --------------------------------------------------------------------
  Sum:       -1.000000        1.179774       -1.179774       -0.000000
  
  Multipole moment analysis of the density matrix
    Molecular charge:                      -1.000000
    Number of electrons:                   18.000000
      Center of electronic charge [Ang]: [  0.000000,   0.000000,  -0.126268]
    Total nuclear charge:                  17.000000
      Center of nuclear charge [Ang]:    [ -0.000000,   0.000000,  -0.000000]
    Dipole moment [D]:                     10.916796
      Cartesian components [D]:          [ -0.000000,  -0.000000,  10.916796]
    RMS size of the density [Ang]:         1.604772
      Cartesian components [Ang]:        [  0.664145,   0.591420,   1.335825]
  
  Exciton analysis of the difference density matrix
    <r_h> [Ang]:                  [  0.000000,  -0.000000,   0.021678]
    <r_e> [Ang]:                  [  0.000000,   0.000000,   0.276072]
    |<r_e - r_h>| [Ang]:            0.254394
    Hole size [Ang]:                1.565905
      Cartesian components [Ang]: [  0.720488,   0.591951,   1.257994]
    Electron size [Ang]:            1.935189
      Cartesian components [Ang]: [  0.753385,   1.194911,   1.322707]

  Transition density matrix analysis:
  -----------------------------------
  
  CT numbers (Mulliken)
    omega =     0.9185
    <Phe> =    -0.0164
  
  Exciton analysis of the transition density matrix
    Trans. dipole moment [D]:             0.048948
      Cartesian components [D]:         [ -0.000000,  -0.048948,   0.000000]
    <r_h> [Ang]:                        [ -0.000000,  -0.000000,   0.029552]
    <r_e> [Ang]:                        [ -0.000000,   0.000000,   0.310161]
    |<r_e - r_h>| [Ang]:                  0.280610
    Hole size [Ang]:                      1.354203
      Cartesian components [Ang]:       [  0.601599,   0.427333,   1.135487]
    Electron size [Ang]:                  1.991280
      Cartesian components [Ang]:       [  0.763155,   1.261445,   1.338486]
    RMS electron-hole separation [Ang]:   2.407566
      Cartesian components [Ang]:       [  0.972168,   1.330362,   1.755392]
    Covariance(r_h, r_e) [Ang^2]:         0.040713
    Correlation coefficient:              0.015098
    Center-of-mass size [Ang]:            1.212486
      Cartesian components [Ang]:       [  0.485681,   0.666681,   0.888692]

  Decomposition into state-averaged NTOs
    H- 2 -> L+ 0: -0.6705 ( 89.9%)
                   omega =  91.8%
  ----------------------------------------------------------------------------


  Excited state 8 (singlet, B2)                                    [converged]
  ----------------------------------------------------------------------------
  Term symbol:  8 (1) B2                                    R^2 =  3.08365e-08

  Total energy:                                            -78.4361328050 a.u.
  Excitation energy:                                              10.136630 eV

  Osc. strength:                                                      0.037755
  Trans. dip. moment [a.u.]:           [   0.000000,    0.389905,    0.000000]
  <i|r^2|0> [a.u.]:                    [   0.000000,    0.000000,    0.000000]

  Dip. moment [a.u.]:                  [   0.000000,    0.000000,    4.607368]
  Total dipole [Debye]:                                              11.710765
  <r^2> [a.u.]:                        [  36.383817,   22.935170,  128.086283]
  Total <r^2> [a.u.]:                                               187.405269

  V1^2 = 0.9454, V2^2 = 0.0546

  Important amplitudes:
      occ i      occ j       vir a       vir b          v   
    ---------------------------------------------------------
     1 (B2) A              10 (A1) A                 -0.5514
     1 (B2) A               9 (A1) A                  0.3064
    ---------------------------------------------------------

  Density matrix analysis:
  ------------------------
  NOs
    Occupation of frontier NOs:
       0.9702   0.9973
    Number of electrons: 18.000000
    Number of unpaired electrons: n_u =  2.39595, n_u,nl =  2.03813
    NO participation ratio (PR_NO):  2.949738
  
  
  Mulliken Population Analysis
  Atom      Charge (e)              h+              e-           Del q
  --------------------------------------------------------------------
   1 C        1.400466        0.487001        1.888883        2.375884
   2 C       -2.557467        0.584998       -2.951009       -2.366012
   3 H       -0.008459        0.075876       -0.139871       -0.063995
   4 H        0.241827        0.077030       -0.001838        0.075191
   5 H       -0.008459        0.075876       -0.139871       -0.063995
   6 H        0.241827        0.077030       -0.001838        0.075191
   7 H       -0.309735        0.012704       -0.044969       -0.032265
  --------------------------------------------------------------------
  Sum:       -1.000000        1.390515       -1.390515       -0.000000
  
  Multipole moment analysis of the density matrix
    Molecular charge:                      -1.000000
    Number of electrons:                   18.000000
      Center of electronic charge [Ang]: [ -0.000000,  -0.000000,  -0.135451]
    Total nuclear charge:                  17.000000
      Center of nuclear charge [Ang]:    [ -0.000000,   0.000000,  -0.000000]
    Dipole moment [D]:                     11.710761
      Cartesian components [D]:          [  0.000000,   0.000000,  11.710761]
    RMS size of the density [Ang]:         1.702100
      Cartesian components [Ang]:        [  0.752348,   0.597332,   1.405101]
  
  Exciton analysis of the difference density matrix
    <r_h> [Ang]:                  [  0.000000,  -0.000000,   0.159596]
    <r_e> [Ang]:                  [ -0.000000,  -0.000000,   0.256559]
    |<r_e - r_h>| [Ang]:            0.096963
    Hole size [Ang]:                1.719260
      Cartesian components [Ang]: [  0.805433,   0.907899,   1.217725]
    Electron size [Ang]:            2.876478
      Cartesian components [Ang]: [  1.518944,   1.352547,   2.034097]

  Transition density matrix analysis:
  -----------------------------------
  
  CT numbers (Mulliken)
    omega =     0.9133
    <Phe> =    -0.0040
  
  Exciton analysis of the transition density matrix
    Trans. dipole moment [D]:             0.495520
      Cartesian components [D]:         [  0.000000,   0.495520,   0.000000]
    <r_h> [Ang]:                        [ -0.000000,  -0.000000,   0.243909]
    <r_e> [Ang]:                        [ -0.000000,  -0.000000,   0.341303]
    |<r_e - r_h>| [Ang]:                  0.097394
    Hole size [Ang]:                      1.304766
      Cartesian components [Ang]:       [  0.525896,   0.880539,   0.806537]
    Electron size [Ang]:                  3.252427
      Cartesian components [Ang]:       [  1.738212,   1.546870,   2.272465]
    RMS electron-hole separation [Ang]:   3.498552
      Cartesian components [Ang]:       [  1.814210,   1.775061,   2.407834]
    Covariance(r_h, r_e) [Ang^2]:         0.025160
    Correlation coefficient:              0.005929
    Center-of-mass size [Ang]:            1.755778
      Cartesian components [Ang]:       [  0.908919,   0.892394,   1.208409]

  Decomposition into state-averaged NTOs
    H- 1 -> L+ 6:  0.4318 ( 37.3%)
    H- 1 -> L+ 7: -0.4027 ( 32.4%)
    H- 1 -> L+ 5: -0.3106 ( 19.3%)
                   omega =  91.3%
  ----------------------------------------------------------------------------


  Excited state 9 (singlet, B2)                                    [converged]
  ----------------------------------------------------------------------------
  Term symbol:  9 (1) B2                                    R^2 =  6.12165e-08

  Total energy:                                            -78.4267719216 a.u.
  Excitation energy:                                              10.391353 eV

  Osc. strength:                                                      0.078959
  Trans. dip. moment [a.u.]:           [   0.000000,    0.556911,   -0.000000]
  <i|r^2|0> [a.u.]:                    [  -0.000000,   -0.000000,    0.000000]

  Dip. moment [a.u.]:                  [   0.000000,   -0.000000,    3.712649]
  Total dipole [Debye]:                                               9.436614
  <r^2> [a.u.]:                        [  33.387323,   22.740076,  120.922345]
  Total <r^2> [a.u.]:                                               177.049744

  V1^2 = 0.9510, V2^2 = 0.0490

  Important amplitudes:
      occ i      occ j       vir a       vir b          v   
    ---------------------------------------------------------
     1 (B2) A              11 (A1) A                  0.6122
     1 (B2) A              10 (A1) A                  0.2046
    ---------------------------------------------------------

  Density matrix analysis:
  ------------------------
  NOs
    Occupation of frontier NOs:
       0.9401   1.0225
    Number of electrons: 18.000000
    Number of unpaired electrons: n_u =  2.40845, n_u,nl =  2.05033
    NO participation ratio (PR_NO):  3.127540
  
  
  Mulliken Population Analysis
  Atom      Charge (e)              h+              e-           Del q
  --------------------------------------------------------------------
   1 C       -0.815737        0.700066       -0.540384        0.159681
   2 C       -0.149444        0.363505       -0.321494        0.042011
   3 H        0.047645        0.063035       -0.070926       -0.007891
   4 H        0.069574        0.046757       -0.143818       -0.097061
   5 H        0.047645        0.063035       -0.070926       -0.007891
   6 H        0.069574        0.046757       -0.143818       -0.097061
   7 H       -0.269258        0.018832       -0.010620        0.008212
  --------------------------------------------------------------------
  Sum:       -1.000000        1.301987       -1.301987       -0.000000
  
  Multipole moment analysis of the density matrix
    Molecular charge:                      -1.000000
    Number of electrons:                   18.000000
      Center of electronic charge [Ang]: [ -0.000000,   0.000000,  -0.109147]
    Total nuclear charge:                  17.000000
      Center of nuclear charge [Ang]:    [ -0.000000,   0.000000,  -0.000000]
    Dipole moment [D]:                     9.436611
      Cartesian components [D]:          [  0.000000,  -0.000000,   9.436611]
    RMS size of the density [Ang]:         1.656042
      Cartesian components [Ang]:        [  0.720702,   0.594786,   1.367221]
  
  Exciton analysis of the difference density matrix
    <r_h> [Ang]:                  [  0.000000,  -0.000000,   0.161343]
    <r_e> [Ang]:                  [  0.000000,   0.000000,   0.628547]
    |<r_e - r_h>| [Ang]:            0.467204
    Hole size [Ang]:                1.734531
      Cartesian components [Ang]: [  0.785681,   0.919147,   1.243571]
    Electron size [Ang]:            2.476951
      Cartesian components [Ang]: [  1.320625,   1.369786,   1.585851]

  Transition density matrix analysis:
  -----------------------------------
  
  CT numbers (Mulliken)
    omega =     0.9197
    <Phe> =    -0.0080
  
  Exciton analysis of the transition density matrix
    Trans. dipole moment [D]:             0.707763
      Cartesian components [D]:         [  0.000000,   0.707763,  -0.000000]
    <r_h> [Ang]:                        [ -0.000000,  -0.000000,   0.153334]
    <r_e> [Ang]:                        [ -0.000000,   0.000000,   0.758355]
    |<r_e - r_h>| [Ang]:                  0.605021
    Hole size [Ang]:                      1.422261
      Cartesian components [Ang]:       [  0.541730,   0.881470,   0.975893]
    Electron size [Ang]:                  2.686271
      Cartesian components [Ang]:       [  1.462916,   1.518571,   1.664292]
    RMS electron-hole separation [Ang]:   3.070600
      Cartesian components [Ang]:       [  1.556412,   1.745463,   1.989854]
    Covariance(r_h, r_e) [Ang^2]:         0.088173
    Correlation coefficient:              0.023078
    Center-of-mass size [Ang]:            1.534212
      Cartesian components [Ang]:       [  0.781788,   0.883099,   0.981198]

  Decomposition into state-averaged NTOs
    H- 1 -> L+ 7: -0.4513 ( 40.7%)
    H- 1 -> L+ 5:  0.3003 ( 18.0%)
    H- 1 -> L+ 2:  0.2811 ( 15.8%)
    H- 1 -> L+ 6: -0.2556 ( 13.1%)
    H- 0 -> L+ 8:  0.1321 (  3.5%)
                   omega =  92.0%
  ----------------------------------------------------------------------------


  Excited state 10 (singlet, B2)                                    [converged]
  ----------------------------------------------------------------------------
  Term symbol:  10 (1) B2                                   R^2 =  1.06908e-06

  Total energy:                                            -78.4161957616 a.u.
  Excitation energy:                                              10.679145 eV

  Osc. strength:                                                      0.013232
  Trans. dip. moment [a.u.]:           [   0.000000,   -0.224885,    0.000000]
  <i|r^2|0> [a.u.]:                    [  -0.000000,    0.000000,    0.000000]

  Dip. moment [a.u.]:                  [  -0.000000,    0.000000,    0.208652]
  Total dipole [Debye]:                                               0.530342
  <r^2> [a.u.]:                        [  30.011477,   29.006464,  101.496820]
  Total <r^2> [a.u.]:                                               160.514761

  V1^2 = 0.9194, V2^2 = 0.0806

  Important amplitudes:
      occ i      occ j       vir a       vir b          v   
    ---------------------------------------------------------
     6 (A1) A               6 (B2) A                  0.6043
     5 (A1) A               2 (B2) A                 -0.1833
    ---------------------------------------------------------

  Density matrix analysis:
  ------------------------
  NOs
    Occupation of frontier NOs:
       0.8275   1.1241
    Number of electrons: 18.000000
    Number of unpaired electrons: n_u =  2.50541, n_u,nl =  2.11208
    NO participation ratio (PR_NO):  4.163035
  
  
  Mulliken Population Analysis
  Atom      Charge (e)              h+              e-           Del q
  --------------------------------------------------------------------
   1 C       -0.915692        0.647801       -0.588075        0.059727
   2 C       -0.489530        0.171033       -0.469108       -0.298075
   3 H        0.062215        0.016304       -0.009625        0.006679
   4 H        0.117902       -0.012349       -0.036384       -0.048733
   5 H        0.062215        0.016304       -0.009625        0.006679
   6 H        0.117902       -0.012349       -0.036384       -0.048733
   7 H        0.044988        0.361120       -0.038662        0.322458
  --------------------------------------------------------------------
  Sum:       -1.000000        1.187863       -1.187863       -0.000000
  
  Multipole moment analysis of the density matrix
    Molecular charge:                      -1.000000
    Number of electrons:                   18.000000
      Center of electronic charge [Ang]: [  0.000000,  -0.000000,  -0.006134]
    Total nuclear charge:                  17.000000
      Center of nuclear charge [Ang]:    [ -0.000000,   0.000000,  -0.000000]
    Dipole moment [D]:                     0.530342
      Cartesian components [D]:          [ -0.000000,   0.000000,   0.530342]
    RMS size of the density [Ang]:         1.580226
      Cartesian components [Ang]:        [  0.683296,   0.671757,   1.256568]
  
  Exciton analysis of the difference density matrix
    <r_h> [Ang]:                  [  0.000000,   0.000000,  -2.015366]
    <r_e> [Ang]:                  [  0.000000,  -0.000000,   0.057709]
    |<r_e - r_h>| [Ang]:            2.073075
    Hole size [Ang]:                2.280250
      Cartesian components [Ang]: [  0.997691,   1.014946,   1.781582]
    Electron size [Ang]:            3.031751
      Cartesian components [Ang]: [  1.197735,   1.907340,   2.029532]

  Transition density matrix analysis:
  -----------------------------------
  
  CT numbers (Mulliken)
    omega =     0.9018
    <Phe> =    -0.0061
  
  Exciton analysis of the transition density matrix
    Trans. dipole moment [D]:             0.285800
      Cartesian components [D]:         [  0.000000,  -0.285800,   0.000000]
    <r_h> [Ang]:                        [ -0.000000,   0.000000,  -2.370921]
    <r_e> [Ang]:                        [  0.000000,  -0.000000,   0.270974]
    |<r_e - r_h>| [Ang]:                  2.641896
    Hole size [Ang]:                      1.914195
      Cartesian components [Ang]:       [  0.863839,   0.876628,   1.466100]
    Electron size [Ang]:                  3.126333
      Cartesian components [Ang]:       [  1.218429,   2.034086,   2.037617]
    RMS electron-hole separation [Ang]:   4.463885
      Cartesian components [Ang]:       [  1.493165,   2.217208,   3.575013]
    Covariance(r_h, r_e) [Ang^2]:         0.245722
    Correlation coefficient:              0.041060
    Center-of-mass size [Ang]:            1.866115
      Cartesian components [Ang]:       [  0.746999,   1.106340,   1.303990]

  Decomposition into state-averaged NTOs
    H- 0 -> L+ 8:  0.6059 ( 73.4%)
    H- 2 -> L+ 1:  0.1877 (  7.0%)
    H- 1 -> L+ 7:  0.1233 (  3.0%)
    H- 0 -> L+ 4:  0.1061 (  2.3%)
    H- 1 -> L+ 9: -0.0989 (  2.0%)
                   omega =  90.2%
  ----------------------------------------------------------------------------


--------------------------------------------------------------------------------
  Time of ADC calculation:  CPU 131.87 s  wall 39.13 s
================================================================================
 
 --------------------------------------------------------------
             Orbital Energies (a.u.) and Symmetries
 --------------------------------------------------------------
 
 Alpha MOs, Restricted
 -- Occupied --                  
-11.075 -11.071  -0.882  -0.620  -0.501  -0.405  -0.353  -0.219
  1 A1    2 A1    3 A1    4 A1    1 B1    5 A1    2 B1    1 B2                 
 -0.034
  6 A1                                                                         
 -- Virtual --                   
  0.163   0.183   0.190   0.234   0.234   0.253   0.315   0.325
  7 A1    3 B1    2 B2    3 B2    4 B1    8 A1    9 A1    4 B2                 
  0.336   0.404   0.430   0.446   0.466   0.473   0.495   0.507
 10 A1   11 A1    5 B1   12 A1    5 B2    6 B1    7 B1   13 A1                 
  0.564   0.583   0.702   0.766   0.984   1.009   1.077   1.091
  6 B2   14 A1    8 B1   15 A1   16 A1    9 B1   17 A1   18 A1                 
  1.122   1.157   1.189   1.212   1.232   1.273   1.284   1.325
 19 A1   10 B1   11 B1   20 A1    7 B2    1 A2    8 B2   21 A1                 
  1.446   1.449   1.480   1.584   1.764   1.789   1.852   1.884
  2 A2    9 B2   22 A1   12 B1   23 A1   13 B1   14 B1   10 B2                 
  1.984   2.029   2.058   2.107   2.177   2.225   2.256   2.300
 15 B1   11 B2   24 A1   12 B2    3 A2   25 A1   16 B1   26 A1                 
  2.344   2.525   2.573   2.630   2.744   2.744   2.990   2.996
 13 B2   27 A1    4 A2   28 A1   29 A1   17 B1   18 B1   30 A1                 
  3.441   3.505
 31 A1   19 B1                                                                 
 
 Beta MOs, Restricted
 -- Occupied --                  
-11.075 -11.071  -0.882  -0.620  -0.501  -0.405  -0.353  -0.219
  1 A1    2 A1    3 A1    4 A1    1 B1    5 A1    2 B1    1 B2                 
 -0.034
  6 A1                                                                         
 -- Virtual --                   
  0.163   0.183   0.190   0.234   0.234   0.253   0.315   0.325
  7 A1    3 B1    2 B2    3 B2    4 B1    8 A1    9 A1    4 B2                 
  0.336   0.404   0.430   0.446   0.466   0.473   0.495   0.507
 10 A1   11 A1    5 B1   12 A1    5 B2    6 B1    7 B1   13 A1                 
  0.564   0.583   0.702   0.766   0.984   1.009   1.077   1.091
  6 B2   14 A1    8 B1   15 A1   16 A1    9 B1   17 A1   18 A1                 
  1.122   1.157   1.189   1.212   1.232   1.273   1.284   1.325
 19 A1   10 B1   11 B1   20 A1    7 B2    1 A2    8 B2   21 A1                 
  1.446   1.449   1.480   1.584   1.764   1.789   1.852   1.884
  2 A2    9 B2   22 A1   12 B1   23 A1   13 B1   14 B1   10 B2                 
  1.984   2.029   2.058   2.107   2.177   2.225   2.256   2.300
 15 B1   11 B2   24 A1   12 B2    3 A2   25 A1   16 B1   26 A1                 
  2.344   2.525   2.573   2.630   2.744   2.744   2.990   2.996
 13 B2   27 A1    4 A2   28 A1   29 A1   17 B1   18 B1   30 A1                 
  3.441   3.505
 31 A1   19 B1                                                                 
 --------------------------------------------------------------
 
          Ground-State Mulliken Net Atomic Charges

     Atom                 Charge (a.u.)
  ----------------------------------------
      1 C                    -0.980909
      2 C                    -0.126692
      3 H                     0.048377
      4 H                     0.163805
      5 H                     0.048377
      6 H                     0.163805
      7 H                    -0.316764
  ----------------------------------------
  Sum of atomic charges =    -1.000000

 -----------------------------------------------------------------
                    Cartesian Multipole Moments
 -----------------------------------------------------------------
    Charge (ESU x 10^10)
                -4.8032
    Dipole Moment (Debye)
         X      -0.0000      Y       0.0000      Z      12.3759
       Tot      12.3759
    Quadrupole Moments (Debye-Ang)
        XX     -19.6498     XY       0.0000     YY     -24.0080
        XZ       0.0000     YZ       0.0000     ZZ     -62.0631
    Octopole Moments (Debye-Ang^2)
       XXX      -0.0000    XXY       0.0000    XYY      -0.0000
       YYY       0.0000    XXZ      17.0982    XYZ      -0.0000
       YYZ      16.9902    XZZ      -0.0000    YZZ      -0.0000
       ZZZ     161.7611
    Hexadecapole Moments (Debye-Ang^3)
      XXXX     -61.4149   XXXY       0.0000   XXYY     -20.7680
      XYYY       0.0000   YYYY     -57.9096   XXXZ       0.0000
      XXYZ       0.0000   XYYZ       0.0000   YYYZ       0.0000
      XXZZ     -86.1839   XYZZ      -0.0000   YYZZ     -89.7032
      XZZZ       0.0000   YZZZ       0.0000   ZZZZ    -750.7346
 -----------------------------------------------------------------
 Total job time:  121.82s(wall), 178.01s(cpu) 
 Fri Mar 25 14:15:20 2022

        *************************************************************
        *                                                           *
        *  Thank you very much for using Q-Chem.  Have a nice day.  *
        *                                                           *
        *************************************************************


