/src/tsommerfeld/qchem/exe/qcprog.exe .input1.525641.324.qcin.1 /src/jdavis/qchem.scratch/qchem324/

                  Welcome to Q-Chem
     A Quantum Leap Into The Future Of Chemistry


 Q-Chem 5.4 (devel), Q-Chem, Inc., Pleasanton, CA (2021)

 E. Epifanovsky,  A. T. B. Gilbert,  Xintian Feng,  Joonho Lee,  Yuezhi Mao,  
 N. Mardirossian,  P. Pokhilko,  A. White,  M. Wormit,  M. P. Coons,  
 A. L. Dempwolff,  Zhengting Gan,  D. Hait,  P. R. Horn,  L. D. Jacobson,  
 I. Kaliman,  J. Kussmann,  A. W. Lange,  Ka Un Lao,  D. S. Levine,  Jie Liu,  
 S. C. McKenzie,  A. F. Morrison,  K. Nanda,  F. Plasser,  D. R. Rehn,  
 M. L. Vidal,  Zhi-Qiang You,  Ying Zhu,  B. Alam,  B. Albrecht,  
 A. Aldossary,  E. Alguire,  J. H. Andersen,  D. Barton,  K. Begam,  A. Behn,  
 Y. A. Bernard,  E. J. Berquist,  H. Burton,  A. Carreras,  K. Carter-Fenk,  
 R. Chakraborty,  A. D. Chien,  K. D. Closser,  V. Cofer-Shabica,  
 S. Dasgupta,  Jia Deng,  M. de Wergifosse,  M. Diedenhofen,  Hainam Do,  
 S. Ehlert,  Po-Tung Fang,  S. Fatehi,  Qingguo Feng,  T. Friedhoff,  
 J. Gayvert,  Qinghui Ge,  G. Gidofalvi,  M. Goldey,  J. Gomes,  
 C. Gonzalez-Espinoza,  S. Gulania,  A. Gunina,  M. W. D. Hanson-Heine,  
 P. H. P. Harbach,  A. W. Hauser,  M. F. Herbst,  M. Hernandez Vera,  
 M. Hodecker,  Z. C. Holden,  S. Houck,  Xunkun Huang,  Kerwin Hui,  
 B. C. Huynh,  M. Ivanov,  Hyunjun Ji,  Hanjie Jiang,  B. Kaduk,  S. Kaehler,  
 K. Khistyaev,  Jaehoon Kim,  P. Klunzinger,  Z. Koczor-Benda,  
 Joong Hoon Koh,  D. Kosenkov,  L. Koulias,  T. Kowalczyk,  C. M. Krauter,  
 K. Kue,  A. Kunitsa,  T. Kus,  A. Landau,  K. V. Lawler,  D. Lefrancois,  
 S. Lehtola,  Rain Li,  Yi-Pei Li,  Jiashu Liang,  M. Liebenthal,  
 Hung-Hsuan Lin,  You-Sheng Lin,  Fenglai Liu,  Kuan-Yu Liu,  
 M. Loipersberger,  A. Luenser,  A. Manjanath,  P. Manohar,  E. Mansoor,  
 S. F. Manzer,  Shan-Ping Mao,  A. V. Marenich,  T. Markovich,  S. Mason,  
 S. A. Maurer,  P. F. McLaughlin,  M. F. S. J. Menger,  J.-M. Mewes,  
 S. A. Mewes,  P. Morgante,  J. W. Mullinax,  K. J. Oosterbaan,  G. Paran,  
 Alexander C. Paul,  Suranjan K. Paul,  F. Pavosevic,  Zheng Pei,  S. Prager,  
 E. I. Proynov,  E. Ramos,  B. Rana,  A. E. Rask,  A. Rettig,  R. M. Richard,  
 F. Rob,  E. Rossomme,  T. Scheele,  M. Scheurer,  M. Schneider,  
 N. Sergueev,  S. M. Sharada,  W. Skomorowski,  D. W. Small,  C. J. Stein,  
 Yu-Chuan Su,  E. J. Sundstrom,  Zhen Tao,  J. Thirman,  T. Tsuchimochi,  
 N. M. Tubman,  S. P. Veccham,  O. Vydrov,  J. Wenzel,  J. Witte,  A. Yamada,  
 Kun Yao,  S. Yeganeh,  S. R. Yost,  A. Zech,  Igor Ying Zhang,  Xing Zhang,  
 Yu Zhang,  D. Zuev,  A. Aspuru-Guzik,  A. T. Bell,  N. A. Besley,  
 K. B. Bravaya,  B. R. Brooks,  D. Casanova,  Jeng-Da Chai,  S. Coriani,  
 C. J. Cramer,  A. E. DePrince, III,  R. A. DiStasio Jr.,  A. Dreuw,  
 B. D. Dunietz,  T. R. Furlani,  W. A. Goddard III,  S. Grimme,  
 S. Hammes-Schiffer,  T. Head-Gordon,  W. J. Hehre,  Chao-Ping Hsu,  
 T.-C. Jagau,  Yousung Jung,  A. Klamt,  Jing Kong,  D. S. Lambrecht,  
 WanZhen Liang,  N. J. Mayhall,  C. W. McCurdy,  J. B. Neaton,  
 C. Ochsenfeld,  J. A. Parkhill,  R. Peverati,  V. A. Rassolov,  Yihan Shao,  
 L. V. Slipchenko,  T. Stauch,  R. P. Steele,  J. E. Subotnik,  
 A. J. W. Thom,  A. Tkatchenko,  D. G. Truhlar,  T. Van Voorhis,  
 T. A. Wesolowski,  K. B. Whaley,  H. L. Woodcock III,  P. M. Zimmerman,  
 S. Faraji,  P. M. W. Gill,  M. Head-Gordon,  J. M. Herbert,  A. I. Krylov

 Additional authors for Version 5.4.1: 
 S. Kotaru,  Shaozhi Li,  Xiangyuan Li,  F. Matz,  A. Molle,  Haisheng Ren,  
 Yingli Su,  Hung-Yi Tsai,  C. Utku,  Fang Wang

 Contributors to earlier versions of Q-Chem not listed above: 
 R. D. Adamson,  B. Austin,  R. Baer,  J. Baker,  G. J. O. Beran,  
 K. Brandhorst,  S. T. Brown,  E. F. C. Byrd,  A. K. Chakraborty,  
 G. K. L. Chan,  Chun-Min Chang,  Yunqing Chen,  C.-L. Cheng,  
 Siu Hung Chien,  D. M. Chipman,  D. L. Crittenden,  H. Dachsel,  
 R. J. Doerksen,  A. D. Dutoi,  R. G. Edgar,  J. Fosso-Tande,  
 L. Fusti-Molnar,  D. Ghosh,  A. Ghysels,  A. Golubeva-Zadorozhnaya,  
 J. Gonthier,  M. S. Gordon,  S. R. Gwaltney,  G. Hawkins,  J. E. Herr,  
 A. Heyden,  S. Hirata,  E. G. Hohenstein,  G. Kedziora,  F. J. Keil,  
 C. Kelley,  Jihan Kim,  R. A. King,  R. Z. Khaliullin,  P. P. Korambath,  
 W. Kurlancheek,  A. Laurent,  A. M. Lee,  M. S. Lee,  S. V. Levchenko,  
 Ching Yeh Lin,  D. Liotard,  E. Livshits,  R. C. Lochan,  I. Lotan,  
 L. A. Martinez-Martinez,  P. E. Maslen,  N. Nair,  D. P. O'Neill,  
 D. Neuhauser,  E. Neuscamman,  C. M. Oana,  R. Olivares-Amaya,  R. Olson,  
 T. M. Perrine,  B. Peters,  P. A. Pieniazek,  A. Prociuk,  Y. M. Rhee,  
 J. Ritchie,  M. A. Rohrdanz,  E. Rosta,  N. J. Russ,  H. F. Schaefer III,  
 M. W. Schmidt,  N. E. Schultz,  S. Sharma,  N. Shenvi,  C. D. Sherrill,  
 A. C. Simmonett,  A. Sodt,  T. Stein,  D. Stuck,  K. S. Thanthiriwatte,  
 V. Vanovschi,  L. Vogt,  Tao Wang,  A. Warshel,  M. A. Watson,  
 C. F. Williams,  Q. Wu,  X. Xu,  Jun Yang,  W. Zhang,  Yan Zhao

 Please cite Q-Chem as follows:
 Y. Shao et al., Mol. Phys. 113, 184-215 (2015)
 DOI: 10.1080/00268976.2014.952696

 Q-Chem 5.4.1 for Intel X86 EM64T Linux

 Parts of Q-Chem use Armadillo 9.900.5 (Nocturnal Misbehaviour).
 http://arma.sourceforge.net/

 Q-Chem begins on Fri Feb 25 15:25:49 2022  

 Host: node01
0

     Scratch files written to /src/jdavis/qchem.scratch/qchem324//
 Processing $rem in /src/tsommerfeld/qchem/config/preferences:
 Processing $rem in /home/jdavis/.qchemrc:

 Checking the input file for inconsistencies... 	...done.

--------------------------------------------------------------
User input:
--------------------------------------------------------------
$molecule
0 1
C        -0.6645000000    0.0000000000   -0.2082049804
C         0.6645000000    0.0000000000   -0.2082049804
H        -1.1590800000    0.0000000000    0.7541440196
H         1.1590800000    0.0000000000    0.7541440196
H        -1.1590800000    0.0000000000   -1.1705529804
H         1.1590800000    0.0000000000   -1.1705529804
$end

$rem
   METHOD adc(2)
   BASIS gen
   PURECART 11
   EA_STATES [0,0,10,0,0,0,0,0]
   scf_convergence 8
   ADC_DAVIDSON_MAXITER 120
   ADC_DAVIDSON_MAXSUBSPACE 200
   adc_nguess_singles 100
   THRESH 14
   S2THRESH 14
   adc_davidson_conv 5
   adc_davidson_thresh 14
   THREADS 10
   MEM_TOTAL 95000
   STATE_ANALYSIS TRUE
$end
$basis
C 1
S   9   1.00
      6.665000D+03           6.920000D-04
      1.000000D+03           5.329000D-03
      2.280000D+02           2.707700D-02
      6.471000D+01           1.017180D-01
      2.106000D+01           2.747400D-01
      7.495000D+00           4.485640D-01
      2.797000D+00           2.850740D-01
      5.215000D-01           1.520400D-02
      1.596000D-01          -3.191000D-03
S   9   1.00
      6.665000D+03          -1.460000D-04
      1.000000D+03          -1.154000D-03
      2.280000D+02          -5.725000D-03
      6.471000D+01          -2.331200D-02
      2.106000D+01          -6.395500D-02
      7.495000D+00          -1.499810D-01
      2.797000D+00          -1.272620D-01
      5.215000D-01           5.445290D-01
      1.596000D-01           5.804960D-01
S   1   1.00
      1.596000D-01           1.000000D+00
S   1   1.00
      0.0469000              1.0000000
P   4   1.00
      9.439000D+00           3.810900D-02
      2.002000D+00           2.094800D-01
      5.456000D-01           5.085570D-01
      1.517000D-01           4.688420D-01
P   1   1.00
      1.517000D-01           1.000000D+00
P   1   1.00
      0.0661256      1.0000000
P   1   1.00
      0.0330628      1.0000000
D   1   1.00
      5.500000D-01           1.0000000
****
C 2
S   9   1.00
      6.665000D+03           6.920000D-04
      1.000000D+03           5.329000D-03
      2.280000D+02           2.707700D-02
      6.471000D+01           1.017180D-01
      2.106000D+01           2.747400D-01
      7.495000D+00           4.485640D-01
      2.797000D+00           2.850740D-01
      5.215000D-01           1.520400D-02
      1.596000D-01          -3.191000D-03
S   9   1.00
      6.665000D+03          -1.460000D-04
      1.000000D+03          -1.154000D-03
      2.280000D+02          -5.725000D-03
      6.471000D+01          -2.331200D-02
      2.106000D+01          -6.395500D-02
      7.495000D+00          -1.499810D-01
      2.797000D+00          -1.272620D-01
      5.215000D-01           5.445290D-01
      1.596000D-01           5.804960D-01
S   1   1.00
      1.596000D-01           1.000000D+00
S   1   1.00
      0.0469000              1.0000000
P   4   1.00
      9.439000D+00           3.810900D-02
      2.002000D+00           2.094800D-01
      5.456000D-01           5.085570D-01
      1.517000D-01           4.688420D-01
P   1   1.00
      1.517000D-01           1.000000D+00
P   1   1.00
      0.0661256      1.0000000
P   1   1.00
      0.0330628      1.0000000
D   1   1.00
      5.500000D-01           1.0000000
****
H 3
cc-pVDZ
****
H 4
cc-pVDZ
****
H 5
cc-pVDZ
****
H 6
cc-pVDZ
****
$end
--------------------------------------------------------------
 Atom   2: ( -0.6645000000, -0.0000001250,  0.0000000000)
         ->( -0.6645000000,  0.0000001250, -0.0000000000)
 Atom   1: (  0.6645000000, -0.0000001250, -0.0000000000)
         ->(  0.6645000000,  0.0000000000,  0.0000000000)
 Atom   6: ( -1.1590800000, -0.9623481250, -0.0000000000)
         ->( -1.1590800000, -0.9623488750,  0.0000000000)
 Atom   5: (  1.1590800000, -0.9623481250, -0.0000000000)
         ->(  1.1590800000, -0.9623488750, -0.0000000000)
 ----------------------------------------------------------------
             Standard Nuclear Orientation (Angstroms)
    I     Atom           X                Y                Z
 ----------------------------------------------------------------
    1      C       0.6645000000     0.0000000000     0.0000000000
    2      C      -0.6645000000     0.0000001250    -0.0000000000
    3      H       1.1590800000     0.9623488750     0.0000000000
    4      H      -1.1590800000     0.9623488750     0.0000000000
    5      H       1.1590800000    -0.9623488750    -0.0000000000
    6      H      -1.1590800000    -0.9623488750     0.0000000000
 ----------------------------------------------------------------
 Molecular Point Group                 D2h   NOp =  8
 Largest Abelian Subgroup              D2h   NOp =  8
 Nuclear Repulsion Energy =          33.58921667 hartrees
 There are        8 alpha and        8 beta electrons
 Requested basis set is non-standard
 There are 30 shells and 62 basis functions
 Total memory of 95000 MB is distributed as follows: 
   MEM_STATIC is set to 192 MB
   QALLOC/CCMAN JOB total memory use is  94808 MB
 Warning: actual memory use might exceed 95000 MB

 Total QAlloc Memory Limit  95000 MB
 Mega-Array Size       188 MB
 MEM_STATIC part       192 MB

                       Distance Matrix (Angstroms)
             C (  1)   C (  2)   H (  3)   H (  4)   H (  5)
   C (  2)  1.329000
   H (  3)  1.082000  2.061931
   H (  4)  2.061931  1.082000  2.318160
   H (  5)  1.082000  2.061931  1.924698  3.013026
   H (  6)  2.061931  1.082000  3.013026  1.924698  2.318160
 
 A cutoff of  1.0D-14 yielded    465 shell pairs
 There are      2009 function pairs (      2146 Cartesian)
 Smallest overlap matrix eigenvalue = 2.51E-04

 Scale SEOQF with 1.000000e-01/1.000000e-01/1.000000e-01

 Standard Electronic Orientation quadrupole field applied
 Nucleus-field energy     =     0.0000000006 hartrees
 ================ Generating on-the-fly SAD Guess ================
Attempting to make child job directory: /src/jdavis/qchem.scratch/qchem324//Frg1/
Attempting to make child job directory: /src/jdavis/qchem.scratch/qchem324//Frg2/
Creating input file /src/jdavis/qchem.scratch/qchem324/Frg1.input
using default PutDataFrgm: nothing
calling putenv with: QCSCRATCH=/src/jdavis/qchem.scratch/qchem324/ 
Spawning Job For Fragment 0
Done Job For Fragment 0
calling putenv with: QCSCRATCH=/src/jdavis/qchem.scratch 
calling putenv with: QCTHREADS=1 
Creating input file /src/jdavis/qchem.scratch/qchem324/Frg2.input
using default PutDataFrgm: nothing
calling putenv with: QCSCRATCH=/src/jdavis/qchem.scratch/qchem324/ 
Spawning Job For Fragment 1
Done Job For Fragment 1
calling putenv with: QCSCRATCH=/src/jdavis/qchem.scratch 
calling putenv with: QCTHREADS=1 
 Time for running child jobs:  CPU 1.81 s  wall 53.19 s
 ============= Method Specific SAD Guess Constructed =============
 Guess from on-the-fly superposition of atomic densities
 Warning: Energy on first SCF cycle will be non-variational
 A restricted Hartree-Fock SCF calculation will be
 performed using Pulay DIIS extrapolation
 SCF converges when DIIS error is below 1.0E-08
 using 10 threads for integral computing
 -------------------------------------------------------
 OpenMP Integral computing Module                
 Release: version 1.0, May 2013, Q-Chem Inc. Pittsburgh 
 -------------------------------------------------------
 ---------------------------------------
  Cycle       Energy         DIIS Error
 ---------------------------------------
    1     -78.4574943988      7.95E-02
    2     -78.0143307475      5.76E-03
    3     -78.0356416166      1.51E-03
    4     -78.0372769323      5.00E-04
    5     -78.0374471557      6.09E-05
    6     -78.0374520016      1.29E-05
    7     -78.0374523695      3.04E-06
    8     -78.0374524243      2.75E-07
    9     -78.0374524290      3.46E-08
   10     -78.0374524293      3.64E-09 Convergence criterion met
 ---------------------------------------
 SCF time:  CPU 8.44 s  wall 0.85 s
 SCF   energy in the final basis set = -78.03745243
 Total energy in the final basis set = -78.03745243
================================================================================
|                                                                              |
|                                 A D C  M A N                                 |
|                                                                              |
 ------------------------------------------------------------------------------ 
|                                                                              |
| Components:                                                                  |
|                                                                              |
| - libvmm - 1.3-trunk                                                         |
|   Authors:                                                                   |
|   Evgeny Epifanovsky, Ilya Kaliman                                           |
|                                                                              |
| - libtensor - 2.5-trunk                                                      |
|   Authors:                                                                   |
|   Evgeny Epifanovsky, Michael Wormit, Dmitry Zuev, Sam Manzer,               |
|   Ilya Kaliman                                                               |
|                                                                              |
| - libwfa - 1.1-trunk                                                         |
|   Authors:                                                                   |
|   Felix Plasser, Stefanie Mewes (Baeppler), Benjamin Thomitzni,              |
|   Michael Wormit, Feng Chen, Anna I. Krylov, Pavel Pokhilko                  |
|                                                                              |
| - libadc - 1.1-trunk                                                         |
|   Authors:                                                                   |
|   Michael Wormit, Adrian L. Dempwolff, Philipp H. P. Harbach,                |
|   Caroline Krauter, Dirk Rehn, Matthias Schneider, Jan Wenzel                |
|                                                                              |
| - adcman - 2.6-trunk                                                         |
|   Authors:                                                                   |
|   Michael Wormit, Adrian L. Dempwolff, Philipp H. P. Harbach,                |
|   Caroline Krauter, Daniel Lefrancois, Jan-Michael Mewes, Dirk Rehn,         |
|   Matthias Schneider, Jan Wenzel, Andreas Dreuw                              |
|                                                                              |
| Authors of earlier versions of ADCMAN:                                       |
| Andreas Dreuw, Jan Hendrik Starcke, Dirk Rehn, Michael Wormit                |
|                                                                              |
================================================================================

 
 Alpha MOs, Restricted
 -- Occupied --                  
-11.237 -11.235  -1.042  -0.782  -0.660  -0.567  -0.515  -0.377
  1 Ag    1 B3u   2 Ag    2 B3u   1 B2u   3 Ag    1 B1g   1 B1u                
 -- Virtual --                   
  0.060   0.068   0.077   0.081   0.087   0.093   0.124   0.164
  3 B3u   2 B2u   2 B1u   4 Ag    1 B2g   2 B1g   5 Ag    2 B2g                
  0.197   0.262   0.272   0.291   0.294   0.297   0.301   0.340
  4 B3u   6 Ag    3 B2u   5 B3u   3 B1g   7 Ag    3 B1u   4 B2u                
  0.365   0.381   0.550   0.603   0.815   0.859   0.896   0.931
  6 B3u   3 B2g   4 B1g   7 B3u   8 Ag    5 B2u   9 Ag    8 B3u                
  0.956   1.033   1.040   1.050   1.077   1.095   1.114   1.267
  6 B2u   4 B1u  10 Ag    5 B1g   4 B2g   9 B3u   1 B3g  10 B3u                
  1.285   1.287   1.391   1.617   1.630   1.720   1.867   1.942
  1 Au    5 B1u   6 B1g  11 Ag    7 B1g   7 B2u   5 B2g   6 B1u                
  1.947   2.017   2.047   2.083   2.178   2.324   2.412   2.462
 11 B3u   2 B3g  12 Ag    8 B2u   6 B2g  12 B3u   2 Au   13 Ag                 
  2.576   2.583   2.812   2.821   3.247   3.339
 13 B3u   8 B1g   9 B2u  14 Ag   14 B3u   9 B1g                                
 
 Beta MOs, Restricted
 -- Occupied --                  
-11.237 -11.235  -1.042  -0.782  -0.660  -0.567  -0.515  -0.377
  1 Ag    1 B3u   2 Ag    2 B3u   1 B2u   3 Ag    1 B1g   1 B1u                
 -- Virtual --                   
  0.060   0.068   0.077   0.081   0.087   0.093   0.124   0.164
  3 B3u   2 B2u   2 B1u   4 Ag    1 B2g   2 B1g   5 Ag    2 B2g                
  0.197   0.262   0.272   0.291   0.294   0.297   0.301   0.340
  4 B3u   6 Ag    3 B2u   5 B3u   3 B1g   7 Ag    3 B1u   4 B2u                
  0.365   0.381   0.550   0.603   0.815   0.859   0.896   0.931
  6 B3u   3 B2g   4 B1g   7 B3u   8 Ag    5 B2u   9 Ag    8 B3u                
  0.956   1.033   1.040   1.050   1.077   1.095   1.114   1.267
  6 B2u   4 B1u  10 Ag    5 B1g   4 B2g   9 B3u   1 B3g  10 B3u                
  1.285   1.287   1.391   1.617   1.630   1.720   1.867   1.942
  1 Au    5 B1u   6 B1g  11 Ag    7 B1g   7 B2u   5 B2g   6 B1u                
  1.947   2.017   2.047   2.083   2.178   2.324   2.412   2.462
 11 B3u   2 B3g  12 Ag    8 B2u   6 B2g  12 B3u   2 Au   13 Ag                 
  2.576   2.583   2.812   2.821   3.247   3.339
 13 B3u   8 B1g   9 B2u  14 Ag   14 B3u   9 B1g                                

--------------------------------------------------------------------------------
                                   HF Summary                                   
--------------------------------------------------------------------------------
  Energy:                                                  -78.0374524293 a.u.
  Dip. moment [a.u.]:                  [  -0.000000,   -0.000001,   -0.000000]
  Total dipole [Debye]:                                               0.000001
  <r^2> [a.u.]:                        [  47.720861,   22.124091,   11.988499]
  Total <r^2> [a.u.]:                                                81.833452
--------------------------------------------------------------------------------

--------------------------------------------------------------------------------
                                 MP(2) Summary                                  
--------------------------------------------------------------------------------
  MP energy contribution:                                   -0.2826190166 a.u.
  Total energy:                                            -78.3200714459 a.u.
  Dip. moment [a.u.]:                  [   0.000000,   -0.000001,   -0.000000]
  Total dipole [Debye]:                                               0.000001
  <r^2> [a.u.]:                        [  47.830949,   22.157372,   11.841700]
  Total <r^2> [a.u.]:                                                81.830022

  Density matrix analysis:
  ------------------------
  NOs (alpha)
    Occupation of frontier NOs:
       0.0224   0.9685
    Number of electrons:  8.000000
  NOs (beta)
    Occupation of frontier NOs:
       0.0224   0.9685
    Number of electrons:  8.000000
  NOs (spin-traced)
    Occupation of frontier NOs:
       0.0447   1.9371
    Number of electrons: 16.000000
    Number of unpaired electrons: n_u =  0.40930, n_u,nl =  0.04603
    NO participation ratio (PR_NO): 13.962017
  
  
  Mulliken Population Analysis
  Atom  Charge (e)    Spin (e)  h+ (alpha)   h+ (beta)  e- (alpha)   e- (beta)
  ----------------------------------------------------------------------------
   1 C   -0.184446    0.000000    0.043866    0.043866   -0.051251   -0.051251
   2 C   -0.184446   -0.000000    0.043866    0.043866   -0.051251   -0.051251
   3 H    0.092219    0.000000    0.008924    0.008924   -0.005232   -0.005232
   4 H    0.092232   -0.000000    0.008924    0.008924   -0.005232   -0.005232
   5 H    0.092227    0.000000    0.008924    0.008924   -0.005232   -0.005232
   6 H    0.092214    0.000000    0.008924    0.008924   -0.005232   -0.005232
  ----------------------------------------------------------------------------
  Sum:   -0.000000   -0.000000    0.123429    0.123429   -0.123429   -0.123429
  
  Multipole moment analysis of the density matrix
    Molecular charge:                      -0.000000
    Number of electrons:                   16.000000
      Center of electronic charge [Ang]: [ -0.000000,   0.000000,   0.000000]
    Total nuclear charge:                  16.000000
      Center of nuclear charge [Ang]:    [  0.000000,   0.000000,   0.000000]
    Dipole moment [D]:                     0.000001
      Cartesian components [D]:          [  0.000000,  -0.000001,  -0.000000]
    RMS size of the density [Ang]:         1.196734
      Cartesian components [Ang]:        [  0.914946,   0.622731,   0.455248]
  
  Exciton analysis of the difference density matrix
  Total:
    <r_h> [Ang]:                  [  0.000000,   0.000000,  -0.000000]
    <r_e> [Ang]:                  [  0.000000,   0.000000,   0.000000]
    |<r_e - r_h>| [Ang]:            0.000000
    Hole size [Ang]:                1.415575
      Cartesian components [Ang]: [  0.963214,   0.722714,   0.744149]
    Electron size [Ang]:            1.414200
      Cartesian components [Ang]: [  1.025993,   0.748377,   0.622281]
  
  Alpha spin:
    <r_h> [Ang]:                  [  0.000000,   0.000000,  -0.000000]
    <r_e> [Ang]:                  [  0.000000,   0.000000,   0.000000]
    |<r_e - r_h>| [Ang]:            0.000000
    Hole size [Ang]:                1.415575
      Cartesian components [Ang]: [  0.963214,   0.722714,   0.744149]
    Electron size [Ang]:            1.414200
      Cartesian components [Ang]: [  1.025993,   0.748377,   0.622281]
  
  Beta spin:
    <r_h> [Ang]:                  [  0.000000,   0.000000,  -0.000000]
    <r_e> [Ang]:                  [  0.000000,   0.000000,   0.000000]
    |<r_e - r_h>| [Ang]:            0.000000
    Hole size [Ang]:                1.415575
      Cartesian components [Ang]: [  0.963214,   0.722714,   0.744149]
    Electron size [Ang]:            1.414200
      Cartesian components [Ang]: [  1.025993,   0.748377,   0.622281]
--------------------------------------------------------------------------------
Less particle guess vectors found than requested: 6 (found), 100 (requested).
Adjusting number of hole-2particle guess vectors to 94.
  Starting Davidson for electron-attached states of irrep B2g ... 
--------------------------------------------------------------------------------
   It NVec Conv  Avg. Norm  Max. Norm  Conv. states           Remark
--------------------------------------------------------------------------------
       100    0  4.516e-02  3.152e-01  0.0876 n n n n n n n n Guess.
    1  110    7  1.738e-04  1.220e-03  0.0733 n n n y y y y y 
    2  120   10  9.297e-10  6.614e-09  0.0733 y y y y y y y y Converged.
--------------------------------------------------------------------------------
  Davidson Summary: 
 ------------------------------------------------------------
  State  0: electron attachment energy =   0.0733 a.u.   (converged)
  State  1: electron attachment energy =   0.1273 a.u.   (converged)
  State  2: electron attachment energy =   0.3408 a.u.   (converged)
  State  3: electron attachment energy =   0.5174 a.u.   (converged)
  State  4: electron attachment energy =   0.5174 a.u.   (converged)
  State  5: electron attachment energy =   0.5375 a.u.   (converged)
  State  6: electron attachment energy =   0.5375 a.u.   (converged)
  State  7: electron attachment energy =   0.5410 a.u.   (converged)
  State  8: electron attachment energy =   0.5412 a.u.   (converged)
  State  9: electron attachment energy =   0.5604 a.u.   (converged)
 ------------------------------------------------------------


--------------------------------------------------------------------------------
                        Electron-Attached State Summary
--------------------------------------------------------------------------------

  Electron-attached state 1 (B2g)                                  [converged]
  ----------------------------------------------------------------------------
  Term symbol:  1 (2) B2g                                   R^2 =  6.27273e-09

  Total energy:                                            -78.2467994589 a.u.
  Electron attachment energy:                                      1.993832 eV

  Pole strength:                                                      0.968732

  Dip. moment [a.u.]:                  [   0.000000,   -0.000001,   -0.000000]
  Total dipole [Debye]:                                               0.000002
  <r^2> [a.u.]:                        [  65.993888,   28.458988,   28.779125]
  Total <r^2> [a.u.]:                                               123.232001

  V1^2 = 0.9763, V2^2 = 0.0237

  Important amplitudes:
       occ i       vir a        vir b           v   
    -------------------------------------------------
                               1 (B2g) B     -0.9421
                               2 (B2g) B      0.2899
    -------------------------------------------------

  Density matrix analysis:
  ------------------------
  NOs (alpha)
    Occupation of frontier NOs:
       0.0194   0.9673
    Number of electrons:  8.000000
  NOs (beta)
    Occupation of frontier NOs:
       0.0245   0.9725
    Number of electrons:  9.000000
  NOs (spin-traced)
    Occupation of frontier NOs:
       0.0372   0.9902
    Number of electrons: 17.000000
    Number of unpaired electrons: n_u =  1.41887, n_u,nl =  1.04592
    NO participation ratio (PR_NO):  2.028546
  
  
  Mulliken Population Analysis
  Atom  Charge (e)    Spin (e)  h+ (alpha)   h+ (beta)  e- (alpha)   e- (beta)
  ----------------------------------------------------------------------------
   1 C   -0.618975    0.525011    0.055757    0.048102   -0.010516   -0.527872
   2 C   -0.618975    0.525011    0.055757    0.048102   -0.010516   -0.527872
   3 H    0.059484   -0.012506   -0.000091    0.003678   -0.022530   -0.013792
   4 H    0.059496   -0.012506   -0.000091    0.003677   -0.022530   -0.013793
   5 H    0.059491   -0.012505   -0.000091    0.003677   -0.022530   -0.013793
   6 H    0.059479   -0.012506   -0.000091    0.003678   -0.022530   -0.013792
  ----------------------------------------------------------------------------
  Sum:   -1.000000    1.000000    0.111151    0.110914   -0.111151   -1.110914
  
  Multipole moment analysis of the density matrix
    Molecular charge:                      -1.000000
    Number of electrons:                   17.000000
      Center of electronic charge [Ang]: [ -0.000000,   0.000000,   0.000000]
    Total nuclear charge:                  16.000000
      Center of nuclear charge [Ang]:    [  0.000000,   0.000000,   0.000000]
    Dipole moment [D]:                     0.000002
      Cartesian components [D]:          [  0.000000,  -0.000002,  -0.000000]
    RMS size of the density [Ang]:         1.424749
      Cartesian components [Ang]:        [  1.042626,   0.684678,   0.688518]
  
  Exciton analysis of the difference density matrix
  Total:
    <r_h> [Ang]:                  [  0.000000,  -0.000000,  -0.000000]
    <r_e> [Ang]:                  [  0.000000,   0.000000,   0.000000]
    |<r_e - r_h>| [Ang]:            0.000000
    Hole size [Ang]:                1.550706
      Cartesian components [Ang]: [  1.065132,   0.781865,   0.811708]
    Electron size [Ang]:            3.150232
      Cartesian components [Ang]: [  2.089994,   1.247020,   2.000207]
  
  Alpha spin:
    <r_h> [Ang]:                  [  0.000000,   0.000000,  -0.000000]
    <r_e> [Ang]:                  [  0.000000,  -0.000000,  -0.000000]
    |<r_e - r_h>| [Ang]:            0.000000
    Hole size [Ang]:                1.442327
      Cartesian components [Ang]: [  1.025591,   0.734213,   0.699572]
    Electron size [Ang]:            2.192333
      Cartesian components [Ang]: [  1.423000,   1.271466,   1.079244]
  
  Beta spin:
    <r_h> [Ang]:                  [ -0.000000,  -0.000000,  -0.000000]
    <r_e> [Ang]:                  [ -0.000000,   0.000000,   0.000000]
    |<r_e - r_h>| [Ang]:            0.000000
    Hole size [Ang]:                1.652199
      Cartesian components [Ang]: [  1.103336,   0.826869,   0.910329]
    Electron size [Ang]:            3.230480
      Cartesian components [Ang]: [  2.145348,   1.244548,   2.069924]
  ----------------------------------------------------------------------------


  Electron-attached state 2 (B2g)                                  [converged]
  ----------------------------------------------------------------------------
  Term symbol:  2 (2) B2g                                   R^2 =  6.61416e-09

  Total energy:                                            -78.1927313098 a.u.
  Electron attachment energy:                                      3.465101 eV

  Pole strength:                                                      0.956990

  Dip. moment [a.u.]:                  [   0.000000,   -0.000001,    0.000000]
  Total dipole [Debye]:                                               0.000002
  <r^2> [a.u.]:                        [  68.290601,   29.414308,   31.009186]
  Total <r^2> [a.u.]:                                               128.714095

  V1^2 = 0.9663, V2^2 = 0.0337

  Important amplitudes:
       occ i       vir a        vir b           v   
    -------------------------------------------------
                               2 (B2g) B     -0.9212
                               1 (B2g) B     -0.3199
    -------------------------------------------------

  Density matrix analysis:
  ------------------------
  NOs (alpha)
    Occupation of frontier NOs:
       0.0203   0.9649
    Number of electrons:  8.000000
  NOs (beta)
    Occupation of frontier NOs:
       0.0260   0.9746
    Number of electrons:  9.000000
  NOs (spin-traced)
    Occupation of frontier NOs:
       0.0372   0.9862
    Number of electrons: 17.000000
    Number of unpaired electrons: n_u =  1.42838, n_u,nl =  1.04808
    NO participation ratio (PR_NO):  2.070750
  
  
  Mulliken Population Analysis
  Atom  Charge (e)    Spin (e)  h+ (alpha)   h+ (beta)  e- (alpha)   e- (beta)
  ----------------------------------------------------------------------------
   1 C   -0.585888    0.515613    0.077477    0.053612   -0.020391   -0.512140
   2 C   -0.585888    0.515613    0.077477    0.053612   -0.020391   -0.512140
   3 H    0.042941   -0.007806    0.000356    0.003091   -0.028899   -0.023827
   4 H    0.042952   -0.007806    0.000356    0.003091   -0.028899   -0.023828
   5 H    0.042947   -0.007806    0.000356    0.003091   -0.028899   -0.023828
   6 H    0.042936   -0.007806    0.000356    0.003091   -0.028899   -0.023827
  ----------------------------------------------------------------------------
  Sum:   -1.000000    1.000000    0.156378    0.119589   -0.156378   -1.119589
  
  Multipole moment analysis of the density matrix
    Molecular charge:                      -1.000000
    Number of electrons:                   17.000000
      Center of electronic charge [Ang]: [ -0.000000,   0.000000,  -0.000000]
    Total nuclear charge:                  16.000000
      Center of nuclear charge [Ang]:    [  0.000000,   0.000000,   0.000000]
    Dipole moment [D]:                     0.000002
      Cartesian components [D]:          [  0.000000,  -0.000002,   0.000000]
    RMS size of the density [Ang]:         1.456095
      Cartesian components [Ang]:        [  1.060613,   0.696075,   0.714697]
  
  Exciton analysis of the difference density matrix
  Total:
    <r_h> [Ang]:                  [  0.000000,  -0.000000,  -0.000000]
    <r_e> [Ang]:                  [  0.000000,   0.000000,  -0.000000]
    |<r_e - r_h>| [Ang]:            0.000000
    Hole size [Ang]:                1.348062
      Cartesian components [Ang]: [  0.983316,   0.689782,   0.612015]
    Electron size [Ang]:            3.268394
      Cartesian components [Ang]: [  2.167782,   1.302129,   2.070647]
  
  Alpha spin:
    <r_h> [Ang]:                  [  0.000000,   0.000000,  -0.000000]
    <r_e> [Ang]:                  [  0.000000,  -0.000000,  -0.000000]
    |<r_e - r_h>| [Ang]:            0.000000
    Hole size [Ang]:                1.357862
      Cartesian components [Ang]: [  0.982355,   0.679371,   0.645927]
    Electron size [Ang]:            2.151646
      Cartesian components [Ang]: [  1.411620,   1.231468,   1.058489]
  
  Beta spin:
    <r_h> [Ang]:                  [ -0.000000,  -0.000000,  -0.000000]
    <r_e> [Ang]:                  [ -0.000000,   0.000000,  -0.000000]
    |<r_e - r_h>| [Ang]:            0.000000
    Hole size [Ang]:                1.335139
      Cartesian components [Ang]: [  0.984570,   0.703164,   0.564605]
    Electron size [Ang]:            3.395265
      Cartesian components [Ang]: [  2.253291,   1.311696,   2.174846]
  ----------------------------------------------------------------------------


  Electron-attached state 3 (B2g)                                  [converged]
  ----------------------------------------------------------------------------
  Term symbol:  3 (2) B2g                                   R^2 =  1.82756e-09

  Total energy:                                            -77.9792497690 a.u.
  Electron attachment energy:                                      9.274229 eV

  Pole strength:                                                      0.955397

  Dip. moment [a.u.]:                  [   0.000000,   -0.000001,    0.000000]
  Total dipole [Debye]:                                               0.000002
  <r^2> [a.u.]:                        [  63.912180,   27.928434,   27.314187]
  Total <r^2> [a.u.]:                                               119.154800

  V1^2 = 0.9584, V2^2 = 0.0416

  Important amplitudes:
       occ i       vir a        vir b           v   
    -------------------------------------------------
                               3 (B2g) B      0.9615
                               2 (B2g) B     -0.1712
    -------------------------------------------------

  Density matrix analysis:
  ------------------------
  NOs (alpha)
    Occupation of frontier NOs:
       0.0309   0.9511
    Number of electrons:  8.000000
  NOs (beta)
    Occupation of frontier NOs:
       0.0360   0.9631
    Number of electrons:  9.000000
  NOs (spin-traced)
    Occupation of frontier NOs:
       0.0639   0.9666
    Number of electrons: 17.000000
    Number of unpaired electrons: n_u =  1.47601, n_u,nl =  1.06931
    NO participation ratio (PR_NO):  2.285673
  
  
  Mulliken Population Analysis
  Atom  Charge (e)    Spin (e)  h+ (alpha)   h+ (beta)  e- (alpha)   e- (beta)
  ----------------------------------------------------------------------------
   1 C   -0.608783    0.509101    0.056710    0.040308   -0.014328   -0.507026
   2 C   -0.608783    0.509101    0.056710    0.040308   -0.014328   -0.507026
   3 H    0.054388   -0.004550   -0.000802   -0.000023   -0.020389   -0.016618
   4 H    0.054400   -0.004550   -0.000802   -0.000023   -0.020389   -0.016618
   5 H    0.054395   -0.004550   -0.000802   -0.000023   -0.020389   -0.016618
   6 H    0.054383   -0.004550   -0.000802   -0.000023   -0.020389   -0.016618
  ----------------------------------------------------------------------------
  Sum:   -1.000000    1.000000    0.110211    0.080523   -0.110211   -1.080523
  
  Multipole moment analysis of the density matrix
    Molecular charge:                      -1.000000
    Number of electrons:                   17.000000
      Center of electronic charge [Ang]: [ -0.000000,   0.000000,  -0.000000]
    Total nuclear charge:                  16.000000
      Center of nuclear charge [Ang]:    [  0.000000,   0.000000,   0.000000]
    Dipole moment [D]:                     0.000002
      Cartesian components [D]:          [  0.000000,  -0.000002,   0.000000]
    RMS size of the density [Ang]:         1.400982
      Cartesian components [Ang]:        [  1.026050,   0.678266,   0.670766]
  
  Exciton analysis of the difference density matrix
  Total:
    <r_h> [Ang]:                  [  0.000000,   0.000000,  -0.000000]
    <r_e> [Ang]:                  [  0.000000,   0.000000,  -0.000000]
    |<r_e - r_h>| [Ang]:            0.000000
    Hole size [Ang]:                1.367334
      Cartesian components [Ang]: [  0.981354,   0.708240,   0.636350]
    Electron size [Ang]:            3.012848
      Cartesian components [Ang]: [  1.983969,   1.198977,   1.924467]
  
  Alpha spin:
    <r_h> [Ang]:                  [  0.000000,   0.000000,  -0.000000]
    <r_e> [Ang]:                  [  0.000000,  -0.000000,  -0.000000]
    |<r_e - r_h>| [Ang]:            0.000000
    Hole size [Ang]:                1.272125
      Cartesian components [Ang]: [  0.932460,   0.641685,   0.580568]
    Electron size [Ang]:            2.116040
      Cartesian components [Ang]: [  1.392870,   1.212353,   1.033313]
  
  Beta spin:
    <r_h> [Ang]:                  [  0.000000,  -0.000000,  -0.000000]
    <r_e> [Ang]:                  [ -0.000000,   0.000000,  -0.000000]
    |<r_e - r_h>| [Ang]:            0.000000
    Hole size [Ang]:                1.487801
      Cartesian components [Ang]: [  1.044572,   0.790299,   0.705585]
    Electron size [Ang]:            3.089726
      Cartesian components [Ang]: [  2.034632,   1.197604,   1.993094]
  ----------------------------------------------------------------------------


  Electron-attached state 4 (B2g)                                  [converged]
  ----------------------------------------------------------------------------
  Term symbol:  4 (2) B2g                                   R^2 =  1.68464e-14

  Total energy:                                            -77.8027144231 a.u.
  Electron attachment energy:                                     14.078001 eV

  Pole strength:                                                      0.000001

  Dip. moment [a.u.]:                  [  -0.000000,   -0.000001,   -0.000000]
  Total dipole [Debye]:                                               0.000003
  <r^2> [a.u.]:                        [ 140.418778,   41.303102,   29.371471]
  Total <r^2> [a.u.]:                                               211.093351

  V1^2 = 0.0000, V2^2 = 1.0000

  Important amplitudes:
       occ i       vir a        vir b           v   
    -------------------------------------------------
     1 (B1u) A    3 (B3u) A    4 (Ag ) B      0.5395
     1 (B1u) B    4 (Ag ) B    3 (B3u) B     -0.4478
    -------------------------------------------------

  Density matrix analysis:
  ------------------------
  NOs (alpha)
    Occupation of frontier NOs:
       0.3703   0.5824
    Number of electrons:  8.000000
  NOs (beta)
    Occupation of frontier NOs:
       0.4182   0.5678
    Number of electrons:  9.000000
  NOs (spin-traced)
    Occupation of frontier NOs:
       0.9380   1.0006
    Number of electrons: 17.000000
    Number of unpaired electrons: n_u =  3.28002, n_u,nl =  3.02332
    NO participation ratio (PR_NO):  3.729765
  
  
  Mulliken Population Analysis
  Atom  Charge (e)    Spin (e)  h+ (alpha)   h+ (beta)  e- (alpha)   e- (beta)
  ----------------------------------------------------------------------------
   1 C   -0.699012    0.551430    0.296007    0.198211   -0.277574   -0.731208
   2 C   -0.699012    0.551430    0.296007    0.198211   -0.277574   -0.731208
   3 H    0.099502   -0.025715    0.001732    0.001160   -0.010948    0.015339
   4 H    0.099514   -0.025715    0.001732    0.001160   -0.010948    0.015339
   5 H    0.099510   -0.025715    0.001732    0.001160   -0.010948    0.015339
   6 H    0.099497   -0.025715    0.001732    0.001160   -0.010948    0.015339
  ----------------------------------------------------------------------------
  Sum:   -1.000000    1.000000    0.598940    0.401059   -0.598940   -1.401059
  
  Multipole moment analysis of the density matrix
    Molecular charge:                      -1.000000
    Number of electrons:                   17.000000
      Center of electronic charge [Ang]: [  0.000000,   0.000000,   0.000000]
    Total nuclear charge:                  16.000000
      Center of nuclear charge [Ang]:    [  0.000000,   0.000000,   0.000000]
    Dipole moment [D]:                     0.000003
      Cartesian components [D]:          [ -0.000000,  -0.000003,  -0.000000]
    RMS size of the density [Ang]:         1.864721
      Cartesian components [Ang]:        [  1.520860,   0.824837,   0.695568]
  
  Exciton analysis of the difference density matrix
  Total:
    <r_h> [Ang]:                  [ -0.000000,   0.000000,   0.000000]
    <r_e> [Ang]:                  [  0.000000,   0.000000,   0.000000]
    |<r_e - r_h>| [Ang]:            0.000000
    Hole size [Ang]:                1.251913
      Cartesian components [Ang]: [  0.747879,   0.510242,   0.864648]
    Electron size [Ang]:            4.345384
      Cartesian components [Ang]: [  3.639132,   1.676559,   1.681733]
  
  Alpha spin:
    <r_h> [Ang]:                  [ -0.000000,   0.000000,   0.000000]
    <r_e> [Ang]:                  [ -0.000000,   0.000000,   0.000000]
    |<r_e - r_h>| [Ang]:            0.000000
    Hole size [Ang]:                1.251913
      Cartesian components [Ang]: [  0.747879,   0.510242,   0.864648]
    Electron size [Ang]:            4.430403
      Cartesian components [Ang]: [  3.617614,   1.829191,   1.787566]
  
  Beta spin:
    <r_h> [Ang]:                  [ -0.000000,   0.000000,   0.000000]
    <r_e> [Ang]:                  [  0.000000,   0.000000,   0.000000]
    |<r_e - r_h>| [Ang]:            0.000000
    Hole size [Ang]:                1.251913
      Cartesian components [Ang]: [  0.747879,   0.510242,   0.864648]
    Electron size [Ang]:            4.308527
      Cartesian components [Ang]: [  3.648292,   1.606892,   1.634401]
  ----------------------------------------------------------------------------


  Electron-attached state 5 (B2g)                                  [converged]
  ----------------------------------------------------------------------------
  Term symbol:  5 (2) B2g                                   R^2 =  2.51970e-13

  Total energy:                                            -77.8026919905 a.u.
  Electron attachment energy:                                     14.078611 eV

  Pole strength:                                                      0.000068

  Dip. moment [a.u.]:                  [  -0.000000,   -0.000001,   -0.000000]
  Total dipole [Debye]:                                               0.000003
  <r^2> [a.u.]:                        [ 140.453484,   41.307254,   29.371980]
  Total <r^2> [a.u.]:                                               211.132718

  V1^2 = 0.0001, V2^2 = 0.9999

  Important amplitudes:
       occ i       vir a        vir b           v   
    -------------------------------------------------
     1 (B1u) A    4 (Ag ) A    3 (B3u) B      0.5700
     1 (B1u) B    4 (Ag ) B    3 (B3u) B      0.3644
    -------------------------------------------------

  Density matrix analysis:
  ------------------------
  NOs (alpha)
    Occupation of frontier NOs:
       0.2356   0.6503
    Number of electrons:  8.000000
  NOs (beta)
    Occupation of frontier NOs:
       0.3507   0.7031
    Number of electrons:  9.000000
  NOs (spin-traced)
    Occupation of frontier NOs:
       0.9381   1.0005
    Number of electrons: 17.000000
    Number of unpaired electrons: n_u =  3.28039, n_u,nl =  3.02335
    NO participation ratio (PR_NO):  3.729963
  
  
  Mulliken Population Analysis
  Atom  Charge (e)    Spin (e)  h+ (alpha)   h+ (beta)  e- (alpha)   e- (beta)
  ----------------------------------------------------------------------------
   1 C   -0.698720    0.450626    0.362925    0.131262   -0.394749   -0.613712
   2 C   -0.698720    0.450626    0.362925    0.131262   -0.394749   -0.613712
   3 H    0.099356    0.024687    0.002123    0.000768    0.013789   -0.009543
   4 H    0.099369    0.024687    0.002123    0.000768    0.013789   -0.009543
   5 H    0.099364    0.024687    0.002123    0.000768    0.013789   -0.009543
   6 H    0.099352    0.024687    0.002123    0.000768    0.013789   -0.009543
  ----------------------------------------------------------------------------
  Sum:   -1.000000    1.000000    0.734342    0.265595   -0.734342   -1.265595
  
  Multipole moment analysis of the density matrix
    Molecular charge:                      -1.000000
    Number of electrons:                   17.000000
      Center of electronic charge [Ang]: [  0.000000,   0.000000,   0.000000]
    Total nuclear charge:                  16.000000
      Center of nuclear charge [Ang]:    [  0.000000,   0.000000,   0.000000]
    Dipole moment [D]:                     0.000003
      Cartesian components [D]:          [ -0.000000,  -0.000003,  -0.000000]
    RMS size of the density [Ang]:         1.864895
      Cartesian components [Ang]:        [  1.521048,   0.824878,   0.695574]
  
  Exciton analysis of the difference density matrix
  Total:
    <r_h> [Ang]:                  [ -0.000000,   0.000000,  -0.000000]
    <r_e> [Ang]:                  [  0.000000,   0.000000,   0.000000]
    |<r_e - r_h>| [Ang]:            0.000000
    Hole size [Ang]:                1.251904
      Cartesian components [Ang]: [  0.747878,   0.510239,   0.864637]
    Electron size [Ang]:            4.346079
      Cartesian components [Ang]: [  3.639854,   1.676756,   1.681771]
  
  Alpha spin:
    <r_h> [Ang]:                  [ -0.000000,   0.000000,   0.000000]
    <r_e> [Ang]:                  [  0.000000,   0.000000,  -0.000000]
    |<r_e - r_h>| [Ang]:            0.000000
    Hole size [Ang]:                1.251917
      Cartesian components [Ang]: [  0.747882,   0.510245,   0.864650]
    Electron size [Ang]:            4.275823
      Cartesian components [Ang]: [  3.657645,   1.541281,   1.590204]
  
  Beta spin:
    <r_h> [Ang]:                  [ -0.000000,   0.000000,  -0.000000]
    <r_e> [Ang]:                  [  0.000000,   0.000000,   0.000000]
    |<r_e - r_h>| [Ang]:            0.000000
    Hole size [Ang]:                1.251868
      Cartesian components [Ang]: [  0.747869,   0.510225,   0.864602]
    Electron size [Ang]:            4.386328
      Cartesian components [Ang]: [  3.629491,   1.750562,   1.732684]
  ----------------------------------------------------------------------------


  Electron-attached state 6 (B2g)                                  [converged]
  ----------------------------------------------------------------------------
  Term symbol:  6 (2) B2g                                   R^2 =  1.54791e-14

  Total energy:                                            -77.7825873772 a.u.
  Electron attachment energy:                                     14.625685 eV

  Pole strength:                                                      0.000000

  Dip. moment [a.u.]:                  [   0.000000,   -0.000000,   -0.000000]
  Total dipole [Debye]:                                               0.000001
  <r^2> [a.u.]:                        [  90.828561,   87.396366,   30.571797]
  Total <r^2> [a.u.]:                                               208.796725

  V1^2 = 0.0000, V2^2 = 1.0000

  Important amplitudes:
       occ i       vir a        vir b           v   
    -------------------------------------------------
     1 (B1u) A    2 (B1g) A    2 (B2u) B     -0.5274
     1 (B1u) B    2 (B1g) B    2 (B2u) B     -0.4672
    -------------------------------------------------

  Density matrix analysis:
  ------------------------
  NOs (alpha)
    Occupation of frontier NOs:
       0.4056   0.5566
    Number of electrons:  8.000000
  NOs (beta)
    Occupation of frontier NOs:
       0.4440   0.5324
    Number of electrons:  9.000000
  NOs (spin-traced)
    Occupation of frontier NOs:
       0.9380   1.0006
    Number of electrons: 17.000000
    Number of unpaired electrons: n_u =  3.27999, n_u,nl =  3.02330
    NO participation ratio (PR_NO):  3.729788
  
  
  Mulliken Population Analysis
  Atom  Charge (e)    Spin (e)  h+ (alpha)   h+ (beta)  e- (alpha)   e- (beta)
  ----------------------------------------------------------------------------
   1 C   -0.542363    0.473381    0.278503    0.215714   -0.220771   -0.631363
   2 C   -0.542363    0.473381    0.278503    0.215714   -0.220771   -0.631363
   3 H    0.021178    0.013309    0.001629    0.001262   -0.030495   -0.043437
   4 H    0.021190    0.013310    0.001629    0.001262   -0.030495   -0.043438
   5 H    0.021185    0.013310    0.001629    0.001262   -0.030495   -0.043437
   6 H    0.021173    0.013309    0.001629    0.001262   -0.030495   -0.043437
  ----------------------------------------------------------------------------
  Sum:   -1.000000    1.000000    0.563524    0.436476   -0.563524   -1.436476
  
  Multipole moment analysis of the density matrix
    Molecular charge:                      -1.000000
    Number of electrons:                   17.000000
      Center of electronic charge [Ang]: [ -0.000000,   0.000000,   0.000000]
    Total nuclear charge:                  16.000000
      Center of nuclear charge [Ang]:    [  0.000000,   0.000000,   0.000000]
    Dipole moment [D]:                     0.000001
      Cartesian components [D]:          [  0.000000,  -0.000001,  -0.000000]
    RMS size of the density [Ang]:         1.854550
      Cartesian components [Ang]:        [  1.223173,   1.199840,   0.709638]
  
  Exciton analysis of the difference density matrix
  Total:
    <r_h> [Ang]:                  [ -0.000000,   0.000000,   0.000000]
    <r_e> [Ang]:                  [ -0.000000,  -0.000000,  -0.000000]
    |<r_e - r_h>| [Ang]:            0.000000
    Hole size [Ang]:                1.251913
      Cartesian components [Ang]: [  0.747879,   0.510241,   0.864648]
    Electron size [Ang]:            4.308224
      Cartesian components [Ang]: [  2.509968,   3.043774,   1.730979]
  
  Alpha spin:
    <r_h> [Ang]:                  [ -0.000000,   0.000000,   0.000000]
    <r_e> [Ang]:                  [  0.000000,  -0.000000,  -0.000000]
    |<r_e - r_h>| [Ang]:            0.000000
    Hole size [Ang]:                1.251913
      Cartesian components [Ang]: [  0.747879,   0.510241,   0.864648]
    Electron size [Ang]:            4.568900
      Cartesian components [Ang]: [  3.009908,   2.993200,   1.689985]
  
  Beta spin:
    <r_h> [Ang]:                  [ -0.000000,   0.000000,   0.000000]
    <r_e> [Ang]:                  [ -0.000000,   0.000000,  -0.000000]
    |<r_e - r_h>| [Ang]:            0.000000
    Hole size [Ang]:                1.251913
      Cartesian components [Ang]: [  0.747879,   0.510241,   0.864648]
    Electron size [Ang]:            4.201547
      Cartesian components [Ang]: [  2.284154,   3.063387,   1.746798]
  ----------------------------------------------------------------------------


  Electron-attached state 7 (B2g)                                  [converged]
  ----------------------------------------------------------------------------
  Term symbol:  7 (2) B2g                                   R^2 =  1.61723e-14

  Total energy:                                            -77.7825865076 a.u.
  Electron attachment energy:                                     14.625709 eV

  Pole strength:                                                      0.000002

  Dip. moment [a.u.]:                  [   0.000000,   -0.000000,   -0.000000]
  Total dipole [Debye]:                                               0.000001
  <r^2> [a.u.]:                        [  90.828462,   87.395434,   30.572646]
  Total <r^2> [a.u.]:                                               208.796542

  V1^2 = 0.0000, V2^2 = 1.0000

  Important amplitudes:
       occ i       vir a        vir b           v   
    -------------------------------------------------
     1 (B1u) A    2 (B2u) A    2 (B1g) B     -0.5742
     1 (B1u) B    2 (B1g) B    2 (B2u) B      0.3393
    -------------------------------------------------

  Density matrix analysis:
  ------------------------
  NOs (alpha)
    Occupation of frontier NOs:
       0.2005   0.6599
    Number of electrons:  8.000000
  NOs (beta)
    Occupation of frontier NOs:
       0.3411   0.7385
    Number of electrons:  9.000000
  NOs (spin-traced)
    Occupation of frontier NOs:
       0.9380   1.0006
    Number of electrons: 17.000000
    Number of unpaired electrons: n_u =  3.28009, n_u,nl =  3.02330
    NO participation ratio (PR_NO):  3.729875
  
  
  Mulliken Population Analysis
  Atom  Charge (e)    Spin (e)  h+ (alpha)   h+ (beta)  e- (alpha)   e- (beta)
  ----------------------------------------------------------------------------
   1 C   -0.542363    0.424188    0.380448    0.113768   -0.347313   -0.504821
   2 C   -0.542363    0.424188    0.380448    0.113768   -0.347313   -0.504821
   3 H    0.021178    0.037906    0.002226    0.000666   -0.018793   -0.055139
   4 H    0.021190    0.037906    0.002226    0.000666   -0.018793   -0.055139
   5 H    0.021185    0.037906    0.002226    0.000666   -0.018793   -0.055139
   6 H    0.021173    0.037906    0.002226    0.000666   -0.018793   -0.055139
  ----------------------------------------------------------------------------
  Sum:   -1.000000    1.000000    0.769799    0.230199   -0.769799   -1.230199
  
  Multipole moment analysis of the density matrix
    Molecular charge:                      -1.000000
    Number of electrons:                   17.000000
      Center of electronic charge [Ang]: [ -0.000000,   0.000000,   0.000000]
    Total nuclear charge:                  16.000000
      Center of nuclear charge [Ang]:    [  0.000000,   0.000000,   0.000000]
    Dipole moment [D]:                     0.000001
      Cartesian components [D]:          [  0.000000,  -0.000001,  -0.000000]
    RMS size of the density [Ang]:         1.854549
      Cartesian components [Ang]:        [  1.223172,   1.199834,   0.709648]
  
  Exciton analysis of the difference density matrix
  Total:
    <r_h> [Ang]:                  [ -0.000000,   0.000000,   0.000000]
    <r_e> [Ang]:                  [ -0.000000,  -0.000000,  -0.000000]
    |<r_e - r_h>| [Ang]:            0.000000
    Hole size [Ang]:                1.251908
      Cartesian components [Ang]: [  0.747877,   0.510239,   0.864644]
    Electron size [Ang]:            4.308222
      Cartesian components [Ang]: [  2.509966,   3.043754,   1.731013]
  
  Alpha spin:
    <r_h> [Ang]:                  [ -0.000000,   0.000000,   0.000000]
    <r_e> [Ang]:                  [ -0.000000,   0.000000,  -0.000000]
    |<r_e - r_h>| [Ang]:            0.000000
    Hole size [Ang]:                1.251912
      Cartesian components [Ang]: [  0.747879,   0.510241,   0.864648]
    Electron size [Ang]:            4.106931
      Cartesian components [Ang]: [  2.068784,   3.080263,   1.760397]
  
  Beta spin:
    <r_h> [Ang]:                  [ -0.000000,   0.000000,   0.000000]
    <r_e> [Ang]:                  [  0.000000,  -0.000000,  -0.000000]
    |<r_e - r_h>| [Ang]:            0.000000
    Hole size [Ang]:                1.251895
      Cartesian components [Ang]: [  0.747873,   0.510233,   0.864633]
    Electron size [Ang]:            4.429530
      Cartesian components [Ang]: [  2.750271,   3.020685,   1.712370]
  ----------------------------------------------------------------------------


  Electron-attached state 8 (B2g)                                  [converged]
  ----------------------------------------------------------------------------
  Term symbol:  8 (2) B2g                                   R^2 =  3.56083e-14

  Total energy:                                            -77.7790607101 a.u.
  Electron attachment energy:                                     14.721651 eV

  Pole strength:                                                      0.000636

  Dip. moment [a.u.]:                  [   0.000000,   -0.000001,    0.000000]
  Total dipole [Debye]:                                               0.000002
  <r^2> [a.u.]:                        [  83.344656,   41.008754,   68.455314]
  Total <r^2> [a.u.]:                                               192.808724

  V1^2 = 0.0006, V2^2 = 0.9994

  Important amplitudes:
       occ i       vir a        vir b           v   
    -------------------------------------------------
     1 (B1u) B    1 (B2g) B    2 (B1u) B     -0.5402
     1 (B1u) A    2 (B1u) A    1 (B2g) B      0.4460
    -------------------------------------------------

  Density matrix analysis:
  ------------------------
  NOs (alpha)
    Occupation of frontier NOs:
       0.3967   0.5550
    Number of electrons:  8.000000
  NOs (beta)
    Occupation of frontier NOs:
       0.3837   0.6038
    Number of electrons:  9.000000
  NOs (spin-traced)
    Occupation of frontier NOs:
       0.9221   1.0051
    Number of electrons: 17.000000
    Number of unpaired electrons: n_u =  3.23894, n_u,nl =  3.01668
    NO participation ratio (PR_NO):  3.728718
  
  
  Mulliken Population Analysis
  Atom  Charge (e)    Spin (e)  h+ (alpha)   h+ (beta)  e- (alpha)   e- (beta)
  ----------------------------------------------------------------------------
   1 C   -0.687953    0.499610    0.206011    0.289058   -0.207960   -0.790617
   2 C   -0.687953    0.499610    0.206011    0.289058   -0.207960   -0.790617
   3 H    0.093973    0.000195    0.001203    0.001694   -0.000228   -0.000915
   4 H    0.093985    0.000195    0.001203    0.001694   -0.000228   -0.000915
   5 H    0.093981    0.000195    0.001203    0.001694   -0.000228   -0.000915
   6 H    0.093968    0.000195    0.001203    0.001694   -0.000228   -0.000915
  ----------------------------------------------------------------------------
  Sum:   -1.000000    1.000000    0.416832    0.584892   -0.416832   -1.584892
  
  Multipole moment analysis of the density matrix
    Molecular charge:                      -1.000000
    Number of electrons:                   17.000000
      Center of electronic charge [Ang]: [ -0.000000,   0.000000,  -0.000000]
    Total nuclear charge:                  16.000000
      Center of nuclear charge [Ang]:    [  0.000000,   0.000000,   0.000000]
    Dipole moment [D]:                     0.000002
      Cartesian components [D]:          [  0.000000,  -0.000002,   0.000000]
    RMS size of the density [Ang]:         1.782133
      Cartesian components [Ang]:        [  1.171698,   0.821892,   1.061892]
  
  Exciton analysis of the difference density matrix
  Total:
    <r_h> [Ang]:                  [ -0.000000,   0.000000,   0.000000]
    <r_e> [Ang]:                  [  0.000000,   0.000000,  -0.000000]
    |<r_e - r_h>| [Ang]:            0.000000
    Hole size [Ang]:                1.263624
      Cartesian components [Ang]: [  0.752444,   0.516218,   0.874124]
    Electron size [Ang]:            4.040331
      Cartesian components [Ang]: [  2.291609,   1.664495,   2.881365]
  
  Alpha spin:
    <r_h> [Ang]:                  [ -0.000000,   0.000000,   0.000000]
    <r_e> [Ang]:                  [  0.000000,   0.000000,   0.000000]
    |<r_e - r_h>| [Ang]:            0.000000
    Hole size [Ang]:                1.264911
      Cartesian components [Ang]: [  0.752988,   0.516904,   0.875111]
    Electron size [Ang]:            4.046174
      Cartesian components [Ang]: [  1.887472,   1.790214,   3.099049]
  
  Beta spin:
    <r_h> [Ang]:                  [ -0.000000,   0.000000,   0.000000]
    <r_e> [Ang]:                  [ -0.000000,   0.000000,  -0.000000]
    |<r_e - r_h>| [Ang]:            0.000000
    Hole size [Ang]:                1.262706
      Cartesian components [Ang]: [  0.752057,   0.515728,   0.873420]
    Electron size [Ang]:            4.038793
      Cartesian components [Ang]: [  2.386559,   1.629821,   2.821324]
  ----------------------------------------------------------------------------


  Electron-attached state 9 (B2g)                                  [converged]
  ----------------------------------------------------------------------------
  Term symbol:  9 (2) B2g                                   R^2 =  3.28321e-13

  Total energy:                                            -77.7789084436 a.u.
  Electron attachment energy:                                     14.725794 eV

  Pole strength:                                                      0.001831

  Dip. moment [a.u.]:                  [   0.000000,   -0.000001,    0.000000]
  Total dipole [Debye]:                                               0.000002
  <r^2> [a.u.]:                        [  83.443592,   41.064932,   68.636922]
  Total <r^2> [a.u.]:                                               193.145446

  V1^2 = 0.0018, V2^2 = 0.9982

  Important amplitudes:
       occ i       vir a        vir b           v   
    -------------------------------------------------
     1 (B1u) A    1 (B2g) A    2 (B1u) B      0.5689
     1 (B1u) A    2 (B1u) A    1 (B2g) B      0.3660
    -------------------------------------------------

  Density matrix analysis:
  ------------------------
  NOs (alpha)
    Occupation of frontier NOs:
       0.2687   0.6502
    Number of electrons:  8.000000
  NOs (beta)
    Occupation of frontier NOs:
       0.3532   0.7301
    Number of electrons:  9.000000
  NOs (spin-traced)
    Occupation of frontier NOs:
       0.9391   1.0000
    Number of electrons: 17.000000
    Number of unpaired electrons: n_u =  3.27682, n_u,nl =  3.02228
    NO participation ratio (PR_NO):  3.724615
  
  
  Mulliken Population Analysis
  Atom  Charge (e)    Spin (e)  h+ (alpha)   h+ (beta)  e- (alpha)   e- (beta)
  ----------------------------------------------------------------------------
   1 C   -0.688565    0.495625    0.452661    0.040809   -0.456908   -0.540680
   2 C   -0.688565    0.495625    0.452661    0.040809   -0.456908   -0.540680
   3 H    0.094278    0.002188    0.002648    0.000240   -0.000525   -0.000304
   4 H    0.094291    0.002188    0.002648    0.000240   -0.000525   -0.000304
   5 H    0.094286    0.002188    0.002648    0.000240   -0.000525   -0.000304
   6 H    0.094274    0.002188    0.002648    0.000240   -0.000525   -0.000304
  ----------------------------------------------------------------------------
  Sum:   -1.000000    1.000000    0.915915    0.082578   -0.915915   -1.082578
  
  Multipole moment analysis of the density matrix
    Molecular charge:                      -1.000000
    Number of electrons:                   17.000000
      Center of electronic charge [Ang]: [ -0.000000,   0.000000,  -0.000000]
    Total nuclear charge:                  16.000000
      Center of nuclear charge [Ang]:    [  0.000000,   0.000000,   0.000000]
    Dipole moment [D]:                     0.000002
      Cartesian components [D]:          [  0.000000,  -0.000002,   0.000000]
    RMS size of the density [Ang]:         1.783688
      Cartesian components [Ang]:        [  1.172393,   0.822455,   1.063299]
  
  Exciton analysis of the difference density matrix
  Total:
    <r_h> [Ang]:                  [ -0.000000,   0.000000,   0.000000]
    <r_e> [Ang]:                  [  0.000000,   0.000000,  -0.000000]
    |<r_e - r_h>| [Ang]:            0.000000
    Hole size [Ang]:                1.248192
      Cartesian components [Ang]: [  0.746692,   0.508551,   0.861283]
    Electron size [Ang]:            4.046716
      Cartesian components [Ang]: [  2.295344,   1.666895,   2.885960]
  
  Alpha spin:
    <r_h> [Ang]:                  [ -0.000000,   0.000000,   0.000000]
    <r_e> [Ang]:                  [ -0.000000,   0.000000,  -0.000000]
    |<r_e - r_h>| [Ang]:            0.000000
    Hole size [Ang]:                1.247409
      Cartesian components [Ang]: [  0.746359,   0.508123,   0.860691]
    Electron size [Ang]:            4.044605
      Cartesian components [Ang]: [  2.457120,   1.607048,   2.781868]
  
  Beta spin:
    <r_h> [Ang]:                  [ -0.000000,   0.000000,   0.000000]
    <r_e> [Ang]:                  [  0.000000,   0.000000,  -0.000000]
    |<r_e - r_h>| [Ang]:            0.000000
    Hole size [Ang]:                1.256842
      Cartesian components [Ang]: [  0.750379,   0.513276,   0.867832]
    Electron size [Ang]:            4.048500
      Cartesian components [Ang]: [  2.148984,   1.715900,   2.971180]
  ----------------------------------------------------------------------------


  Electron-attached state 10 (B2g)                                  [converged]
  ----------------------------------------------------------------------------
  Term symbol:  10 (2) B2g                                  R^2 =  1.44537e-13

  Total energy:                                            -77.7596987143 a.u.
  Electron attachment energy:                                     15.248518 eV

  Pole strength:                                                      0.000008

  Dip. moment [a.u.]:                  [   0.000000,   -0.000001,   -0.000000]
  Total dipole [Debye]:                                               0.000002
  <r^2> [a.u.]:                        [ 104.259845,   44.349689,   34.666591]
  Total <r^2> [a.u.]:                                               183.276125

  V1^2 = 0.0000, V2^2 = 1.0000

  Important amplitudes:
       occ i       vir a        vir b           v   
    -------------------------------------------------
     1 (B1u) A    3 (B3u) A    5 (Ag ) B     -0.5762
     1 (B1u) B    5 (Ag ) B    3 (B3u) B      0.3195
    -------------------------------------------------

  Density matrix analysis:
  ------------------------
  NOs (alpha)
    Occupation of frontier NOs:
       0.1747   0.6643
    Number of electrons:  8.000000
  NOs (beta)
    Occupation of frontier NOs:
       0.3363   0.7645
    Number of electrons:  9.000000
  NOs (spin-traced)
    Occupation of frontier NOs:
       0.9380   1.0006
    Number of electrons: 17.000000
    Number of unpaired electrons: n_u =  3.27716, n_u,nl =  3.02322
    NO participation ratio (PR_NO):  3.727002
  
  
  Mulliken Population Analysis
  Atom  Charge (e)    Spin (e)  h+ (alpha)   h+ (beta)  e- (alpha)   e- (beta)
  ----------------------------------------------------------------------------
   1 C   -0.776247    0.601447    0.393325    0.100890   -0.388501   -0.697513
   2 C   -0.776247    0.601447    0.393325    0.100890   -0.388501   -0.697513
   3 H    0.138120   -0.050724    0.002301    0.000590   -0.004713    0.047722
   4 H    0.138132   -0.050723    0.002301    0.000590   -0.004713    0.047721
   5 H    0.138127   -0.050723    0.002301    0.000590   -0.004712    0.047721
   6 H    0.138115   -0.050724    0.002301    0.000590   -0.004712    0.047722
  ----------------------------------------------------------------------------
  Sum:   -1.000000    1.000000    0.795852    0.204141   -0.795852   -1.204141
  
  Multipole moment analysis of the density matrix
    Molecular charge:                      -1.000000
    Number of electrons:                   17.000000
      Center of electronic charge [Ang]: [ -0.000000,   0.000000,   0.000000]
    Total nuclear charge:                  16.000000
      Center of nuclear charge [Ang]:    [  0.000000,   0.000000,   0.000000]
    Dipole moment [D]:                     0.000002
      Cartesian components [D]:          [  0.000000,  -0.000002,  -0.000000]
    RMS size of the density [Ang]:         1.737519
      Cartesian components [Ang]:        [  1.310495,   0.854716,   0.755670]
  
  Exciton analysis of the difference density matrix
  Total:
    <r_h> [Ang]:                  [ -0.000000,   0.000000,   0.000000]
    <r_e> [Ang]:                  [ -0.000000,   0.000000,   0.000000]
    |<r_e - r_h>| [Ang]:            0.000000
    Hole size [Ang]:                1.251913
      Cartesian components [Ang]: [  0.747880,   0.510242,   0.864647]
    Electron size [Ang]:            3.871381
      Cartesian components [Ang]: [  2.860164,   1.799284,   1.889346]
  
  Alpha spin:
    <r_h> [Ang]:                  [ -0.000000,   0.000000,   0.000000]
    <r_e> [Ang]:                  [ -0.000000,   0.000000,   0.000000]
    |<r_e - r_h>| [Ang]:            0.000000
    Hole size [Ang]:                1.251913
      Cartesian components [Ang]: [  0.747879,   0.510242,   0.864648]
    Electron size [Ang]:            4.256909
      Cartesian components [Ang]: [  3.384657,   1.825205,   1.825923]
  
  Beta spin:
    <r_h> [Ang]:                  [ -0.000000,   0.000000,   0.000000]
    <r_e> [Ang]:                  [ -0.000000,   0.000000,   0.000000]
    |<r_e - r_h>| [Ang]:            0.000000
    Hole size [Ang]:                1.251911
      Cartesian components [Ang]: [  0.747881,   0.510242,   0.864644]
    Electron size [Ang]:            3.593946
      Cartesian components [Ang]: [  2.452703,   1.781946,   1.930120]
  ----------------------------------------------------------------------------


--------------------------------------------------------------------------------
  Time of ADC calculation:  CPU 35.70 s  wall 10.62 s
================================================================================
 
 --------------------------------------------------------------
             Orbital Energies (a.u.) and Symmetries
 --------------------------------------------------------------
 
 Alpha MOs, Restricted
 -- Occupied --                  
-11.237 -11.235  -1.042  -0.782  -0.660  -0.567  -0.515  -0.377
  1 Ag    1 B3u   2 Ag    2 B3u   1 B2u   3 Ag    1 B1g   1 B1u                
 -- Virtual --                   
  0.060   0.068   0.077   0.081   0.087   0.093   0.124   0.164
  3 B3u   2 B2u   2 B1u   4 Ag    1 B2g   2 B1g   5 Ag    2 B2g                
  0.197   0.262   0.272   0.291   0.294   0.297   0.301   0.340
  4 B3u   6 Ag    3 B2u   5 B3u   3 B1g   7 Ag    3 B1u   4 B2u                
  0.365   0.381   0.550   0.603   0.815   0.859   0.896   0.931
  6 B3u   3 B2g   4 B1g   7 B3u   8 Ag    5 B2u   9 Ag    8 B3u                
  0.956   1.033   1.040   1.050   1.077   1.095   1.114   1.267
  6 B2u   4 B1u  10 Ag    5 B1g   4 B2g   9 B3u   1 B3g  10 B3u                
  1.285   1.287   1.391   1.617   1.630   1.720   1.867   1.942
  1 Au    5 B1u   6 B1g  11 Ag    7 B1g   7 B2u   5 B2g   6 B1u                
  1.947   2.017   2.047   2.083   2.178   2.324   2.412   2.462
 11 B3u   2 B3g  12 Ag    8 B2u   6 B2g  12 B3u   2 Au   13 Ag                 
  2.576   2.583   2.812   2.821   3.247   3.339
 13 B3u   8 B1g   9 B2u  14 Ag   14 B3u   9 B1g                                
 
 Beta MOs, Restricted
 -- Occupied --                  
-11.237 -11.235  -1.042  -0.782  -0.660  -0.567  -0.515  -0.377
  1 Ag    1 B3u   2 Ag    2 B3u   1 B2u   3 Ag    1 B1g   1 B1u                
 -- Virtual --                   
  0.060   0.068   0.077   0.081   0.087   0.093   0.124   0.164
  3 B3u   2 B2u   2 B1u   4 Ag    1 B2g   2 B1g   5 Ag    2 B2g                
  0.197   0.262   0.272   0.291   0.294   0.297   0.301   0.340
  4 B3u   6 Ag    3 B2u   5 B3u   3 B1g   7 Ag    3 B1u   4 B2u                
  0.365   0.381   0.550   0.603   0.815   0.859   0.896   0.931
  6 B3u   3 B2g   4 B1g   7 B3u   8 Ag    5 B2u   9 Ag    8 B3u                
  0.956   1.033   1.040   1.050   1.077   1.095   1.114   1.267
  6 B2u   4 B1u  10 Ag    5 B1g   4 B2g   9 B3u   1 B3g  10 B3u                
  1.285   1.287   1.391   1.617   1.630   1.720   1.867   1.942
  1 Au    5 B1u   6 B1g  11 Ag    7 B1g   7 B2u   5 B2g   6 B1u                
  1.947   2.017   2.047   2.083   2.178   2.324   2.412   2.462
 11 B3u   2 B3g  12 Ag    8 B2u   6 B2g  12 B3u   2 Au   13 Ag                 
  2.576   2.583   2.812   2.821   3.247   3.339
 13 B3u   8 B1g   9 B2u  14 Ag   14 B3u   9 B1g                                
 --------------------------------------------------------------
 
          Ground-State Mulliken Net Atomic Charges

     Atom                 Charge (a.u.)
  ----------------------------------------
      1 C                    -0.169677
      2 C                    -0.169677
      3 H                     0.084834
      4 H                     0.084847
      5 H                     0.084842
      6 H                     0.084830
  ----------------------------------------
  Sum of atomic charges =     0.000000

 -----------------------------------------------------------------
                    Cartesian Multipole Moments
 -----------------------------------------------------------------
    Charge (ESU x 10^10)
                -0.0000
    Dipole Moment (Debye)
         X      -0.0000      Y      -0.0000      Z      -0.0000
       Tot       0.0000
    Quadrupole Moments (Debye-Ang)
        XX     -12.9236     XY       0.0000     YY     -11.9644
        XZ       0.0000     YZ      -0.0000     ZZ     -16.1249
    Octopole Moments (Debye-Ang^2)
       XXX       0.0000    XXY      -0.0000    XYY       0.0000
       YYY      -0.0000    XXZ       0.0000    XYZ       0.0000
       YYZ       0.0000    XZZ       0.0000    YZZ      -0.0000
       ZZZ      -0.0000
    Hexadecapole Moments (Debye-Ang^3)
      XXXX     -68.1247   XXXY       0.0000   XXYY     -13.2270
      XYYY      -0.0000   YYYY     -26.8814   XXXZ      -0.0000
      XXYZ      -0.0000   XYYZ       0.0000   YYYZ      -0.0000
      XXZZ     -15.5725   XYZZ       0.0000   YYZZ      -8.9648
      XZZZ       0.0000   YZZZ      -0.0000   ZZZZ     -21.5564
 -----------------------------------------------------------------
 Total job time:  91.32s(wall), 77.72s(cpu) 
 Fri Feb 25 15:27:20 2022

        *************************************************************
        *                                                           *
        *  Thank you very much for using Q-Chem.  Have a nice day.  *
        *                                                           *
        *************************************************************


