/src/tsommerfeld/qchem/exe/qcprog.exe .input2.019231.1127.qcin.1 /src/jdavis/qchem.scratch/qchem1127/

                  Welcome to Q-Chem
     A Quantum Leap Into The Future Of Chemistry


 Q-Chem 5.4 (devel), Q-Chem, Inc., Pleasanton, CA (2021)

 E. Epifanovsky,  A. T. B. Gilbert,  Xintian Feng,  Joonho Lee,  Yuezhi Mao,  
 N. Mardirossian,  P. Pokhilko,  A. White,  M. Wormit,  M. P. Coons,  
 A. L. Dempwolff,  Zhengting Gan,  D. Hait,  P. R. Horn,  L. D. Jacobson,  
 I. Kaliman,  J. Kussmann,  A. W. Lange,  Ka Un Lao,  D. S. Levine,  Jie Liu,  
 S. C. McKenzie,  A. F. Morrison,  K. Nanda,  F. Plasser,  D. R. Rehn,  
 M. L. Vidal,  Zhi-Qiang You,  Ying Zhu,  B. Alam,  B. Albrecht,  
 A. Aldossary,  E. Alguire,  J. H. Andersen,  D. Barton,  K. Begam,  A. Behn,  
 Y. A. Bernard,  E. J. Berquist,  H. Burton,  A. Carreras,  K. Carter-Fenk,  
 R. Chakraborty,  A. D. Chien,  K. D. Closser,  V. Cofer-Shabica,  
 S. Dasgupta,  Jia Deng,  M. de Wergifosse,  M. Diedenhofen,  Hainam Do,  
 S. Ehlert,  Po-Tung Fang,  S. Fatehi,  Qingguo Feng,  T. Friedhoff,  
 J. Gayvert,  Qinghui Ge,  G. Gidofalvi,  M. Goldey,  J. Gomes,  
 C. Gonzalez-Espinoza,  S. Gulania,  A. Gunina,  M. W. D. Hanson-Heine,  
 P. H. P. Harbach,  A. W. Hauser,  M. F. Herbst,  M. Hernandez Vera,  
 M. Hodecker,  Z. C. Holden,  S. Houck,  Xunkun Huang,  Kerwin Hui,  
 B. C. Huynh,  M. Ivanov,  Hyunjun Ji,  Hanjie Jiang,  B. Kaduk,  S. Kaehler,  
 K. Khistyaev,  Jaehoon Kim,  P. Klunzinger,  Z. Koczor-Benda,  
 Joong Hoon Koh,  D. Kosenkov,  L. Koulias,  T. Kowalczyk,  C. M. Krauter,  
 K. Kue,  A. Kunitsa,  T. Kus,  A. Landau,  K. V. Lawler,  D. Lefrancois,  
 S. Lehtola,  Rain Li,  Yi-Pei Li,  Jiashu Liang,  M. Liebenthal,  
 Hung-Hsuan Lin,  You-Sheng Lin,  Fenglai Liu,  Kuan-Yu Liu,  
 M. Loipersberger,  A. Luenser,  A. Manjanath,  P. Manohar,  E. Mansoor,  
 S. F. Manzer,  Shan-Ping Mao,  A. V. Marenich,  T. Markovich,  S. Mason,  
 S. A. Maurer,  P. F. McLaughlin,  M. F. S. J. Menger,  J.-M. Mewes,  
 S. A. Mewes,  P. Morgante,  J. W. Mullinax,  K. J. Oosterbaan,  G. Paran,  
 Alexander C. Paul,  Suranjan K. Paul,  F. Pavosevic,  Zheng Pei,  S. Prager,  
 E. I. Proynov,  E. Ramos,  B. Rana,  A. E. Rask,  A. Rettig,  R. M. Richard,  
 F. Rob,  E. Rossomme,  T. Scheele,  M. Scheurer,  M. Schneider,  
 N. Sergueev,  S. M. Sharada,  W. Skomorowski,  D. W. Small,  C. J. Stein,  
 Yu-Chuan Su,  E. J. Sundstrom,  Zhen Tao,  J. Thirman,  T. Tsuchimochi,  
 N. M. Tubman,  S. P. Veccham,  O. Vydrov,  J. Wenzel,  J. Witte,  A. Yamada,  
 Kun Yao,  S. Yeganeh,  S. R. Yost,  A. Zech,  Igor Ying Zhang,  Xing Zhang,  
 Yu Zhang,  D. Zuev,  A. Aspuru-Guzik,  A. T. Bell,  N. A. Besley,  
 K. B. Bravaya,  B. R. Brooks,  D. Casanova,  Jeng-Da Chai,  S. Coriani,  
 C. J. Cramer,  A. E. DePrince, III,  R. A. DiStasio Jr.,  A. Dreuw,  
 B. D. Dunietz,  T. R. Furlani,  W. A. Goddard III,  S. Grimme,  
 S. Hammes-Schiffer,  T. Head-Gordon,  W. J. Hehre,  Chao-Ping Hsu,  
 T.-C. Jagau,  Yousung Jung,  A. Klamt,  Jing Kong,  D. S. Lambrecht,  
 WanZhen Liang,  N. J. Mayhall,  C. W. McCurdy,  J. B. Neaton,  
 C. Ochsenfeld,  J. A. Parkhill,  R. Peverati,  V. A. Rassolov,  Yihan Shao,  
 L. V. Slipchenko,  T. Stauch,  R. P. Steele,  J. E. Subotnik,  
 A. J. W. Thom,  A. Tkatchenko,  D. G. Truhlar,  T. Van Voorhis,  
 T. A. Wesolowski,  K. B. Whaley,  H. L. Woodcock III,  P. M. Zimmerman,  
 S. Faraji,  P. M. W. Gill,  M. Head-Gordon,  J. M. Herbert,  A. I. Krylov

 Additional authors for Version 5.4.1: 
 S. Kotaru,  Shaozhi Li,  Xiangyuan Li,  F. Matz,  A. Molle,  Haisheng Ren,  
 Yingli Su,  Hung-Yi Tsai,  C. Utku,  Fang Wang

 Contributors to earlier versions of Q-Chem not listed above: 
 R. D. Adamson,  B. Austin,  R. Baer,  J. Baker,  G. J. O. Beran,  
 K. Brandhorst,  S. T. Brown,  E. F. C. Byrd,  A. K. Chakraborty,  
 G. K. L. Chan,  Chun-Min Chang,  Yunqing Chen,  C.-L. Cheng,  
 Siu Hung Chien,  D. M. Chipman,  D. L. Crittenden,  H. Dachsel,  
 R. J. Doerksen,  A. D. Dutoi,  R. G. Edgar,  J. Fosso-Tande,  
 L. Fusti-Molnar,  D. Ghosh,  A. Ghysels,  A. Golubeva-Zadorozhnaya,  
 J. Gonthier,  M. S. Gordon,  S. R. Gwaltney,  G. Hawkins,  J. E. Herr,  
 A. Heyden,  S. Hirata,  E. G. Hohenstein,  G. Kedziora,  F. J. Keil,  
 C. Kelley,  Jihan Kim,  R. A. King,  R. Z. Khaliullin,  P. P. Korambath,  
 W. Kurlancheek,  A. Laurent,  A. M. Lee,  M. S. Lee,  S. V. Levchenko,  
 Ching Yeh Lin,  D. Liotard,  E. Livshits,  R. C. Lochan,  I. Lotan,  
 L. A. Martinez-Martinez,  P. E. Maslen,  N. Nair,  D. P. O'Neill,  
 D. Neuhauser,  E. Neuscamman,  C. M. Oana,  R. Olivares-Amaya,  R. Olson,  
 T. M. Perrine,  B. Peters,  P. A. Pieniazek,  A. Prociuk,  Y. M. Rhee,  
 J. Ritchie,  M. A. Rohrdanz,  E. Rosta,  N. J. Russ,  H. F. Schaefer III,  
 M. W. Schmidt,  N. E. Schultz,  S. Sharma,  N. Shenvi,  C. D. Sherrill,  
 A. C. Simmonett,  A. Sodt,  T. Stein,  D. Stuck,  K. S. Thanthiriwatte,  
 V. Vanovschi,  L. Vogt,  Tao Wang,  A. Warshel,  M. A. Watson,  
 C. F. Williams,  Q. Wu,  X. Xu,  Jun Yang,  W. Zhang,  Yan Zhao

 Please cite Q-Chem as follows:
 Y. Shao et al., Mol. Phys. 113, 184-215 (2015)
 DOI: 10.1080/00268976.2014.952696

 Q-Chem 5.4.1 for Intel X86 EM64T Linux

 Parts of Q-Chem use Armadillo 9.900.5 (Nocturnal Misbehaviour).
 http://arma.sourceforge.net/

 Q-Chem begins on Fri Feb 25 15:42:32 2022  

 Host: node01
0

     Scratch files written to /src/jdavis/qchem.scratch/qchem1127//
 Processing $rem in /src/tsommerfeld/qchem/config/preferences:
 Processing $rem in /home/jdavis/.qchemrc:

 Checking the input file for inconsistencies... 	...done.

--------------------------------------------------------------
User input:
--------------------------------------------------------------
$molecule
0 1
C        -0.6645000000    0.0000000000   -0.2082049804
C         0.6645000000    0.0000000000   -0.2082049804
H        -1.1590800000    0.0000000000    0.7541440196
H         1.1590800000    0.0000000000    0.7541440196
H        -1.1590800000    0.0000000000   -1.1705529804
H         1.1590800000    0.0000000000   -1.1705529804
$end

$rem
   METHOD adc(2)
   BASIS gen
   PURECART 11
   EA_STATES [0,0,10,0,0,0,0,0]
   scf_convergence 8
   ADC_DAVIDSON_MAXITER 120
   ADC_DAVIDSON_MAXSUBSPACE 200
   adc_nguess_singles 100
   THRESH 14
   S2THRESH 14
   adc_davidson_conv 5
   adc_davidson_thresh 14
   THREADS 10
   MEM_TOTAL 95000
   STATE_ANALYSIS TRUE
$end
$basis
C 1
S   9   1.00
      6.665000D+03           6.920000D-04
      1.000000D+03           5.329000D-03
      2.280000D+02           2.707700D-02
      6.471000D+01           1.017180D-01
      2.106000D+01           2.747400D-01
      7.495000D+00           4.485640D-01
      2.797000D+00           2.850740D-01
      5.215000D-01           1.520400D-02
      1.596000D-01          -3.191000D-03
S   9   1.00
      6.665000D+03          -1.460000D-04
      1.000000D+03          -1.154000D-03
      2.280000D+02          -5.725000D-03
      6.471000D+01          -2.331200D-02
      2.106000D+01          -6.395500D-02
      7.495000D+00          -1.499810D-01
      2.797000D+00          -1.272620D-01
      5.215000D-01           5.445290D-01
      1.596000D-01           5.804960D-01
S   1   1.00
      1.596000D-01           1.000000D+00
S   1   1.00
      0.0469000              1.0000000
P   4   1.00
      9.439000D+00           3.810900D-02
      2.002000D+00           2.094800D-01
      5.456000D-01           5.085570D-01
      1.517000D-01           4.688420D-01
P   1   1.00
      1.517000D-01           1.000000D+00
P   1   1.00
      0.0875192      1.0000000
P   1   1.00
      0.0437596      1.0000000
D   1   1.00
      5.500000D-01           1.0000000
****
C 2
S   9   1.00
      6.665000D+03           6.920000D-04
      1.000000D+03           5.329000D-03
      2.280000D+02           2.707700D-02
      6.471000D+01           1.017180D-01
      2.106000D+01           2.747400D-01
      7.495000D+00           4.485640D-01
      2.797000D+00           2.850740D-01
      5.215000D-01           1.520400D-02
      1.596000D-01          -3.191000D-03
S   9   1.00
      6.665000D+03          -1.460000D-04
      1.000000D+03          -1.154000D-03
      2.280000D+02          -5.725000D-03
      6.471000D+01          -2.331200D-02
      2.106000D+01          -6.395500D-02
      7.495000D+00          -1.499810D-01
      2.797000D+00          -1.272620D-01
      5.215000D-01           5.445290D-01
      1.596000D-01           5.804960D-01
S   1   1.00
      1.596000D-01           1.000000D+00
S   1   1.00
      0.0469000              1.0000000
P   4   1.00
      9.439000D+00           3.810900D-02
      2.002000D+00           2.094800D-01
      5.456000D-01           5.085570D-01
      1.517000D-01           4.688420D-01
P   1   1.00
      1.517000D-01           1.000000D+00
P   1   1.00
      0.0875192      1.0000000
P   1   1.00
      0.0437596      1.0000000
D   1   1.00
      5.500000D-01           1.0000000
****
H 3
cc-pVDZ
****
H 4
cc-pVDZ
****
H 5
cc-pVDZ
****
H 6
cc-pVDZ
****
$end
--------------------------------------------------------------
 Atom   2: ( -0.6645000000, -0.0000001250,  0.0000000000)
         ->( -0.6645000000,  0.0000001250, -0.0000000000)
 Atom   1: (  0.6645000000, -0.0000001250, -0.0000000000)
         ->(  0.6645000000,  0.0000000000,  0.0000000000)
 Atom   6: ( -1.1590800000, -0.9623481250, -0.0000000000)
         ->( -1.1590800000, -0.9623488750,  0.0000000000)
 Atom   5: (  1.1590800000, -0.9623481250, -0.0000000000)
         ->(  1.1590800000, -0.9623488750, -0.0000000000)
 ----------------------------------------------------------------
             Standard Nuclear Orientation (Angstroms)
    I     Atom           X                Y                Z
 ----------------------------------------------------------------
    1      C       0.6645000000     0.0000000000     0.0000000000
    2      C      -0.6645000000     0.0000001250    -0.0000000000
    3      H       1.1590800000     0.9623488750     0.0000000000
    4      H      -1.1590800000     0.9623488750     0.0000000000
    5      H       1.1590800000    -0.9623488750    -0.0000000000
    6      H      -1.1590800000    -0.9623488750     0.0000000000
 ----------------------------------------------------------------
 Molecular Point Group                 D2h   NOp =  8
 Largest Abelian Subgroup              D2h   NOp =  8
 Nuclear Repulsion Energy =          33.58921667 hartrees
 There are        8 alpha and        8 beta electrons
 Requested basis set is non-standard
 There are 30 shells and 62 basis functions
 Total memory of 95000 MB is distributed as follows: 
   MEM_STATIC is set to 192 MB
   QALLOC/CCMAN JOB total memory use is  94808 MB
 Warning: actual memory use might exceed 95000 MB

 Total QAlloc Memory Limit  95000 MB
 Mega-Array Size       188 MB
 MEM_STATIC part       192 MB

                       Distance Matrix (Angstroms)
             C (  1)   C (  2)   H (  3)   H (  4)   H (  5)
   C (  2)  1.329000
   H (  3)  1.082000  2.061931
   H (  4)  2.061931  1.082000  2.318160
   H (  5)  1.082000  2.061931  1.924698  3.013026
   H (  6)  2.061931  1.082000  3.013026  1.924698  2.318160
 
 A cutoff of  1.0D-14 yielded    465 shell pairs
 There are      2009 function pairs (      2146 Cartesian)
 Smallest overlap matrix eigenvalue = 2.07E-04

 Scale SEOQF with 1.000000e-01/1.000000e-01/1.000000e-01

 Standard Electronic Orientation quadrupole field applied
 Nucleus-field energy     =     0.0000000006 hartrees
 ================ Generating on-the-fly SAD Guess ================
Attempting to make child job directory: /src/jdavis/qchem.scratch/qchem1127//Frg1/
Attempting to make child job directory: /src/jdavis/qchem.scratch/qchem1127//Frg2/
Creating input file /src/jdavis/qchem.scratch/qchem1127/Frg1.input
using default PutDataFrgm: nothing
calling putenv with: QCSCRATCH=/src/jdavis/qchem.scratch/qchem1127/ 
Spawning Job For Fragment 0
Done Job For Fragment 0
calling putenv with: QCSCRATCH=/src/jdavis/qchem.scratch 
calling putenv with: QCTHREADS=1 
Creating input file /src/jdavis/qchem.scratch/qchem1127/Frg2.input
using default PutDataFrgm: nothing
calling putenv with: QCSCRATCH=/src/jdavis/qchem.scratch/qchem1127/ 
Spawning Job For Fragment 1
Done Job For Fragment 1
calling putenv with: QCSCRATCH=/src/jdavis/qchem.scratch 
calling putenv with: QCTHREADS=1 
 Time for running child jobs:  CPU 1.77 s  wall 53.23 s
 ============= Method Specific SAD Guess Constructed =============
 Guess from on-the-fly superposition of atomic densities
 Warning: Energy on first SCF cycle will be non-variational
 A restricted Hartree-Fock SCF calculation will be
 performed using Pulay DIIS extrapolation
 SCF converges when DIIS error is below 1.0E-08
 using 10 threads for integral computing
 -------------------------------------------------------
 OpenMP Integral computing Module                
 Release: version 1.0, May 2013, Q-Chem Inc. Pittsburgh 
 -------------------------------------------------------
 ---------------------------------------
  Cycle       Energy         DIIS Error
 ---------------------------------------
    1     -78.4588900806      7.95E-02
    2     -78.0145141611      5.76E-03
    3     -78.0358015772      1.51E-03
    4     -78.0374372130      5.02E-04
    5     -78.0376071606      6.08E-05
    6     -78.0376119380      1.29E-05
    7     -78.0376123206      3.05E-06
    8     -78.0376123879      2.77E-07
    9     -78.0376123944      3.53E-08
   10     -78.0376123947      3.70E-09 Convergence criterion met
 ---------------------------------------
 SCF time:  CPU 8.37 s  wall 0.84 s
 SCF   energy in the final basis set = -78.03761239
 Total energy in the final basis set = -78.03761239
================================================================================
|                                                                              |
|                                 A D C  M A N                                 |
|                                                                              |
 ------------------------------------------------------------------------------ 
|                                                                              |
| Components:                                                                  |
|                                                                              |
| - libvmm - 1.3-trunk                                                         |
|   Authors:                                                                   |
|   Evgeny Epifanovsky, Ilya Kaliman                                           |
|                                                                              |
| - libtensor - 2.5-trunk                                                      |
|   Authors:                                                                   |
|   Evgeny Epifanovsky, Michael Wormit, Dmitry Zuev, Sam Manzer,               |
|   Ilya Kaliman                                                               |
|                                                                              |
| - libwfa - 1.1-trunk                                                         |
|   Authors:                                                                   |
|   Felix Plasser, Stefanie Mewes (Baeppler), Benjamin Thomitzni,              |
|   Michael Wormit, Feng Chen, Anna I. Krylov, Pavel Pokhilko                  |
|                                                                              |
| - libadc - 1.1-trunk                                                         |
|   Authors:                                                                   |
|   Michael Wormit, Adrian L. Dempwolff, Philipp H. P. Harbach,                |
|   Caroline Krauter, Dirk Rehn, Matthias Schneider, Jan Wenzel                |
|                                                                              |
| - adcman - 2.6-trunk                                                         |
|   Authors:                                                                   |
|   Michael Wormit, Adrian L. Dempwolff, Philipp H. P. Harbach,                |
|   Caroline Krauter, Daniel Lefrancois, Jan-Michael Mewes, Dirk Rehn,         |
|   Matthias Schneider, Jan Wenzel, Andreas Dreuw                              |
|                                                                              |
| Authors of earlier versions of ADCMAN:                                       |
| Andreas Dreuw, Jan Hendrik Starcke, Dirk Rehn, Michael Wormit                |
|                                                                              |
================================================================================

 
 Alpha MOs, Restricted
 -- Occupied --                  
-11.237 -11.235  -1.042  -0.782  -0.660  -0.567  -0.515  -0.377
  1 Ag    1 B3u   2 Ag    2 B3u   1 B2u   3 Ag    1 B1g   1 B1u                
 -- Virtual --                   
  0.079   0.090   0.091   0.102   0.103   0.125   0.144   0.193
  3 B3u   2 B2u   4 Ag    1 B2g   2 B1u   2 B1g   5 Ag    2 B2g                
  0.217   0.262   0.323   0.331   0.363   0.368   0.368   0.383
  4 B3u   6 Ag    3 B2u   5 B3u   6 B3u   7 Ag    4 B2u   3 B1u                
  0.399   0.468   0.545   0.619   0.838   0.849   0.933   0.980
  3 B1g   3 B2g   4 B1g   7 B3u   8 Ag    5 B2u   8 B3u   9 Ag                 
  1.025   1.077   1.092   1.114   1.146   1.160   1.207   1.285
  5 B1g  10 Ag    6 B2u   1 B3g   9 B3u   4 B1u   4 B2g   1 Au                 
  1.294   1.311   1.473   1.624   1.720   1.736   1.878   1.945
  5 B1u  10 B3u   6 B1g  11 Ag    7 B1g   7 B2u   5 B2g   6 B1u                
  1.967   2.017   2.083   2.101   2.183   2.334   2.412   2.477
 11 B3u   2 B3g  12 Ag    8 B2u   6 B2g  12 B3u   2 Au   13 Ag                 
  2.562   2.581   2.855   2.856   3.275   3.347
  8 B1g  13 B3u   9 B2u  14 Ag   14 B3u   9 B1g                                
 
 Beta MOs, Restricted
 -- Occupied --                  
-11.237 -11.235  -1.042  -0.782  -0.660  -0.567  -0.515  -0.377
  1 Ag    1 B3u   2 Ag    2 B3u   1 B2u   3 Ag    1 B1g   1 B1u                
 -- Virtual --                   
  0.079   0.090   0.091   0.102   0.103   0.125   0.144   0.193
  3 B3u   2 B2u   4 Ag    1 B2g   2 B1u   2 B1g   5 Ag    2 B2g                
  0.217   0.262   0.323   0.331   0.363   0.368   0.368   0.383
  4 B3u   6 Ag    3 B2u   5 B3u   6 B3u   7 Ag    4 B2u   3 B1u                
  0.399   0.468   0.545   0.619   0.838   0.849   0.933   0.980
  3 B1g   3 B2g   4 B1g   7 B3u   8 Ag    5 B2u   8 B3u   9 Ag                 
  1.025   1.077   1.092   1.114   1.146   1.160   1.207   1.285
  5 B1g  10 Ag    6 B2u   1 B3g   9 B3u   4 B1u   4 B2g   1 Au                 
  1.294   1.311   1.473   1.624   1.720   1.736   1.878   1.945
  5 B1u  10 B3u   6 B1g  11 Ag    7 B1g   7 B2u   5 B2g   6 B1u                
  1.967   2.017   2.083   2.101   2.183   2.334   2.412   2.477
 11 B3u   2 B3g  12 Ag    8 B2u   6 B2g  12 B3u   2 Au   13 Ag                 
  2.562   2.581   2.855   2.856   3.275   3.347
  8 B1g  13 B3u   9 B2u  14 Ag   14 B3u   9 B1g                                

--------------------------------------------------------------------------------
                                   HF Summary                                   
--------------------------------------------------------------------------------
  Energy:                                                  -78.0376123947 a.u.
  Dip. moment [a.u.]:                  [  -0.000000,   -0.000001,    0.000000]
  Total dipole [Debye]:                                               0.000001
  <r^2> [a.u.]:                        [  47.708987,   22.118770,   12.006139]
  Total <r^2> [a.u.]:                                                81.833896
--------------------------------------------------------------------------------

--------------------------------------------------------------------------------
                                 MP(2) Summary                                  
--------------------------------------------------------------------------------
  MP energy contribution:                                   -0.2835924200 a.u.
  Total energy:                                            -78.3212048147 a.u.
  Dip. moment [a.u.]:                  [  -0.000000,   -0.000001,    0.000000]
  Total dipole [Debye]:                                               0.000003
  <r^2> [a.u.]:                        [  47.817144,   22.150072,   11.858313]
  Total <r^2> [a.u.]:                                                81.825529

  Density matrix analysis:
  ------------------------
  NOs (alpha)
    Occupation of frontier NOs:
       0.0224   0.9685
    Number of electrons:  8.000000
  NOs (beta)
    Occupation of frontier NOs:
       0.0224   0.9685
    Number of electrons:  8.000000
  NOs (spin-traced)
    Occupation of frontier NOs:
       0.0448   1.9370
    Number of electrons: 16.000000
    Number of unpaired electrons: n_u =  0.40975, n_u,nl =  0.04610
    NO participation ratio (PR_NO): 13.969880
  
  
  Mulliken Population Analysis
  Atom  Charge (e)    Spin (e)  h+ (alpha)   h+ (beta)  e- (alpha)   e- (beta)
  ----------------------------------------------------------------------------
   1 C   -0.226976   -0.000000    0.043554    0.043554   -0.051300   -0.051300
   2 C   -0.226976   -0.000000    0.043554    0.043554   -0.051300   -0.051300
   3 H    0.113482   -0.000000    0.009130    0.009130   -0.005257   -0.005257
   4 H    0.113500   -0.000000    0.009130    0.009130   -0.005257   -0.005257
   5 H    0.113494   -0.000000    0.009130    0.009130   -0.005257   -0.005257
   6 H    0.113475    0.000000    0.009130    0.009130   -0.005257   -0.005257
  ----------------------------------------------------------------------------
  Sum:    0.000000   -0.000000    0.123630    0.123630   -0.123630   -0.123630
  
  Multipole moment analysis of the density matrix
    Molecular charge:                      0.000000
    Number of electrons:                   16.000000
      Center of electronic charge [Ang]: [  0.000000,   0.000000,  -0.000000]
    Total nuclear charge:                  16.000000
      Center of nuclear charge [Ang]:    [  0.000000,   0.000000,   0.000000]
    Dipole moment [D]:                     0.000003
      Cartesian components [D]:          [ -0.000000,  -0.000003,   0.000000]
    RMS size of the density [Ang]:         1.196701
      Cartesian components [Ang]:        [  0.914814,   0.622628,   0.455567]
  
  Exciton analysis of the difference density matrix
  Total:
    <r_h> [Ang]:                  [ -0.000000,  -0.000000,   0.000000]
    <r_e> [Ang]:                  [  0.000000,   0.000001,  -0.000000]
    |<r_e - r_h>| [Ang]:            0.000002
    Hole size [Ang]:                1.410643
      Cartesian components [Ang]: [  0.958914,   0.719529,   0.743423]
    Electron size [Ang]:            1.407281
      Cartesian components [Ang]: [  1.020787,   0.743755,   0.620693]
  
  Alpha spin:
    <r_h> [Ang]:                  [ -0.000000,  -0.000000,   0.000000]
    <r_e> [Ang]:                  [  0.000000,   0.000001,  -0.000000]
    |<r_e - r_h>| [Ang]:            0.000002
    Hole size [Ang]:                1.410643
      Cartesian components [Ang]: [  0.958914,   0.719529,   0.743423]
    Electron size [Ang]:            1.407281
      Cartesian components [Ang]: [  1.020787,   0.743755,   0.620693]
  
  Beta spin:
    <r_h> [Ang]:                  [ -0.000000,  -0.000000,   0.000000]
    <r_e> [Ang]:                  [  0.000000,   0.000001,  -0.000000]
    |<r_e - r_h>| [Ang]:            0.000002
    Hole size [Ang]:                1.410643
      Cartesian components [Ang]: [  0.958914,   0.719529,   0.743423]
    Electron size [Ang]:            1.407281
      Cartesian components [Ang]: [  1.020787,   0.743755,   0.620693]
--------------------------------------------------------------------------------
Less particle guess vectors found than requested: 6 (found), 100 (requested).
Adjusting number of hole-2particle guess vectors to 94.
  Starting Davidson for electron-attached states of irrep B2g ... 
--------------------------------------------------------------------------------
   It NVec Conv  Avg. Norm  Max. Norm  Conv. states           Remark
--------------------------------------------------------------------------------
       100    0  4.681e-02  3.253e-01  0.1040 n n n n n n n n Guess.
    1  110    7  2.143e-04  1.432e-03  0.0793 n n n y y y y y 
    2  120   10  1.497e-09  1.163e-08  0.0793 y y y y y y y y Converged.
--------------------------------------------------------------------------------
  Davidson Summary: 
 ------------------------------------------------------------
  State  0: electron attachment energy =   0.0793 a.u.   (converged)
  State  1: electron attachment energy =   0.1570 a.u.   (converged)
  State  2: electron attachment energy =   0.4220 a.u.   (converged)
  State  3: electron attachment energy =   0.5469 a.u.   (converged)
  State  4: electron attachment energy =   0.5470 a.u.   (converged)
  State  5: electron attachment energy =   0.5817 a.u.   (converged)
  State  6: electron attachment energy =   0.5824 a.u.   (converged)
  State  7: electron attachment energy =   0.5915 a.u.   (converged)
  State  8: electron attachment energy =   0.5915 a.u.   (converged)
  State  9: electron attachment energy =   0.6000 a.u.   (converged)
 ------------------------------------------------------------


--------------------------------------------------------------------------------
                        Electron-Attached State Summary
--------------------------------------------------------------------------------

  Electron-attached state 1 (B2g)                                  [converged]
  ----------------------------------------------------------------------------
  Term symbol:  1 (2) B2g                                   R^2 =  1.16327e-08

  Total energy:                                            -78.2418596757 a.u.
  Electron attachment energy:                                      2.159091 eV

  Pole strength:                                                      0.955856

  Dip. moment [a.u.]:                  [  -0.000000,   -0.000002,   -0.000000]
  Total dipole [Debye]:                                               0.000004
  <r^2> [a.u.]:                        [  60.257421,   26.732441,   22.877900]
  Total <r^2> [a.u.]:                                               109.867761

  V1^2 = 0.9666, V2^2 = 0.0334

  Important amplitudes:
       occ i       vir a        vir b           v   
    -------------------------------------------------
                               1 (B2g) B     -0.9410
                               2 (B2g) B      0.2773
    -------------------------------------------------

  Density matrix analysis:
  ------------------------
  NOs (alpha)
    Occupation of frontier NOs:
       0.0183   0.9672
    Number of electrons:  8.000000
  NOs (beta)
    Occupation of frontier NOs:
       0.0221   0.9749
    Number of electrons:  9.000000
  NOs (spin-traced)
    Occupation of frontier NOs:
       0.0315   0.9892
    Number of electrons: 17.000000
    Number of unpaired electrons: n_u =  1.41845, n_u,nl =  1.04462
    NO participation ratio (PR_NO):  2.032065
  
  
  Mulliken Population Analysis
  Atom  Charge (e)    Spin (e)  h+ (alpha)   h+ (beta)  e- (alpha)   e- (beta)
  ----------------------------------------------------------------------------
   1 C   -0.639120    0.535807    0.079365    0.065229   -0.017534   -0.539205
   2 C   -0.639120    0.535807    0.079365    0.065229   -0.017534   -0.539205
   3 H    0.069553   -0.017903    0.000027    0.005129   -0.030944   -0.018142
   4 H    0.069571   -0.017904    0.000027    0.005129   -0.030944   -0.018142
   5 H    0.069567   -0.017904    0.000028    0.005129   -0.030943   -0.018141
   6 H    0.069550   -0.017903    0.000028    0.005129   -0.030942   -0.018140
  ----------------------------------------------------------------------------
  Sum:   -1.000000    1.000000    0.158841    0.150975   -0.158841   -1.150975
  
  Multipole moment analysis of the density matrix
    Molecular charge:                      -1.000000
    Number of electrons:                   17.000000
      Center of electronic charge [Ang]: [  0.000000,   0.000000,   0.000000]
    Total nuclear charge:                  16.000000
      Center of nuclear charge [Ang]:    [  0.000000,   0.000000,   0.000000]
    Dipole moment [D]:                     0.000004
      Cartesian components [D]:          [ -0.000000,  -0.000004,  -0.000000]
    RMS size of the density [Ang]:         1.345277
      Cartesian components [Ang]:        [  0.996281,   0.663584,   0.613882]
  
  Exciton analysis of the difference density matrix
  Total:
    <r_h> [Ang]:                  [  0.000000,   0.000001,  -0.000000]
    <r_e> [Ang]:                  [  0.000000,   0.000000,  -0.000000]
    |<r_e - r_h>| [Ang]:            0.000001
    Hole size [Ang]:                1.491466
      Cartesian components [Ang]: [  1.040100,   0.752520,   0.759194]
    Electron size [Ang]:            2.553698
      Cartesian components [Ang]: [  1.707489,   1.055282,   1.578681]
  
  Alpha spin:
    <r_h> [Ang]:                  [  0.000000,   0.000001,  -0.000000]
    <r_e> [Ang]:                  [  0.000000,   0.000002,   0.000000]
    |<r_e - r_h>| [Ang]:            0.000000
    Hole size [Ang]:                1.423471
      Cartesian components [Ang]: [  1.016457,   0.719580,   0.689413]
    Electron size [Ang]:            2.183694
      Cartesian components [Ang]: [  1.421054,   1.258094,   1.079965]
  
  Beta spin:
    <r_h> [Ang]:                  [  0.000000,   0.000001,  -0.000000]
    <r_e> [Ang]:                  [  0.000000,   0.000000,  -0.000000]
    |<r_e - r_h>| [Ang]:            0.000001
    Hole size [Ang]:                1.559807
      Cartesian components [Ang]: [  1.064408,   0.785686,   0.826273]
    Electron size [Ang]:            2.600630
      Cartesian components [Ang]: [  1.743327,   1.024144,   1.635609]
  ----------------------------------------------------------------------------


  Electron-attached state 2 (B2g)                                  [converged]
  ----------------------------------------------------------------------------
  Term symbol:  2 (2) B2g                                   R^2 =  9.26526e-09

  Total energy:                                            -78.1642211107 a.u.
  Electron attachment energy:                                      4.271744 eV

  Pole strength:                                                      0.962157

  Dip. moment [a.u.]:                  [  -0.000000,   -0.000002,   -0.000000]
  Total dipole [Debye]:                                               0.000004
  <r^2> [a.u.]:                        [  66.916970,   28.871117,   29.828984]
  Total <r^2> [a.u.]:                                               125.617071

  V1^2 = 0.9693, V2^2 = 0.0307

  Important amplitudes:
       occ i       vir a        vir b           v   
    -------------------------------------------------
                               2 (B2g) B     -0.9291
                               1 (B2g) B     -0.3102
    -------------------------------------------------

  Density matrix analysis:
  ------------------------
  NOs (alpha)
    Occupation of frontier NOs:
       0.0221   0.9631
    Number of electrons:  8.000000
  NOs (beta)
    Occupation of frontier NOs:
       0.0285   0.9731
    Number of electrons:  9.000000
  NOs (spin-traced)
    Occupation of frontier NOs:
       0.0430   0.9842
    Number of electrons: 17.000000
    Number of unpaired electrons: n_u =  1.43562, n_u,nl =  1.05119
    NO participation ratio (PR_NO):  2.098529
  
  
  Mulliken Population Analysis
  Atom  Charge (e)    Spin (e)  h+ (alpha)   h+ (beta)  e- (alpha)   e- (beta)
  ----------------------------------------------------------------------------
   1 C   -0.638820    0.508246    0.065674    0.044054   -0.017473   -0.504100
   2 C   -0.638820    0.508246    0.065674    0.044054   -0.017473   -0.504100
   3 H    0.069403   -0.004123    0.000108    0.001686   -0.024209   -0.021663
   4 H    0.069421   -0.004123    0.000108    0.001686   -0.024209   -0.021664
   5 H    0.069417   -0.004123    0.000108    0.001686   -0.024208   -0.021663
   6 H    0.069399   -0.004123    0.000108    0.001686   -0.024207   -0.021662
  ----------------------------------------------------------------------------
  Sum:   -1.000000    1.000000    0.131779    0.094851   -0.131779   -1.094851
  
  Multipole moment analysis of the density matrix
    Molecular charge:                      -1.000000
    Number of electrons:                   17.000000
      Center of electronic charge [Ang]: [  0.000000,   0.000000,   0.000000]
    Total nuclear charge:                  16.000000
      Center of nuclear charge [Ang]:    [  0.000000,   0.000000,   0.000000]
    Dipole moment [D]:                     0.000004
      Cartesian components [D]:          [ -0.000000,  -0.000004,  -0.000000]
    RMS size of the density [Ang]:         1.438471
      Cartesian components [Ang]:        [  1.049892,   0.689618,   0.700964]
  
  Exciton analysis of the difference density matrix
  Total:
    <r_h> [Ang]:                  [  0.000000,   0.000002,  -0.000000]
    <r_e> [Ang]:                  [  0.000000,   0.000000,   0.000000]
    |<r_e - r_h>| [Ang]:            0.000001
    Hole size [Ang]:                1.308099
      Cartesian components [Ang]: [  0.965295,   0.673685,   0.570506]
    Electron size [Ang]:            3.211442
      Cartesian components [Ang]: [  2.128961,   1.272088,   2.040264]
  
  Alpha spin:
    <r_h> [Ang]:                  [  0.000000,   0.000002,  -0.000000]
    <r_e> [Ang]:                  [  0.000000,   0.000002,   0.000000]
    |<r_e - r_h>| [Ang]:            0.000000
    Hole size [Ang]:                1.322565
      Cartesian components [Ang]: [  0.964162,   0.661515,   0.618035]
    Electron size [Ang]:            2.136606
      Cartesian components [Ang]: [  1.402219,   1.225527,   1.047355]
  
  Beta spin:
    <r_h> [Ang]:                  [  0.000000,   0.000002,   0.000000]
    <r_e> [Ang]:                  [  0.000000,   0.000000,   0.000000]
    |<r_e - r_h>| [Ang]:            0.000001
    Hole size [Ang]:                1.287733
      Cartesian components [Ang]: [  0.966868,   0.690237,   0.496985]
    Electron size [Ang]:            3.317413
      Cartesian components [Ang]: [  2.200308,   1.277577,   2.128773]
  ----------------------------------------------------------------------------


  Electron-attached state 3 (B2g)                                  [converged]
  ----------------------------------------------------------------------------
  Term symbol:  3 (2) B2g                                   R^2 =  1.67701e-09

  Total energy:                                            -77.8992327316 a.u.
  Electron attachment energy:                                     11.482444 eV

  Pole strength:                                                      0.943612

  Dip. moment [a.u.]:                  [  -0.000000,   -0.000002,   -0.000000]
  Total dipole [Debye]:                                               0.000004
  <r^2> [a.u.]:                        [  61.600959,   27.219208,   25.157540]
  Total <r^2> [a.u.]:                                               113.977707

  V1^2 = 0.9459, V2^2 = 0.0541

  Important amplitudes:
       occ i       vir a        vir b           v   
    -------------------------------------------------
                               3 (B2g) B     -0.9581
                               2 (B2g) B     -0.1499
    -------------------------------------------------

  Density matrix analysis:
  ------------------------
  NOs (alpha)
    Occupation of frontier NOs:
       0.0367   0.9420
    Number of electrons:  8.000000
  NOs (beta)
    Occupation of frontier NOs:
       0.0409   0.9508
    Number of electrons:  9.000000
  NOs (spin-traced)
    Occupation of frontier NOs:
       0.0754   0.9536
    Number of electrons: 17.000000
    Number of unpaired electrons: n_u =  1.50397, n_u,nl =  1.08311
    NO participation ratio (PR_NO):  2.425434
  
  
  Mulliken Population Analysis
  Atom  Charge (e)    Spin (e)  h+ (alpha)   h+ (beta)  e- (alpha)   e- (beta)
  ----------------------------------------------------------------------------
   1 C   -0.648822    0.511717    0.060394    0.043223   -0.015459   -0.510005
   2 C   -0.648822    0.511717    0.060394    0.043223   -0.015459   -0.510005
   3 H    0.074404   -0.005858   -0.001259   -0.000125   -0.021209   -0.016484
   4 H    0.074422   -0.005858   -0.001259   -0.000125   -0.021209   -0.016484
   5 H    0.074418   -0.005859   -0.001259   -0.000125   -0.021208   -0.016484
   6 H    0.074400   -0.005859   -0.001259   -0.000125   -0.021208   -0.016483
  ----------------------------------------------------------------------------
  Sum:   -1.000000    1.000000    0.115752    0.085945   -0.115752   -1.085945
  
  Multipole moment analysis of the density matrix
    Molecular charge:                      -1.000000
    Number of electrons:                   17.000000
      Center of electronic charge [Ang]: [  0.000000,   0.000000,   0.000000]
    Total nuclear charge:                  16.000000
      Center of nuclear charge [Ang]:    [  0.000000,   0.000000,   0.000000]
    Dipole moment [D]:                     0.000004
      Cartesian components [D]:          [ -0.000000,  -0.000004,  -0.000000]
    RMS size of the density [Ang]:         1.370208
      Cartesian components [Ang]:        [  1.007327,   0.669598,   0.643740]
  
  Exciton analysis of the difference density matrix
  Total:
    <r_h> [Ang]:                  [  0.000000,   0.000001,  -0.000000]
    <r_e> [Ang]:                  [  0.000000,   0.000000,   0.000000]
    |<r_e - r_h>| [Ang]:            0.000001
    Hole size [Ang]:                1.343196
      Cartesian components [Ang]: [  0.969836,   0.695724,   0.616085]
    Electron size [Ang]:            2.791982
      Cartesian components [Ang]: [  1.835723,   1.123606,   1.778424]
  
  Alpha spin:
    <r_h> [Ang]:                  [  0.000000,   0.000001,  -0.000000]
    <r_e> [Ang]:                  [  0.000000,   0.000002,  -0.000000]
    |<r_e - r_h>| [Ang]:            0.000001
    Hole size [Ang]:                1.242375
      Cartesian components [Ang]: [  0.918689,   0.625989,   0.554658]
    Electron size [Ang]:            2.108817
      Cartesian components [Ang]: [  1.388259,   1.197471,   1.042070]
  
  Beta spin:
    <r_h> [Ang]:                  [  0.000000,   0.000001,  -0.000000]
    <r_e> [Ang]:                  [  0.000000,   0.000000,   0.000000]
    |<r_e - r_h>| [Ang]:            0.000001
    Hole size [Ang]:                1.468080
      Cartesian components [Ang]: [  1.034734,   0.779850,   0.690230]
    Electron size [Ang]:            2.855177
      Cartesian components [Ang]: [  1.877138,   1.115444,   1.839611]
  ----------------------------------------------------------------------------


  Electron-attached state 4 (B2g)                                  [converged]
  ----------------------------------------------------------------------------
  Term symbol:  4 (2) B2g                                   R^2 =  1.36964e-13

  Total energy:                                            -77.7742770318 a.u.
  Electron attachment energy:                                     14.882662 eV

  Pole strength:                                                      0.000004

  Dip. moment [a.u.]:                  [  -0.000000,   -0.000005,    0.000000]
  Total dipole [Debye]:                                               0.000013
  <r^2> [a.u.]:                        [ 118.244824,   37.302640,   26.078137]
  Total <r^2> [a.u.]:                                               181.625601

  V1^2 = 0.0000, V2^2 = 1.0000

  Important amplitudes:
       occ i       vir a        vir b           v   
    -------------------------------------------------
     1 (B1u) A    3 (B3u) A    4 (Ag ) B      0.5524
     1 (B1u) B    4 (Ag ) B    3 (B3u) B     -0.4217
    -------------------------------------------------

  Density matrix analysis:
  ------------------------
  NOs (alpha)
    Occupation of frontier NOs:
       0.3250   0.6107
    Number of electrons:  8.000000
  NOs (beta)
    Occupation of frontier NOs:
       0.3903   0.6131
    Number of electrons:  9.000000
  NOs (spin-traced)
    Occupation of frontier NOs:
       0.9379   1.0009
    Number of electrons: 17.000000
    Number of unpaired electrons: n_u =  3.27769, n_u,nl =  3.02323
    NO participation ratio (PR_NO):  3.728025
  
  
  Mulliken Population Analysis
  Atom  Charge (e)    Spin (e)  h+ (alpha)   h+ (beta)  e- (alpha)   e- (beta)
  ----------------------------------------------------------------------------
   1 C   -0.766138    0.586606    0.318507    0.175781   -0.294786   -0.738665
   2 C   -0.766138    0.586606    0.318507    0.175781   -0.294786   -0.738665
   3 H    0.133063   -0.043303    0.001840    0.001015   -0.013701    0.030427
   4 H    0.133081   -0.043303    0.001840    0.001015   -0.013701    0.030426
   5 H    0.133075   -0.043303    0.001840    0.001015   -0.013701    0.030427
   6 H    0.133057   -0.043303    0.001840    0.001015   -0.013701    0.030427
  ----------------------------------------------------------------------------
  Sum:   -1.000000    1.000000    0.644374    0.355623   -0.644374   -1.355623
  
  Multipole moment analysis of the density matrix
    Molecular charge:                      -1.000000
    Number of electrons:                   17.000000
      Center of electronic charge [Ang]: [  0.000000,   0.000000,  -0.000000]
    Total nuclear charge:                  16.000000
      Center of nuclear charge [Ang]:    [  0.000000,   0.000000,   0.000000]
    Dipole moment [D]:                     0.000013
      Cartesian components [D]:          [ -0.000000,  -0.000013,   0.000000]
    RMS size of the density [Ang]:         1.729678
      Cartesian components [Ang]:        [  1.395622,   0.783874,   0.655413]
  
  Exciton analysis of the difference density matrix
  Total:
    <r_h> [Ang]:                  [ -0.000000,   0.000000,  -0.000000]
    <r_e> [Ang]:                  [ -0.000000,   0.000001,  -0.000000]
    |<r_e - r_h>| [Ang]:            0.000001
    Hole size [Ang]:                1.252050
      Cartesian components [Ang]: [  0.748127,   0.510123,   0.864702]
    Electron size [Ang]:            3.841518
      Cartesian components [Ang]: [  3.184453,   1.500563,   1.537802]
  
  Alpha spin:
    <r_h> [Ang]:                  [ -0.000000,   0.000000,  -0.000000]
    <r_e> [Ang]:                  [ -0.000000,   0.000000,  -0.000000]
    |<r_e - r_h>| [Ang]:            0.000000
    Hole size [Ang]:                1.252050
      Cartesian components [Ang]: [  0.748127,   0.510123,   0.864702]
    Electron size [Ang]:            3.968714
      Cartesian components [Ang]: [  3.307686,   1.576171,   1.524990]
  
  Beta spin:
    <r_h> [Ang]:                  [ -0.000000,   0.000000,  -0.000000]
    <r_e> [Ang]:                  [ -0.000000,   0.000001,  -0.000000]
    |<r_e - r_h>| [Ang]:            0.000001
    Hole size [Ang]:                1.252050
      Cartesian components [Ang]: [  0.748127,   0.510123,   0.864701]
    Electron size [Ang]:            3.779557
      Cartesian components [Ang]: [  3.124172,   1.463256,   1.543855]
  ----------------------------------------------------------------------------


  Electron-attached state 5 (B2g)                                  [converged]
  ----------------------------------------------------------------------------
  Term symbol:  5 (2) B2g                                   R^2 =  2.51419e-12

  Total energy:                                            -77.7742106808 a.u.
  Electron attachment energy:                                     14.884467 eV

  Pole strength:                                                      0.000222

  Dip. moment [a.u.]:                  [  -0.000000,   -0.000005,    0.000000]
  Total dipole [Debye]:                                               0.000013
  <r^2> [a.u.]:                        [ 118.312833,   37.298985,   26.064636]
  Total <r^2> [a.u.]:                                               181.676453

  V1^2 = 0.0002, V2^2 = 0.9998

  Important amplitudes:
       occ i       vir a        vir b           v   
    -------------------------------------------------
     1 (B1u) A    4 (Ag ) A    3 (B3u) B      0.5623
     1 (B1u) B    4 (Ag ) B    3 (B3u) B      0.3943
    -------------------------------------------------

  Density matrix analysis:
  ------------------------
  NOs (alpha)
    Occupation of frontier NOs:
       0.2808   0.6333
    Number of electrons:  8.000000
  NOs (beta)
    Occupation of frontier NOs:
       0.3684   0.6577
    Number of electrons:  9.000000
  NOs (spin-traced)
    Occupation of frontier NOs:
       0.9382   1.0006
    Number of electrons: 17.000000
    Number of unpaired electrons: n_u =  3.27894, n_u,nl =  3.02331
    NO participation ratio (PR_NO):  3.728718
  
  
  Mulliken Population Analysis
  Atom  Charge (e)    Spin (e)  h+ (alpha)   h+ (beta)  e- (alpha)   e- (beta)
  ----------------------------------------------------------------------------
   1 C   -0.765377    0.431916    0.340477    0.153715   -0.393720   -0.638873
   2 C   -0.765377    0.431916    0.340477    0.153715   -0.393720   -0.638873
   3 H    0.132683    0.034042    0.001966    0.000888    0.024655   -0.008309
   4 H    0.132701    0.034042    0.001966    0.000888    0.024655   -0.008309
   5 H    0.132694    0.034042    0.001966    0.000888    0.024655   -0.008309
   6 H    0.132676    0.034042    0.001966    0.000888    0.024655   -0.008308
  ----------------------------------------------------------------------------
  Sum:   -1.000000    1.000000    0.688818    0.310982   -0.688818   -1.310982
  
  Multipole moment analysis of the density matrix
    Molecular charge:                      -1.000000
    Number of electrons:                   17.000000
      Center of electronic charge [Ang]: [  0.000000,   0.000000,  -0.000000]
    Total nuclear charge:                  16.000000
      Center of nuclear charge [Ang]:    [  0.000000,   0.000000,   0.000000]
    Dipole moment [D]:                     0.000013
      Cartesian components [D]:          [ -0.000000,  -0.000013,   0.000000]
    RMS size of the density [Ang]:         1.729920
      Cartesian components [Ang]:        [  1.396023,   0.783836,   0.655243]
  
  Exciton analysis of the difference density matrix
  Total:
    <r_h> [Ang]:                  [ -0.000000,   0.000000,  -0.000000]
    <r_e> [Ang]:                  [ -0.000000,   0.000001,  -0.000000]
    |<r_e - r_h>| [Ang]:            0.000001
    Hole size [Ang]:                1.252027
      Cartesian components [Ang]: [  0.748131,   0.510118,   0.864668]
    Electron size [Ang]:            3.842611
      Cartesian components [Ang]: [  3.186097,   1.500458,   1.537230]
  
  Alpha spin:
    <r_h> [Ang]:                  [ -0.000000,   0.000000,  -0.000000]
    <r_e> [Ang]:                  [ -0.000000,   0.000002,  -0.000000]
    |<r_e - r_h>| [Ang]:            0.000002
    Hole size [Ang]:                1.252069
      Cartesian components [Ang]: [  0.748140,   0.510136,   0.864711]
    Electron size [Ang]:            3.720158
      Cartesian components [Ang]: [  3.067045,   1.426228,   1.548767]
  
  Beta spin:
    <r_h> [Ang]:                  [ -0.000000,   0.000000,  -0.000000]
    <r_e> [Ang]:                  [ -0.000000,   0.000001,  -0.000000]
    |<r_e - r_h>| [Ang]:            0.000001
    Hole size [Ang]:                1.251932
      Cartesian components [Ang]: [  0.748109,   0.510079,   0.864572]
    Electron size [Ang]:            3.905413
      Cartesian components [Ang]: [  3.246900,   1.538025,   1.531133]
  ----------------------------------------------------------------------------


  Electron-attached state 6 (B2g)                                  [converged]
  ----------------------------------------------------------------------------
  Term symbol:  6 (2) B2g                                   R^2 =  5.47584e-13

  Total energy:                                            -77.7395424404 a.u.
  Electron attachment energy:                                     15.827838 eV

  Pole strength:                                                      0.001637

  Dip. moment [a.u.]:                  [  -0.000000,   -0.000001,   -0.000000]
  Total dipole [Debye]:                                               0.000004
  <r^2> [a.u.]:                        [  73.120924,   36.016054,   53.446487]
  Total <r^2> [a.u.]:                                               162.583464

  V1^2 = 0.0017, V2^2 = 0.9983

  Important amplitudes:
       occ i       vir a        vir b           v   
    -------------------------------------------------
     1 (B1u) B    1 (B2g) B    2 (B1u) B      0.5657
     1 (B1u) A    2 (B1u) A    1 (B2g) B     -0.3803
    -------------------------------------------------

  Density matrix analysis:
  ------------------------
  NOs (alpha)
    Occupation of frontier NOs:
       0.2885   0.6124
    Number of electrons:  8.000000
  NOs (beta)
    Occupation of frontier NOs:
       0.3262   0.7128
    Number of electrons:  9.000000
  NOs (spin-traced)
    Occupation of frontier NOs:
       0.9043   1.0102
    Number of electrons: 17.000000
    Number of unpaired electrons: n_u =  3.19250, n_u,nl =  3.00697
    NO participation ratio (PR_NO):  3.726764
  
  
  Mulliken Population Analysis
  Atom  Charge (e)    Spin (e)  h+ (alpha)   h+ (beta)  e- (alpha)   e- (beta)
  ----------------------------------------------------------------------------
   1 C   -0.727865    0.498979    0.178385    0.317754   -0.179340   -0.817688
   2 C   -0.727865    0.498979    0.178385    0.317754   -0.179340   -0.817688
   3 H    0.113927    0.000510    0.001024    0.001843   -0.000547   -0.001876
   4 H    0.113945    0.000510    0.001024    0.001843   -0.000547   -0.001876
   5 H    0.113939    0.000510    0.001024    0.001843   -0.000547   -0.001876
   6 H    0.113920    0.000510    0.001024    0.001843   -0.000547   -0.001876
  ----------------------------------------------------------------------------
  Sum:   -1.000000    1.000000    0.360867    0.642881   -0.360867   -1.642881
  
  Multipole moment analysis of the density matrix
    Molecular charge:                      -1.000000
    Number of electrons:                   17.000000
      Center of electronic charge [Ang]: [  0.000000,   0.000000,   0.000000]
    Total nuclear charge:                  16.000000
      Center of nuclear charge [Ang]:    [  0.000000,   0.000000,   0.000000]
    Dipole moment [D]:                     0.000004
      Cartesian components [D]:          [ -0.000000,  -0.000004,  -0.000000]
    RMS size of the density [Ang]:         1.636496
      Cartesian components [Ang]:        [  1.097482,   0.770238,   0.938288]
  
  Exciton analysis of the difference density matrix
  Total:
    <r_h> [Ang]:                  [  0.000000,   0.000000,  -0.000000]
    <r_e> [Ang]:                  [  0.000000,   0.000000,   0.000000]
    |<r_e - r_h>| [Ang]:            0.000000
    Hole size [Ang]:                1.275404
      Cartesian components [Ang]: [  0.757220,   0.522118,   0.883553]
    Electron size [Ang]:            3.478643
      Cartesian components [Ang]: [  1.955375,   1.440265,   2.490604]
  
  Alpha spin:
    <r_h> [Ang]:                  [  0.000000,   0.000000,  -0.000000]
    <r_e> [Ang]:                  [  0.000000,   0.000000,   0.000000]
    |<r_e - r_h>| [Ang]:            0.000000
    Hole size [Ang]:                1.280751
      Cartesian components [Ang]: [  0.759412,   0.524978,   0.887702]
    Electron size [Ang]:            3.557098
      Cartesian components [Ang]: [  1.773461,   1.544066,   2.669016]
  
  Beta spin:
    <r_h> [Ang]:                  [  0.000000,   0.000000,  -0.000000]
    <r_e> [Ang]:                  [  0.000000,   0.000000,   0.000000]
    |<r_e - r_h>| [Ang]:            0.000000
    Hole size [Ang]:                1.272392
      Cartesian components [Ang]: [  0.755987,   0.520505,   0.881215]
    Electron size [Ang]:            3.461172
      Cartesian components [Ang]: [  1.993110,   1.416446,   2.449675]
  ----------------------------------------------------------------------------


  Electron-attached state 7 (B2g)                                  [converged]
  ----------------------------------------------------------------------------
  Term symbol:  7 (2) B2g                                   R^2 =  1.18713e-12

  Total energy:                                            -77.7388300488 a.u.
  Electron attachment energy:                                     15.847223 eV

  Pole strength:                                                      0.006569

  Dip. moment [a.u.]:                  [  -0.000000,   -0.000001,   -0.000000]
  Total dipole [Debye]:                                               0.000004
  <r^2> [a.u.]:                        [  73.395394,   36.151337,   53.862174]
  Total <r^2> [a.u.]:                                               163.408905

  V1^2 = 0.0066, V2^2 = 0.9934

  Important amplitudes:
       occ i       vir a        vir b           v   
    -------------------------------------------------
     1 (B1u) A    1 (B2g) A    2 (B1u) B      0.5442
     1 (B1u) A    2 (B1u) A    1 (B2g) B      0.4325
    -------------------------------------------------

  Density matrix analysis:
  ------------------------
  NOs (alpha)
    Occupation of frontier NOs:
       0.3756   0.5979
    Number of electrons:  8.000000
  NOs (beta)
    Occupation of frontier NOs:
       0.4048   0.6186
    Number of electrons:  9.000000
  NOs (spin-traced)
    Occupation of frontier NOs:
       0.9439   0.9954
    Number of electrons: 17.000000
    Number of unpaired electrons: n_u =  3.27914, n_u,nl =  3.02301
    NO participation ratio (PR_NO):  3.728537
  
  
  Mulliken Population Analysis
  Atom  Charge (e)    Spin (e)  h+ (alpha)   h+ (beta)  e- (alpha)   e- (beta)
  ----------------------------------------------------------------------------
   1 C   -0.728491    0.495339    0.478925    0.012882   -0.482013   -0.511309
   2 C   -0.728491    0.495339    0.478925    0.012882   -0.482013   -0.511309
   3 H    0.114240    0.002331    0.002761    0.000073   -0.001217   -0.000859
   4 H    0.114258    0.002331    0.002761    0.000073   -0.001217   -0.000859
   5 H    0.114251    0.002331    0.002761    0.000073   -0.001217   -0.000859
   6 H    0.114233    0.002331    0.002761    0.000073   -0.001217   -0.000859
  ----------------------------------------------------------------------------
  Sum:   -1.000000    1.000000    0.968895    0.026054   -0.968895   -1.026054
  
  Multipole moment analysis of the density matrix
    Molecular charge:                      -1.000000
    Number of electrons:                   17.000000
      Center of electronic charge [Ang]: [  0.000000,   0.000000,   0.000000]
    Total nuclear charge:                  16.000000
      Center of nuclear charge [Ang]:    [  0.000000,   0.000000,   0.000000]
    Dipole moment [D]:                     0.000004
      Cartesian components [D]:          [ -0.000000,  -0.000004,  -0.000000]
    RMS size of the density [Ang]:         1.640645
      Cartesian components [Ang]:        [  1.099540,   0.771683,   0.941930]
  
  Exciton analysis of the difference density matrix
  Total:
    <r_h> [Ang]:                  [  0.000000,   0.000000,  -0.000000]
    <r_e> [Ang]:                  [  0.000000,   0.000000,   0.000000]
    |<r_e - r_h>| [Ang]:            0.000000
    Hole size [Ang]:                1.247892
      Cartesian components [Ang]: [  0.747325,   0.508645,   0.860245]
    Electron size [Ang]:            3.496914
      Cartesian components [Ang]: [  1.966959,   1.447195,   2.503019]
  
  Alpha spin:
    <r_h> [Ang]:                  [  0.000000,   0.000000,  -0.000000]
    <r_e> [Ang]:                  [  0.000000,   0.000000,   0.000000]
    |<r_e - r_h>| [Ang]:            0.000000
    Hole size [Ang]:                1.247510
      Cartesian components [Ang]: [  0.746923,   0.508186,   0.860310]
    Electron size [Ang]:            3.467834
      Cartesian components [Ang]: [  2.029322,   1.407843,   2.434277]
  
  Beta spin:
    <r_h> [Ang]:                  [  0.000000,   0.000000,  -0.000000]
    <r_e> [Ang]:                  [  0.000000,   0.000000,   0.000000]
    |<r_e - r_h>| [Ang]:            0.000000
    Hole size [Ang]:                1.262022
      Cartesian components [Ang]: [  0.762106,   0.525442,   0.857791]
    Electron size [Ang]:            3.524152
      Cartesian components [Ang]: [  1.906198,   1.483396,   2.566241]
  ----------------------------------------------------------------------------


  Electron-attached state 8 (B2g)                                  [converged]
  ----------------------------------------------------------------------------
  Term symbol:  8 (2) B2g                                   R^2 =  4.51780e-15

  Total energy:                                            -77.7296910644 a.u.
  Electron attachment energy:                                     16.095908 eV

  Pole strength:                                                      0.000000

  Dip. moment [a.u.]:                  [  -0.000000,    0.000002,    0.000000]
  Total dipole [Debye]:                                               0.000005
  <r^2> [a.u.]:                        [  80.854555,   73.037804,   25.965705]
  Total <r^2> [a.u.]:                                               179.858063

  V1^2 = 0.0000, V2^2 = 1.0000

  Important amplitudes:
       occ i       vir a        vir b           v   
    -------------------------------------------------
     1 (B1u) A    2 (B1g) A    2 (B2u) B     -0.5091
     1 (B1u) B    2 (B1g) B    2 (B2u) B     -0.4904
    -------------------------------------------------

  Density matrix analysis:
  ------------------------
  NOs (alpha)
    Occupation of frontier NOs:
       0.4499   0.5190
    Number of electrons:  8.000000
  NOs (beta)
    Occupation of frontier NOs:
       0.4822   0.4880
    Number of electrons:  9.000000
  NOs (spin-traced)
    Occupation of frontier NOs:
       0.9379   1.0012
    Number of electrons: 17.000000
    Number of unpaired electrons: n_u =  3.27795, n_u,nl =  3.02320
    NO participation ratio (PR_NO):  3.728359
  
  
  Mulliken Population Analysis
  Atom  Charge (e)    Spin (e)  h+ (alpha)   h+ (beta)  e- (alpha)   e- (beta)
  ----------------------------------------------------------------------------
   1 C   -0.610558    0.477527    0.256591    0.237698   -0.209619   -0.668253
   2 C   -0.610558    0.477527    0.256591    0.237698   -0.209619   -0.668253
   3 H    0.055273    0.011236    0.001482    0.001373   -0.024968   -0.036096
   4 H    0.055292    0.011236    0.001482    0.001373   -0.024968   -0.036096
   5 H    0.055285    0.011236    0.001482    0.001373   -0.024968   -0.036096
   6 H    0.055267    0.011236    0.001482    0.001373   -0.024968   -0.036096
  ----------------------------------------------------------------------------
  Sum:   -1.000000    1.000000    0.519111    0.480889   -0.519111   -1.480889
  
  Multipole moment analysis of the density matrix
    Molecular charge:                      -1.000000
    Number of electrons:                   17.000000
      Center of electronic charge [Ang]: [  0.000000,  -0.000000,  -0.000000]
    Total nuclear charge:                  16.000000
      Center of nuclear charge [Ang]:    [  0.000000,   0.000000,   0.000000]
    Dipole moment [D]:                     0.000005
      Cartesian components [D]:          [ -0.000000,   0.000005,   0.000000]
    RMS size of the density [Ang]:         1.721241
      Cartesian components [Ang]:        [  1.154061,   1.096858,   0.653998]
  
  Exciton analysis of the difference density matrix
  Total:
    <r_h> [Ang]:                  [ -0.000000,   0.000000,  -0.000000]
    <r_e> [Ang]:                  [  0.000000,  -0.000001,  -0.000000]
    |<r_e - r_h>| [Ang]:            0.000001
    Hole size [Ang]:                1.252051
      Cartesian components [Ang]: [  0.748127,   0.510123,   0.864704]
    Electron size [Ang]:            3.809169
      Cartesian components [Ang]: [  2.214849,   2.693533,   1.532675]
  
  Alpha spin:
    <r_h> [Ang]:                  [ -0.000000,   0.000000,  -0.000000]
    <r_e> [Ang]:                  [  0.000000,   0.000000,  -0.000000]
    |<r_e - r_h>| [Ang]:            0.000000
    Hole size [Ang]:                1.252051
      Cartesian components [Ang]: [  0.748127,   0.510123,   0.864704]
    Electron size [Ang]:            4.009118
      Cartesian components [Ang]: [  2.652093,   2.619199,   1.476218]
  
  Beta spin:
    <r_h> [Ang]:                  [ -0.000000,   0.000000,  -0.000000]
    <r_e> [Ang]:                  [  0.000000,  -0.000001,   0.000000]
    |<r_e - r_h>| [Ang]:            0.000001
    Hole size [Ang]:                1.252051
      Cartesian components [Ang]: [  0.748127,   0.510123,   0.864704]
    Electron size [Ang]:            3.736547
      Cartesian components [Ang]: [  2.039508,   2.719109,   1.551979]
  ----------------------------------------------------------------------------


  Electron-attached state 9 (B2g)                                  [converged]
  ----------------------------------------------------------------------------
  Term symbol:  9 (2) B2g                                   R^2 =  1.11054e-14

  Total energy:                                            -77.7296888049 a.u.
  Electron attachment energy:                                     16.095969 eV

  Pole strength:                                                      0.000006

  Dip. moment [a.u.]:                  [  -0.000000,    0.000002,    0.000000]
  Total dipole [Debye]:                                               0.000005
  <r^2> [a.u.]:                        [  80.854651,   73.037073,   25.966194]
  Total <r^2> [a.u.]:                                               179.857919

  V1^2 = 0.0000, V2^2 = 1.0000

  Important amplitudes:
       occ i       vir a        vir b           v   
    -------------------------------------------------
     1 (B1u) A    2 (B2u) A    2 (B1g) B     -0.5770
     1 (B1u) B    2 (B1g) B    2 (B2u) B      0.3048
    -------------------------------------------------

  Density matrix analysis:
  ------------------------
  NOs (alpha)
    Occupation of frontier NOs:
       0.1566   0.6668
    Number of electrons:  8.000000
  NOs (beta)
    Occupation of frontier NOs:
       0.3349   0.7828
    Number of electrons:  9.000000
  NOs (spin-traced)
    Occupation of frontier NOs:
       0.9380   1.0012
    Number of electrons: 17.000000
    Number of unpaired electrons: n_u =  3.27806, n_u,nl =  3.02321
    NO participation ratio (PR_NO):  3.728445
  
  
  Mulliken Population Analysis
  Atom  Charge (e)    Spin (e)  h+ (alpha)   h+ (beta)  e- (alpha)   e- (beta)
  ----------------------------------------------------------------------------
   1 C   -0.610541    0.437244    0.402455    0.091832   -0.375616   -0.502237
   2 C   -0.610541    0.437244    0.402455    0.091832   -0.375616   -0.502237
   3 H    0.055265    0.031378    0.002325    0.000530   -0.015745   -0.045328
   4 H    0.055283    0.031378    0.002325    0.000530   -0.015745   -0.045328
   5 H    0.055276    0.031378    0.002325    0.000530   -0.015745   -0.045328
   6 H    0.055258    0.031378    0.002325    0.000530   -0.015745   -0.045328
  ----------------------------------------------------------------------------
  Sum:   -1.000000    1.000000    0.814210    0.185785   -0.814210   -1.185785
  
  Multipole moment analysis of the density matrix
    Molecular charge:                      -1.000000
    Number of electrons:                   17.000000
      Center of electronic charge [Ang]: [  0.000000,  -0.000000,  -0.000000]
    Total nuclear charge:                  16.000000
      Center of nuclear charge [Ang]:    [  0.000000,   0.000000,   0.000000]
    Dipole moment [D]:                     0.000005
      Cartesian components [D]:          [ -0.000000,   0.000005,   0.000000]
    RMS size of the density [Ang]:         1.721240
      Cartesian components [Ang]:        [  1.154062,   1.096853,   0.654005]
  
  Exciton analysis of the difference density matrix
  Total:
    <r_h> [Ang]:                  [ -0.000000,   0.000000,  -0.000000]
    <r_e> [Ang]:                  [  0.000000,  -0.000001,   0.000000]
    |<r_e - r_h>| [Ang]:            0.000001
    Hole size [Ang]:                1.252059
      Cartesian components [Ang]: [  0.748130,   0.510127,   0.864710]
    Electron size [Ang]:            3.809172
      Cartesian components [Ang]: [  2.214855,   2.693518,   1.532700]
  
  Alpha spin:
    <r_h> [Ang]:                  [ -0.000000,   0.000000,  -0.000000]
    <r_e> [Ang]:                  [  0.000000,  -0.000001,   0.000000]
    |<r_e - r_h>| [Ang]:            0.000001
    Hole size [Ang]:                1.252052
      Cartesian components [Ang]: [  0.748127,   0.510123,   0.864704]
    Electron size [Ang]:            3.676027
      Cartesian components [Ang]: [  1.883843,   2.739870,   1.567617]
  
  Beta spin:
    <r_h> [Ang]:                  [ -0.000000,   0.000000,  -0.000000]
    <r_e> [Ang]:                  [  0.000000,  -0.000000,   0.000000]
    |<r_e - r_h>| [Ang]:            0.000001
    Hole size [Ang]:                1.252088
      Cartesian components [Ang]: [  0.748141,   0.510141,   0.864733]
    Electron size [Ang]:            3.897962
      Cartesian components [Ang]: [  2.416022,   2.661223,   1.508257]
  ----------------------------------------------------------------------------


  Electron-attached state 10 (B2g)                                  [converged]
  ----------------------------------------------------------------------------
  Term symbol:  10 (2) B2g                                  R^2 =  1.26199e-13

  Total energy:                                            -77.7212296611 a.u.
  Electron attachment energy:                                     16.326154 eV

  Pole strength:                                                      0.000008

  Dip. moment [a.u.]:                  [  -0.000000,   -0.000001,    0.000000]
  Total dipole [Debye]:                                               0.000003
  <r^2> [a.u.]:                        [  99.845576,   40.006209,   29.535013]
  Total <r^2> [a.u.]:                                               169.386797

  V1^2 = 0.0000, V2^2 = 1.0000

  Important amplitudes:
       occ i       vir a        vir b           v   
    -------------------------------------------------
     1 (B1u) A    3 (B3u) A    5 (Ag ) B      0.5773
     1 (B1u) B    5 (Ag ) B    3 (B3u) B     -0.2923
    -------------------------------------------------

  Density matrix analysis:
  ------------------------
  NOs (alpha)
    Occupation of frontier NOs:
       0.1635   0.6671
    Number of electrons:  8.000000
  NOs (beta)
    Occupation of frontier NOs:
       0.3338   0.7978
    Number of electrons:  9.000000
  NOs (spin-traced)
    Occupation of frontier NOs:
       0.9380   1.0009
    Number of electrons: 17.000000
    Number of unpaired electrons: n_u =  3.27791, n_u,nl =  3.02327
    NO participation ratio (PR_NO):  3.728302
  
  
  Mulliken Population Analysis
  Atom  Charge (e)    Spin (e)  h+ (alpha)   h+ (beta)  e- (alpha)   e- (beta)
  ----------------------------------------------------------------------------
   1 C   -0.768729    0.570556    0.409842    0.084444   -0.395441   -0.640599
   2 C   -0.768729    0.570556    0.409842    0.084444   -0.395441   -0.640599
   3 H    0.134359   -0.035278    0.002367    0.000488   -0.009568    0.027590
   4 H    0.134377   -0.035278    0.002367    0.000488   -0.009568    0.027589
   5 H    0.134370   -0.035278    0.002367    0.000488   -0.009568    0.027589
   6 H    0.134352   -0.035278    0.002367    0.000488   -0.009568    0.027590
  ----------------------------------------------------------------------------
  Sum:   -1.000000    1.000000    0.829153    0.170840   -0.829153   -1.170840
  
  Multipole moment analysis of the density matrix
    Molecular charge:                      -1.000000
    Number of electrons:                   17.000000
      Center of electronic charge [Ang]: [  0.000000,   0.000000,  -0.000000]
    Total nuclear charge:                  16.000000
      Center of nuclear charge [Ang]:    [  0.000000,   0.000000,   0.000000]
    Dipole moment [D]:                     0.000003
      Cartesian components [D]:          [ -0.000000,  -0.000003,   0.000000]
    RMS size of the density [Ang]:         1.670384
      Cartesian components [Ang]:        [  1.282452,   0.811784,   0.697502]
  
  Exciton analysis of the difference density matrix
  Total:
    <r_h> [Ang]:                  [ -0.000000,   0.000000,  -0.000000]
    <r_e> [Ang]:                  [ -0.000000,   0.000000,  -0.000000]
    |<r_e - r_h>| [Ang]:            0.000000
    Hole size [Ang]:                1.252052
      Cartesian components [Ang]: [  0.748128,   0.510124,   0.864703]
    Electron size [Ang]:            3.611603
      Cartesian components [Ang]: [  2.750380,   1.621800,   1.687854]
  
  Alpha spin:
    <r_h> [Ang]:                  [ -0.000000,   0.000000,  -0.000000]
    <r_e> [Ang]:                  [ -0.000000,   0.000000,  -0.000000]
    |<r_e - r_h>| [Ang]:            0.000000
    Hole size [Ang]:                1.252052
      Cartesian components [Ang]: [  0.748127,   0.510123,   0.864704]
    Electron size [Ang]:            3.842037
      Cartesian components [Ang]: [  3.110483,   1.599473,   1.589915]
  
  Beta spin:
    <r_h> [Ang]:                  [ -0.000000,   0.000000,   0.000000]
    <r_e> [Ang]:                  [ -0.000000,  -0.000000,  -0.000000]
    |<r_e - r_h>| [Ang]:            0.000000
    Hole size [Ang]:                1.252053
      Cartesian components [Ang]: [  0.748131,   0.510125,   0.864702]
    Electron size [Ang]:            3.439091
      Cartesian components [Ang]: [  2.463735,   1.637427,   1.753907]
  ----------------------------------------------------------------------------


--------------------------------------------------------------------------------
  Time of ADC calculation:  CPU 35.91 s  wall 10.29 s
================================================================================
 
 --------------------------------------------------------------
             Orbital Energies (a.u.) and Symmetries
 --------------------------------------------------------------
 
 Alpha MOs, Restricted
 -- Occupied --                  
-11.237 -11.235  -1.042  -0.782  -0.660  -0.567  -0.515  -0.377
  1 Ag    1 B3u   2 Ag    2 B3u   1 B2u   3 Ag    1 B1g   1 B1u                
 -- Virtual --                   
  0.079   0.090   0.091   0.102   0.103   0.125   0.144   0.193
  3 B3u   2 B2u   4 Ag    1 B2g   2 B1u   2 B1g   5 Ag    2 B2g                
  0.217   0.262   0.323   0.331   0.363   0.368   0.368   0.383
  4 B3u   6 Ag    3 B2u   5 B3u   6 B3u   7 Ag    4 B2u   3 B1u                
  0.399   0.468   0.545   0.619   0.838   0.849   0.933   0.980
  3 B1g   3 B2g   4 B1g   7 B3u   8 Ag    5 B2u   8 B3u   9 Ag                 
  1.025   1.077   1.092   1.114   1.146   1.160   1.207   1.285
  5 B1g  10 Ag    6 B2u   1 B3g   9 B3u   4 B1u   4 B2g   1 Au                 
  1.294   1.311   1.473   1.624   1.720   1.736   1.878   1.945
  5 B1u  10 B3u   6 B1g  11 Ag    7 B1g   7 B2u   5 B2g   6 B1u                
  1.967   2.017   2.083   2.101   2.183   2.334   2.412   2.477
 11 B3u   2 B3g  12 Ag    8 B2u   6 B2g  12 B3u   2 Au   13 Ag                 
  2.562   2.581   2.855   2.856   3.275   3.347
  8 B1g  13 B3u   9 B2u  14 Ag   14 B3u   9 B1g                                
 
 Beta MOs, Restricted
 -- Occupied --                  
-11.237 -11.235  -1.042  -0.782  -0.660  -0.567  -0.515  -0.377
  1 Ag    1 B3u   2 Ag    2 B3u   1 B2u   3 Ag    1 B1g   1 B1u                
 -- Virtual --                   
  0.079   0.090   0.091   0.102   0.103   0.125   0.144   0.193
  3 B3u   2 B2u   4 Ag    1 B2g   2 B1u   2 B1g   5 Ag    2 B2g                
  0.217   0.262   0.323   0.331   0.363   0.368   0.368   0.383
  4 B3u   6 Ag    3 B2u   5 B3u   6 B3u   7 Ag    4 B2u   3 B1u                
  0.399   0.468   0.545   0.619   0.838   0.849   0.933   0.980
  3 B1g   3 B2g   4 B1g   7 B3u   8 Ag    5 B2u   8 B3u   9 Ag                 
  1.025   1.077   1.092   1.114   1.146   1.160   1.207   1.285
  5 B1g  10 Ag    6 B2u   1 B3g   9 B3u   4 B1u   4 B2g   1 Au                 
  1.294   1.311   1.473   1.624   1.720   1.736   1.878   1.945
  5 B1u  10 B3u   6 B1g  11 Ag    7 B1g   7 B2u   5 B2g   6 B1u                
  1.967   2.017   2.083   2.101   2.183   2.334   2.412   2.477
 11 B3u   2 B3g  12 Ag    8 B2u   6 B2g  12 B3u   2 Au   13 Ag                 
  2.562   2.581   2.855   2.856   3.275   3.347
  8 B1g  13 B3u   9 B2u  14 Ag   14 B3u   9 B1g                                
 --------------------------------------------------------------
 
          Ground-State Mulliken Net Atomic Charges

     Atom                 Charge (a.u.)
  ----------------------------------------
      1 C                    -0.211484
      2 C                    -0.211484
      3 H                     0.105736
      4 H                     0.105755
      5 H                     0.105748
      6 H                     0.105729
  ----------------------------------------
  Sum of atomic charges =     0.000000

 -----------------------------------------------------------------
                    Cartesian Multipole Moments
 -----------------------------------------------------------------
    Charge (ESU x 10^10)
                 0.0000
    Dipole Moment (Debye)
         X      -0.0000      Y      -0.0000      Z       0.0000
       Tot       0.0000
    Quadrupole Moments (Debye-Ang)
        XX     -12.9076     XY       0.0000     YY     -11.9572
        XZ       0.0000     YZ      -0.0000     ZZ     -16.1487
    Octopole Moments (Debye-Ang^2)
       XXX       0.0000    XXY      -0.0000    XYY       0.0000
       YYY      -0.0000    XXZ       0.0000    XYZ      -0.0000
       YYZ       0.0000    XZZ       0.0000    YZZ      -0.0000
       ZZZ       0.0000
    Hexadecapole Moments (Debye-Ang^3)
      XXXX     -67.9632   XXXY       0.0000   XXYY     -13.1524
      XYYY       0.0000   YYYY     -26.8236   XXXZ      -0.0000
      XXYZ      -0.0000   XYYZ       0.0000   YYYZ      -0.0000
      XXZZ     -15.6247   XYZZ       0.0000   YYZZ      -9.0153
      XZZZ       0.0000   YZZZ      -0.0000   ZZZZ     -21.7260
 -----------------------------------------------------------------
 Total job time:  91.01s(wall), 77.72s(cpu) 
 Fri Feb 25 15:44:03 2022

        *************************************************************
        *                                                           *
        *  Thank you very much for using Q-Chem.  Have a nice day.  *
        *                                                           *
        *************************************************************


