/src/tsommerfeld/qchem/exe/qcprog.exe .input1.839744.837.qcin.1 /src/jdavis/qchem.scratch/qchem837/

                  Welcome to Q-Chem
     A Quantum Leap Into The Future Of Chemistry


 Q-Chem 5.4 (devel), Q-Chem, Inc., Pleasanton, CA (2021)

 E. Epifanovsky,  A. T. B. Gilbert,  Xintian Feng,  Joonho Lee,  Yuezhi Mao,  
 N. Mardirossian,  P. Pokhilko,  A. White,  M. Wormit,  M. P. Coons,  
 A. L. Dempwolff,  Zhengting Gan,  D. Hait,  P. R. Horn,  L. D. Jacobson,  
 I. Kaliman,  J. Kussmann,  A. W. Lange,  Ka Un Lao,  D. S. Levine,  Jie Liu,  
 S. C. McKenzie,  A. F. Morrison,  K. Nanda,  F. Plasser,  D. R. Rehn,  
 M. L. Vidal,  Zhi-Qiang You,  Ying Zhu,  B. Alam,  B. Albrecht,  
 A. Aldossary,  E. Alguire,  J. H. Andersen,  D. Barton,  K. Begam,  A. Behn,  
 Y. A. Bernard,  E. J. Berquist,  H. Burton,  A. Carreras,  K. Carter-Fenk,  
 R. Chakraborty,  A. D. Chien,  K. D. Closser,  V. Cofer-Shabica,  
 S. Dasgupta,  Jia Deng,  M. de Wergifosse,  M. Diedenhofen,  Hainam Do,  
 S. Ehlert,  Po-Tung Fang,  S. Fatehi,  Qingguo Feng,  T. Friedhoff,  
 J. Gayvert,  Qinghui Ge,  G. Gidofalvi,  M. Goldey,  J. Gomes,  
 C. Gonzalez-Espinoza,  S. Gulania,  A. Gunina,  M. W. D. Hanson-Heine,  
 P. H. P. Harbach,  A. W. Hauser,  M. F. Herbst,  M. Hernandez Vera,  
 M. Hodecker,  Z. C. Holden,  S. Houck,  Xunkun Huang,  Kerwin Hui,  
 B. C. Huynh,  M. Ivanov,  Hyunjun Ji,  Hanjie Jiang,  B. Kaduk,  S. Kaehler,  
 K. Khistyaev,  Jaehoon Kim,  P. Klunzinger,  Z. Koczor-Benda,  
 Joong Hoon Koh,  D. Kosenkov,  L. Koulias,  T. Kowalczyk,  C. M. Krauter,  
 K. Kue,  A. Kunitsa,  T. Kus,  A. Landau,  K. V. Lawler,  D. Lefrancois,  
 S. Lehtola,  Rain Li,  Yi-Pei Li,  Jiashu Liang,  M. Liebenthal,  
 Hung-Hsuan Lin,  You-Sheng Lin,  Fenglai Liu,  Kuan-Yu Liu,  
 M. Loipersberger,  A. Luenser,  A. Manjanath,  P. Manohar,  E. Mansoor,  
 S. F. Manzer,  Shan-Ping Mao,  A. V. Marenich,  T. Markovich,  S. Mason,  
 S. A. Maurer,  P. F. McLaughlin,  M. F. S. J. Menger,  J.-M. Mewes,  
 S. A. Mewes,  P. Morgante,  J. W. Mullinax,  K. J. Oosterbaan,  G. Paran,  
 Alexander C. Paul,  Suranjan K. Paul,  F. Pavosevic,  Zheng Pei,  S. Prager,  
 E. I. Proynov,  E. Ramos,  B. Rana,  A. E. Rask,  A. Rettig,  R. M. Richard,  
 F. Rob,  E. Rossomme,  T. Scheele,  M. Scheurer,  M. Schneider,  
 N. Sergueev,  S. M. Sharada,  W. Skomorowski,  D. W. Small,  C. J. Stein,  
 Yu-Chuan Su,  E. J. Sundstrom,  Zhen Tao,  J. Thirman,  T. Tsuchimochi,  
 N. M. Tubman,  S. P. Veccham,  O. Vydrov,  J. Wenzel,  J. Witte,  A. Yamada,  
 Kun Yao,  S. Yeganeh,  S. R. Yost,  A. Zech,  Igor Ying Zhang,  Xing Zhang,  
 Yu Zhang,  D. Zuev,  A. Aspuru-Guzik,  A. T. Bell,  N. A. Besley,  
 K. B. Bravaya,  B. R. Brooks,  D. Casanova,  Jeng-Da Chai,  S. Coriani,  
 C. J. Cramer,  A. E. DePrince, III,  R. A. DiStasio Jr.,  A. Dreuw,  
 B. D. Dunietz,  T. R. Furlani,  W. A. Goddard III,  S. Grimme,  
 S. Hammes-Schiffer,  T. Head-Gordon,  W. J. Hehre,  Chao-Ping Hsu,  
 T.-C. Jagau,  Yousung Jung,  A. Klamt,  Jing Kong,  D. S. Lambrecht,  
 WanZhen Liang,  N. J. Mayhall,  C. W. McCurdy,  J. B. Neaton,  
 C. Ochsenfeld,  J. A. Parkhill,  R. Peverati,  V. A. Rassolov,  Yihan Shao,  
 L. V. Slipchenko,  T. Stauch,  R. P. Steele,  J. E. Subotnik,  
 A. J. W. Thom,  A. Tkatchenko,  D. G. Truhlar,  T. Van Voorhis,  
 T. A. Wesolowski,  K. B. Whaley,  H. L. Woodcock III,  P. M. Zimmerman,  
 S. Faraji,  P. M. W. Gill,  M. Head-Gordon,  J. M. Herbert,  A. I. Krylov

 Additional authors for Version 5.4.1: 
 S. Kotaru,  Shaozhi Li,  Xiangyuan Li,  F. Matz,  A. Molle,  Haisheng Ren,  
 Yingli Su,  Hung-Yi Tsai,  C. Utku,  Fang Wang

 Contributors to earlier versions of Q-Chem not listed above: 
 R. D. Adamson,  B. Austin,  R. Baer,  J. Baker,  G. J. O. Beran,  
 K. Brandhorst,  S. T. Brown,  E. F. C. Byrd,  A. K. Chakraborty,  
 G. K. L. Chan,  Chun-Min Chang,  Yunqing Chen,  C.-L. Cheng,  
 Siu Hung Chien,  D. M. Chipman,  D. L. Crittenden,  H. Dachsel,  
 R. J. Doerksen,  A. D. Dutoi,  R. G. Edgar,  J. Fosso-Tande,  
 L. Fusti-Molnar,  D. Ghosh,  A. Ghysels,  A. Golubeva-Zadorozhnaya,  
 J. Gonthier,  M. S. Gordon,  S. R. Gwaltney,  G. Hawkins,  J. E. Herr,  
 A. Heyden,  S. Hirata,  E. G. Hohenstein,  G. Kedziora,  F. J. Keil,  
 C. Kelley,  Jihan Kim,  R. A. King,  R. Z. Khaliullin,  P. P. Korambath,  
 W. Kurlancheek,  A. Laurent,  A. M. Lee,  M. S. Lee,  S. V. Levchenko,  
 Ching Yeh Lin,  D. Liotard,  E. Livshits,  R. C. Lochan,  I. Lotan,  
 L. A. Martinez-Martinez,  P. E. Maslen,  N. Nair,  D. P. O'Neill,  
 D. Neuhauser,  E. Neuscamman,  C. M. Oana,  R. Olivares-Amaya,  R. Olson,  
 T. M. Perrine,  B. Peters,  P. A. Pieniazek,  A. Prociuk,  Y. M. Rhee,  
 J. Ritchie,  M. A. Rohrdanz,  E. Rosta,  N. J. Russ,  H. F. Schaefer III,  
 M. W. Schmidt,  N. E. Schultz,  S. Sharma,  N. Shenvi,  C. D. Sherrill,  
 A. C. Simmonett,  A. Sodt,  T. Stein,  D. Stuck,  K. S. Thanthiriwatte,  
 V. Vanovschi,  L. Vogt,  Tao Wang,  A. Warshel,  M. A. Watson,  
 C. F. Williams,  Q. Wu,  X. Xu,  Jun Yang,  W. Zhang,  Yan Zhao

 Please cite Q-Chem as follows:
 Y. Shao et al., Mol. Phys. 113, 184-215 (2015)
 DOI: 10.1080/00268976.2014.952696

 Q-Chem 5.4.1 for Intel X86 EM64T Linux

 Parts of Q-Chem use Armadillo 9.900.5 (Nocturnal Misbehaviour).
 http://arma.sourceforge.net/

 Q-Chem begins on Fri Feb 25 15:36:28 2022  

 Host: node01
0

     Scratch files written to /src/jdavis/qchem.scratch/qchem837//
 Processing $rem in /src/tsommerfeld/qchem/config/preferences:
 Processing $rem in /home/jdavis/.qchemrc:

 Checking the input file for inconsistencies... 	...done.

--------------------------------------------------------------
User input:
--------------------------------------------------------------
$molecule
0 1
C        -0.6645000000    0.0000000000   -0.2082049804
C         0.6645000000    0.0000000000   -0.2082049804
H        -1.1590800000    0.0000000000    0.7541440196
H         1.1590800000    0.0000000000    0.7541440196
H        -1.1590800000    0.0000000000   -1.1705529804
H         1.1590800000    0.0000000000   -1.1705529804
$end

$rem
   METHOD adc(2)
   BASIS gen
   PURECART 11
   EA_STATES [0,0,10,0,0,0,0,0]
   scf_convergence 8
   ADC_DAVIDSON_MAXITER 120
   ADC_DAVIDSON_MAXSUBSPACE 200
   adc_nguess_singles 100
   THRESH 14
   S2THRESH 14
   adc_davidson_conv 5
   adc_davidson_thresh 14
   THREADS 10
   MEM_TOTAL 95000
   STATE_ANALYSIS TRUE
$end
$basis
C 1
S   9   1.00
      6.665000D+03           6.920000D-04
      1.000000D+03           5.329000D-03
      2.280000D+02           2.707700D-02
      6.471000D+01           1.017180D-01
      2.106000D+01           2.747400D-01
      7.495000D+00           4.485640D-01
      2.797000D+00           2.850740D-01
      5.215000D-01           1.520400D-02
      1.596000D-01          -3.191000D-03
S   9   1.00
      6.665000D+03          -1.460000D-04
      1.000000D+03          -1.154000D-03
      2.280000D+02          -5.725000D-03
      6.471000D+01          -2.331200D-02
      2.106000D+01          -6.395500D-02
      7.495000D+00          -1.499810D-01
      2.797000D+00          -1.272620D-01
      5.215000D-01           5.445290D-01
      1.596000D-01           5.804960D-01
S   1   1.00
      1.596000D-01           1.000000D+00
S   1   1.00
      0.0469000              1.0000000
P   4   1.00
      9.439000D+00           3.810900D-02
      2.002000D+00           2.094800D-01
      5.456000D-01           5.085570D-01
      1.517000D-01           4.688420D-01
P   1   1.00
      1.517000D-01           1.000000D+00
P   1   1.00
      0.0797397      1.0000000
P   1   1.00
      0.0398699      1.0000000
D   1   1.00
      5.500000D-01           1.0000000
****
C 2
S   9   1.00
      6.665000D+03           6.920000D-04
      1.000000D+03           5.329000D-03
      2.280000D+02           2.707700D-02
      6.471000D+01           1.017180D-01
      2.106000D+01           2.747400D-01
      7.495000D+00           4.485640D-01
      2.797000D+00           2.850740D-01
      5.215000D-01           1.520400D-02
      1.596000D-01          -3.191000D-03
S   9   1.00
      6.665000D+03          -1.460000D-04
      1.000000D+03          -1.154000D-03
      2.280000D+02          -5.725000D-03
      6.471000D+01          -2.331200D-02
      2.106000D+01          -6.395500D-02
      7.495000D+00          -1.499810D-01
      2.797000D+00          -1.272620D-01
      5.215000D-01           5.445290D-01
      1.596000D-01           5.804960D-01
S   1   1.00
      1.596000D-01           1.000000D+00
S   1   1.00
      0.0469000              1.0000000
P   4   1.00
      9.439000D+00           3.810900D-02
      2.002000D+00           2.094800D-01
      5.456000D-01           5.085570D-01
      1.517000D-01           4.688420D-01
P   1   1.00
      1.517000D-01           1.000000D+00
P   1   1.00
      0.0797397      1.0000000
P   1   1.00
      0.0398699      1.0000000
D   1   1.00
      5.500000D-01           1.0000000
****
H 3
cc-pVDZ
****
H 4
cc-pVDZ
****
H 5
cc-pVDZ
****
H 6
cc-pVDZ
****
$end
--------------------------------------------------------------
 Atom   2: ( -0.6645000000, -0.0000001250,  0.0000000000)
         ->( -0.6645000000,  0.0000001250, -0.0000000000)
 Atom   1: (  0.6645000000, -0.0000001250, -0.0000000000)
         ->(  0.6645000000,  0.0000000000,  0.0000000000)
 Atom   6: ( -1.1590800000, -0.9623481250, -0.0000000000)
         ->( -1.1590800000, -0.9623488750,  0.0000000000)
 Atom   5: (  1.1590800000, -0.9623481250, -0.0000000000)
         ->(  1.1590800000, -0.9623488750, -0.0000000000)
 ----------------------------------------------------------------
             Standard Nuclear Orientation (Angstroms)
    I     Atom           X                Y                Z
 ----------------------------------------------------------------
    1      C       0.6645000000     0.0000000000     0.0000000000
    2      C      -0.6645000000     0.0000001250    -0.0000000000
    3      H       1.1590800000     0.9623488750     0.0000000000
    4      H      -1.1590800000     0.9623488750     0.0000000000
    5      H       1.1590800000    -0.9623488750    -0.0000000000
    6      H      -1.1590800000    -0.9623488750     0.0000000000
 ----------------------------------------------------------------
 Molecular Point Group                 D2h   NOp =  8
 Largest Abelian Subgroup              D2h   NOp =  8
 Nuclear Repulsion Energy =          33.58921667 hartrees
 There are        8 alpha and        8 beta electrons
 Requested basis set is non-standard
 There are 30 shells and 62 basis functions
 Total memory of 95000 MB is distributed as follows: 
   MEM_STATIC is set to 192 MB
   QALLOC/CCMAN JOB total memory use is  94808 MB
 Warning: actual memory use might exceed 95000 MB

 Total QAlloc Memory Limit  95000 MB
 Mega-Array Size       188 MB
 MEM_STATIC part       192 MB

                       Distance Matrix (Angstroms)
             C (  1)   C (  2)   H (  3)   H (  4)   H (  5)
   C (  2)  1.329000
   H (  3)  1.082000  2.061931
   H (  4)  2.061931  1.082000  2.318160
   H (  5)  1.082000  2.061931  1.924698  3.013026
   H (  6)  2.061931  1.082000  3.013026  1.924698  2.318160
 
 A cutoff of  1.0D-14 yielded    465 shell pairs
 There are      2009 function pairs (      2146 Cartesian)
 Smallest overlap matrix eigenvalue = 2.39E-04

 Scale SEOQF with 1.000000e-01/1.000000e-01/1.000000e-01

 Standard Electronic Orientation quadrupole field applied
 Nucleus-field energy     =     0.0000000006 hartrees
 ================ Generating on-the-fly SAD Guess ================
Attempting to make child job directory: /src/jdavis/qchem.scratch/qchem837//Frg1/
Attempting to make child job directory: /src/jdavis/qchem.scratch/qchem837//Frg2/
Creating input file /src/jdavis/qchem.scratch/qchem837/Frg1.input
using default PutDataFrgm: nothing
calling putenv with: QCSCRATCH=/src/jdavis/qchem.scratch/qchem837/ 
Spawning Job For Fragment 0
Done Job For Fragment 0
calling putenv with: QCSCRATCH=/src/jdavis/qchem.scratch 
calling putenv with: QCTHREADS=1 
Creating input file /src/jdavis/qchem.scratch/qchem837/Frg2.input
using default PutDataFrgm: nothing
calling putenv with: QCSCRATCH=/src/jdavis/qchem.scratch/qchem837/ 
Spawning Job For Fragment 1
Done Job For Fragment 1
calling putenv with: QCSCRATCH=/src/jdavis/qchem.scratch 
calling putenv with: QCTHREADS=1 
 Time for running child jobs:  CPU 1.77 s  wall 53.29 s
 ============= Method Specific SAD Guess Constructed =============
 Guess from on-the-fly superposition of atomic densities
 Warning: Energy on first SCF cycle will be non-variational
 A restricted Hartree-Fock SCF calculation will be
 performed using Pulay DIIS extrapolation
 SCF converges when DIIS error is below 1.0E-08
 using 10 threads for integral computing
 -------------------------------------------------------
 OpenMP Integral computing Module                
 Release: version 1.0, May 2013, Q-Chem Inc. Pittsburgh 
 -------------------------------------------------------
 ---------------------------------------
  Cycle       Energy         DIIS Error
 ---------------------------------------
    1     -78.4583462086      7.95E-02
    2     -78.0144416494      5.76E-03
    3     -78.0357357700      1.51E-03
    4     -78.0373707843      5.01E-04
    5     -78.0375408921      6.08E-05
    6     -78.0375456977      1.29E-05
    7     -78.0375460696      3.05E-06
    8     -78.0375461288      2.76E-07
    9     -78.0375461342      3.51E-08
   10     -78.0375461345      3.68E-09 Convergence criterion met
 ---------------------------------------
 SCF time:  CPU 9.09 s  wall 0.91 s
 SCF   energy in the final basis set = -78.03754613
 Total energy in the final basis set = -78.03754613
================================================================================
|                                                                              |
|                                 A D C  M A N                                 |
|                                                                              |
 ------------------------------------------------------------------------------ 
|                                                                              |
| Components:                                                                  |
|                                                                              |
| - libvmm - 1.3-trunk                                                         |
|   Authors:                                                                   |
|   Evgeny Epifanovsky, Ilya Kaliman                                           |
|                                                                              |
| - libtensor - 2.5-trunk                                                      |
|   Authors:                                                                   |
|   Evgeny Epifanovsky, Michael Wormit, Dmitry Zuev, Sam Manzer,               |
|   Ilya Kaliman                                                               |
|                                                                              |
| - libwfa - 1.1-trunk                                                         |
|   Authors:                                                                   |
|   Felix Plasser, Stefanie Mewes (Baeppler), Benjamin Thomitzni,              |
|   Michael Wormit, Feng Chen, Anna I. Krylov, Pavel Pokhilko                  |
|                                                                              |
| - libadc - 1.1-trunk                                                         |
|   Authors:                                                                   |
|   Michael Wormit, Adrian L. Dempwolff, Philipp H. P. Harbach,                |
|   Caroline Krauter, Dirk Rehn, Matthias Schneider, Jan Wenzel                |
|                                                                              |
| - adcman - 2.6-trunk                                                         |
|   Authors:                                                                   |
|   Michael Wormit, Adrian L. Dempwolff, Philipp H. P. Harbach,                |
|   Caroline Krauter, Daniel Lefrancois, Jan-Michael Mewes, Dirk Rehn,         |
|   Matthias Schneider, Jan Wenzel, Andreas Dreuw                              |
|                                                                              |
| Authors of earlier versions of ADCMAN:                                       |
| Andreas Dreuw, Jan Hendrik Starcke, Dirk Rehn, Michael Wormit                |
|                                                                              |
================================================================================

 
 Alpha MOs, Restricted
 -- Occupied --                  
-11.237 -11.235  -1.042  -0.782  -0.660  -0.567  -0.515  -0.377
  1 Ag    1 B3u   2 Ag    2 B3u   1 B2u   3 Ag    1 B1g   1 B1u                
 -- Virtual --                   
  0.070   0.082   0.088   0.093   0.097   0.113   0.137   0.182
  3 B3u   2 B2u   4 Ag    2 B1u   1 B2g   2 B1g   5 Ag    2 B2g                
  0.212   0.262   0.314   0.317   0.342   0.349   0.354   0.362
  4 B3u   6 Ag    3 B2u   5 B3u   7 Ag    4 B2u   3 B1u   3 B1g                
  0.370   0.437   0.550   0.616   0.834   0.851   0.935   0.953
  6 B3u   3 B2g   4 B1g   7 B3u   8 Ag    5 B2u   8 B3u   9 Ag                 
  1.024   1.044   1.056   1.114   1.115   1.136   1.159   1.285
  5 B1g   6 B2u  10 Ag    1 B3g   4 B1u   9 B3u   4 B2g   1 Au                 
  1.285   1.290   1.448   1.622   1.677   1.731   1.875   1.944
 10 B3u   5 B1u   6 B1g  11 Ag    7 B1g   7 B2u   5 B2g   6 B1u                
  1.961   2.017   2.071   2.096   2.182   2.331   2.412   2.472
 11 B3u   2 B3g  12 Ag    8 B2u   6 B2g  12 B3u   2 Au   13 Ag                 
  2.572   2.579   2.837   2.841   3.264   3.342
  8 B1g  13 B3u   9 B2u  14 Ag   14 B3u   9 B1g                                
 
 Beta MOs, Restricted
 -- Occupied --                  
-11.237 -11.235  -1.042  -0.782  -0.660  -0.567  -0.515  -0.377
  1 Ag    1 B3u   2 Ag    2 B3u   1 B2u   3 Ag    1 B1g   1 B1u                
 -- Virtual --                   
  0.070   0.082   0.088   0.093   0.097   0.113   0.137   0.182
  3 B3u   2 B2u   4 Ag    2 B1u   1 B2g   2 B1g   5 Ag    2 B2g                
  0.212   0.262   0.314   0.317   0.342   0.349   0.354   0.362
  4 B3u   6 Ag    3 B2u   5 B3u   7 Ag    4 B2u   3 B1u   3 B1g                
  0.370   0.437   0.550   0.616   0.834   0.851   0.935   0.953
  6 B3u   3 B2g   4 B1g   7 B3u   8 Ag    5 B2u   8 B3u   9 Ag                 
  1.024   1.044   1.056   1.114   1.115   1.136   1.159   1.285
  5 B1g   6 B2u  10 Ag    1 B3g   4 B1u   9 B3u   4 B2g   1 Au                 
  1.285   1.290   1.448   1.622   1.677   1.731   1.875   1.944
 10 B3u   5 B1u   6 B1g  11 Ag    7 B1g   7 B2u   5 B2g   6 B1u                
  1.961   2.017   2.071   2.096   2.182   2.331   2.412   2.472
 11 B3u   2 B3g  12 Ag    8 B2u   6 B2g  12 B3u   2 Au   13 Ag                 
  2.572   2.579   2.837   2.841   3.264   3.342
  8 B1g  13 B3u   9 B2u  14 Ag   14 B3u   9 B1g                                

--------------------------------------------------------------------------------
                                   HF Summary                                   
--------------------------------------------------------------------------------
  Energy:                                                  -78.0375461345 a.u.
  Dip. moment [a.u.]:                  [  -0.000000,   -0.000001,    0.000000]
  Total dipole [Debye]:                                               0.000001
  <r^2> [a.u.]:                        [  47.714257,   22.121155,   11.999897]
  Total <r^2> [a.u.]:                                                81.835308
--------------------------------------------------------------------------------

--------------------------------------------------------------------------------
                                 MP(2) Summary                                  
--------------------------------------------------------------------------------
  MP energy contribution:                                   -0.2832243644 a.u.
  Total energy:                                            -78.3207704989 a.u.
  Dip. moment [a.u.]:                  [   0.000000,   -0.000001,   -0.000000]
  Total dipole [Debye]:                                               0.000002
  <r^2> [a.u.]:                        [  47.823615,   22.153500,   11.852414]
  Total <r^2> [a.u.]:                                                81.829529

  Density matrix analysis:
  ------------------------
  NOs (alpha)
    Occupation of frontier NOs:
       0.0224   0.9685
    Number of electrons:  8.000000
  NOs (beta)
    Occupation of frontier NOs:
       0.0224   0.9685
    Number of electrons:  8.000000
  NOs (spin-traced)
    Occupation of frontier NOs:
       0.0447   1.9370
    Number of electrons: 16.000000
    Number of unpaired electrons: n_u =  0.40959, n_u,nl =  0.04608
    NO participation ratio (PR_NO): 13.966552
  
  
  Mulliken Population Analysis
  Atom  Charge (e)    Spin (e)  h+ (alpha)   h+ (beta)  e- (alpha)   e- (beta)
  ----------------------------------------------------------------------------
   1 C   -0.211350    0.000000    0.043720    0.043720   -0.051254   -0.051254
   2 C   -0.211350    0.000000    0.043720    0.043720   -0.051254   -0.051254
   3 H    0.105669   -0.000000    0.009030    0.009030   -0.005263   -0.005263
   4 H    0.105687    0.000000    0.009030    0.009030   -0.005263   -0.005263
   5 H    0.105681   -0.000000    0.009030    0.009030   -0.005263   -0.005263
   6 H    0.105663   -0.000000    0.009030    0.009030   -0.005263   -0.005263
  ----------------------------------------------------------------------------
  Sum:    0.000000   -0.000000    0.123561    0.123561   -0.123561   -0.123561
  
  Multipole moment analysis of the density matrix
    Molecular charge:                      0.000000
    Number of electrons:                   16.000000
      Center of electronic charge [Ang]: [ -0.000000,   0.000000,   0.000000]
    Total nuclear charge:                  16.000000
      Center of nuclear charge [Ang]:    [  0.000000,   0.000000,   0.000000]
    Dipole moment [D]:                     0.000002
      Cartesian components [D]:          [  0.000000,  -0.000002,  -0.000000]
    RMS size of the density [Ang]:         1.196730
      Cartesian components [Ang]:        [  0.914876,   0.622676,   0.455454]
  
  Exciton analysis of the difference density matrix
  Total:
    <r_h> [Ang]:                  [  0.000000,  -0.000000,   0.000000]
    <r_e> [Ang]:                  [ -0.000000,   0.000000,   0.000000]
    |<r_e - r_h>| [Ang]:            0.000000
    Hole size [Ang]:                1.412192
      Cartesian components [Ang]: [  0.960345,   0.720472,   0.743602]
    Electron size [Ang]:            1.409872
      Cartesian components [Ang]: [  1.022831,   0.745475,   0.621145]
  
  Alpha spin:
    <r_h> [Ang]:                  [  0.000000,  -0.000000,   0.000000]
    <r_e> [Ang]:                  [ -0.000000,   0.000000,   0.000000]
    |<r_e - r_h>| [Ang]:            0.000000
    Hole size [Ang]:                1.412192
      Cartesian components [Ang]: [  0.960345,   0.720472,   0.743602]
    Electron size [Ang]:            1.409872
      Cartesian components [Ang]: [  1.022831,   0.745475,   0.621145]
  
  Beta spin:
    <r_h> [Ang]:                  [  0.000000,  -0.000000,   0.000000]
    <r_e> [Ang]:                  [ -0.000000,   0.000000,   0.000000]
    |<r_e - r_h>| [Ang]:            0.000000
    Hole size [Ang]:                1.412192
      Cartesian components [Ang]: [  0.960345,   0.720472,   0.743602]
    Electron size [Ang]:            1.409872
      Cartesian components [Ang]: [  1.022831,   0.745475,   0.621145]
--------------------------------------------------------------------------------
Less particle guess vectors found than requested: 6 (found), 100 (requested).
Adjusting number of hole-2particle guess vectors to 94.
  Starting Davidson for electron-attached states of irrep B2g ... 
--------------------------------------------------------------------------------
   It NVec Conv  Avg. Norm  Max. Norm  Conv. states           Remark
--------------------------------------------------------------------------------
       100    0  4.621e-02  3.237e-01  0.0987 n n n n n n n n Guess.
    1  110    7  1.936e-04  1.262e-03  0.0775 n n n y y y y y 
    2  120   10  1.122e-09  8.363e-09  0.0775 y y y y y y y y Converged.
--------------------------------------------------------------------------------
  Davidson Summary: 
 ------------------------------------------------------------
  State  0: electron attachment energy =   0.0775 a.u.   (converged)
  State  1: electron attachment energy =   0.1462 a.u.   (converged)
  State  2: electron attachment energy =   0.3935 a.u.   (converged)
  State  3: electron attachment energy =   0.5348 a.u.   (converged)
  State  4: electron attachment energy =   0.5348 a.u.   (converged)
  State  5: electron attachment energy =   0.5676 a.u.   (converged)
  State  6: electron attachment energy =   0.5681 a.u.   (converged)
  State  7: electron attachment energy =   0.5720 a.u.   (converged)
  State  8: electron attachment energy =   0.5720 a.u.   (converged)
  State  9: electron attachment energy =   0.5838 a.u.   (converged)
 ------------------------------------------------------------


--------------------------------------------------------------------------------
                        Electron-Attached State Summary
--------------------------------------------------------------------------------

  Electron-attached state 1 (B2g)                                  [converged]
  ----------------------------------------------------------------------------
  Term symbol:  1 (2) B2g                                   R^2 =  8.36327e-09

  Total energy:                                            -78.2432228584 a.u.
  Electron attachment energy:                                      2.110179 eV

  Pole strength:                                                      0.959706

  Dip. moment [a.u.]:                  [   0.000000,   -0.000001,   -0.000000]
  Total dipole [Debye]:                                               0.000002
  <r^2> [a.u.]:                        [  61.729928,   27.168546,   24.392552]
  Total <r^2> [a.u.]:                                               113.291026

  V1^2 = 0.9695, V2^2 = 0.0305

  Important amplitudes:
       occ i       vir a        vir b           v   
    -------------------------------------------------
                               1 (B2g) B     -0.9392
                               2 (B2g) B     -0.2880
    -------------------------------------------------

  Density matrix analysis:
  ------------------------
  NOs (alpha)
    Occupation of frontier NOs:
       0.0186   0.9672
    Number of electrons:  8.000000
  NOs (beta)
    Occupation of frontier NOs:
       0.0230   0.9742
    Number of electrons:  9.000000
  NOs (spin-traced)
    Occupation of frontier NOs:
       0.0333   0.9893
    Number of electrons: 17.000000
    Number of unpaired electrons: n_u =  1.41869, n_u,nl =  1.04503
    NO participation ratio (PR_NO):  2.031904
  
  
  Mulliken Population Analysis
  Atom  Charge (e)    Spin (e)  h+ (alpha)   h+ (beta)  e- (alpha)   e- (beta)
  ----------------------------------------------------------------------------
   1 C   -0.629516    0.532833    0.072381    0.060269   -0.015047   -0.535769
   2 C   -0.629516    0.532833    0.072381    0.060269   -0.015047   -0.535769
   3 H    0.064752   -0.016416   -0.000027    0.004711   -0.028640   -0.016961
   4 H    0.064770   -0.016416   -0.000027    0.004711   -0.028640   -0.016961
   5 H    0.064764   -0.016416   -0.000027    0.004711   -0.028640   -0.016961
   6 H    0.064746   -0.016416   -0.000027    0.004711   -0.028640   -0.016961
  ----------------------------------------------------------------------------
  Sum:   -1.000000    1.000000    0.144655    0.139382   -0.144655   -1.139382
  
  Multipole moment analysis of the density matrix
    Molecular charge:                      -1.000000
    Number of electrons:                   17.000000
      Center of electronic charge [Ang]: [ -0.000000,   0.000000,   0.000000]
    Total nuclear charge:                  16.000000
      Center of nuclear charge [Ang]:    [  0.000000,   0.000000,   0.000000]
    Dipole moment [D]:                     0.000002
      Cartesian components [D]:          [  0.000000,  -0.000002,  -0.000000]
    RMS size of the density [Ang]:         1.366075
      Cartesian components [Ang]:        [  1.008381,   0.668975,   0.633877]
  
  Exciton analysis of the difference density matrix
  Total:
    <r_h> [Ang]:                  [ -0.000000,   0.000000,   0.000000]
    <r_e> [Ang]:                  [  0.000000,   0.000000,   0.000000]
    |<r_e - r_h>| [Ang]:            0.000000
    Hole size [Ang]:                1.508548
      Cartesian components [Ang]: [  1.047956,   0.760664,   0.773884]
    Electron size [Ang]:            2.713792
      Cartesian components [Ang]: [  1.809884,   1.105303,   1.693307]
  
  Alpha spin:
    <r_h> [Ang]:                  [ -0.000000,   0.000000,   0.000000]
    <r_e> [Ang]:                  [ -0.000000,  -0.000000,   0.000000]
    |<r_e - r_h>| [Ang]:            0.000000
    Hole size [Ang]:                1.430047
      Cartesian components [Ang]: [  1.019637,   0.724210,   0.693466]
    Electron size [Ang]:            2.187259
      Cartesian components [Ang]: [  1.422428,   1.262180,   1.080603]
  
  Beta spin:
    <r_h> [Ang]:                  [  0.000000,  -0.000000,   0.000000]
    <r_e> [Ang]:                  [  0.000000,   0.000000,   0.000000]
    |<r_e - r_h>| [Ang]:            0.000000
    Hole size [Ang]:                1.585916
      Cartesian components [Ang]: [  1.076559,   0.796735,   0.849331]
    Electron size [Ang]:            2.773498
      Cartesian components [Ang]: [  1.853290,   1.083763,   1.755866]
  ----------------------------------------------------------------------------


  Electron-attached state 2 (B2g)                                  [converged]
  ----------------------------------------------------------------------------
  Term symbol:  2 (2) B2g                                   R^2 =  7.25155e-09

  Total energy:                                            -78.1745512525 a.u.
  Electron attachment energy:                                      3.978828 eV

  Pole strength:                                                      0.960932

  Dip. moment [a.u.]:                  [   0.000000,   -0.000001,   -0.000000]
  Total dipole [Debye]:                                               0.000002
  <r^2> [a.u.]:                        [  67.572662,   29.111606,   30.423969]
  Total <r^2> [a.u.]:                                               127.108237

  V1^2 = 0.9687, V2^2 = 0.0313

  Important amplitudes:
       occ i       vir a        vir b           v   
    -------------------------------------------------
                               2 (B2g) B      0.9246
                               1 (B2g) B     -0.3203
    -------------------------------------------------

  Density matrix analysis:
  ------------------------
  NOs (alpha)
    Occupation of frontier NOs:
       0.0215   0.9637
    Number of electrons:  8.000000
  NOs (beta)
    Occupation of frontier NOs:
       0.0278   0.9736
    Number of electrons:  9.000000
  NOs (spin-traced)
    Occupation of frontier NOs:
       0.0412   0.9850
    Number of electrons: 17.000000
    Number of unpaired electrons: n_u =  1.43312, n_u,nl =  1.05014
    NO participation ratio (PR_NO):  2.088651
  
  
  Mulliken Population Analysis
  Atom  Charge (e)    Spin (e)  h+ (alpha)   h+ (beta)  e- (alpha)   e- (beta)
  ----------------------------------------------------------------------------
   1 C   -0.620511    0.510482    0.068841    0.046518   -0.018181   -0.506340
   2 C   -0.620511    0.510482    0.068841    0.046518   -0.018181   -0.506340
   3 H    0.060250   -0.005241    0.000186    0.002099   -0.025517   -0.022188
   4 H    0.060268   -0.005241    0.000186    0.002099   -0.025517   -0.022188
   5 H    0.060261   -0.005241    0.000186    0.002099   -0.025517   -0.022188
   6 H    0.060244   -0.005241    0.000186    0.002099   -0.025517   -0.022188
  ----------------------------------------------------------------------------
  Sum:   -1.000000    1.000000    0.138429    0.101431   -0.138429   -1.101431
  
  Multipole moment analysis of the density matrix
    Molecular charge:                      -1.000000
    Number of electrons:                   17.000000
      Center of electronic charge [Ang]: [ -0.000000,   0.000000,   0.000000]
    Total nuclear charge:                  16.000000
      Center of nuclear charge [Ang]:    [  0.000000,   0.000000,   0.000000]
    Dipole moment [D]:                     0.000002
      Cartesian components [D]:          [  0.000000,  -0.000002,  -0.000000]
    RMS size of the density [Ang]:         1.446983
      Cartesian components [Ang]:        [  1.055024,   0.692484,   0.707921]
  
  Exciton analysis of the difference density matrix
  Total:
    <r_h> [Ang]:                  [ -0.000000,   0.000000,   0.000000]
    <r_e> [Ang]:                  [ -0.000000,   0.000000,   0.000000]
    |<r_e - r_h>| [Ang]:            0.000000
    Hole size [Ang]:                1.319074
      Cartesian components [Ang]: [  0.970084,   0.677923,   0.582506]
    Electron size [Ang]:            3.250081
      Cartesian components [Ang]: [  2.154641,   1.288577,   2.064006]
  
  Alpha spin:
    <r_h> [Ang]:                  [ -0.000000,   0.000000,   0.000000]
    <r_e> [Ang]:                  [ -0.000000,  -0.000000,   0.000000]
    |<r_e - r_h>| [Ang]:            0.000000
    Hole size [Ang]:                1.333798
      Cartesian components [Ang]: [  0.969828,   0.667226,   0.627104]
    Electron size [Ang]:            2.141758
      Cartesian components [Ang]: [  1.405464,   1.227442,   1.051276]
  
  Beta spin:
    <r_h> [Ang]:                  [  0.000000,   0.000000,   0.000000]
    <r_e> [Ang]:                  [  0.000000,   0.000000,   0.000000]
    |<r_e - r_h>| [Ang]:            0.000000
    Hole size [Ang]:                1.298710
      Cartesian components [Ang]: [  0.970433,   0.692256,   0.515450]
    Electron size [Ang]:            3.363641
      Cartesian components [Ang]: [  2.231073,   1.296057,   2.157924]
  ----------------------------------------------------------------------------


  Electron-attached state 3 (B2g)                                  [converged]
  ----------------------------------------------------------------------------
  Term symbol:  3 (2) B2g                                   R^2 =  1.81465e-09

  Total energy:                                            -77.9272299415 a.u.
  Electron attachment energy:                                     10.708783 eV

  Pole strength:                                                      0.948506

  Dip. moment [a.u.]:                  [   0.000000,   -0.000001,   -0.000000]
  Total dipole [Debye]:                                               0.000002
  <r^2> [a.u.]:                        [  62.324120,   27.437381,   25.820926]
  Total <r^2> [a.u.]:                                               115.582427

  V1^2 = 0.9510, V2^2 = 0.0490

  Important amplitudes:
       occ i       vir a        vir b           v   
    -------------------------------------------------
                               3 (B2g) B      0.9600
                               2 (B2g) B      0.1555
    -------------------------------------------------

  Density matrix analysis:
  ------------------------
  NOs (alpha)
    Occupation of frontier NOs:
       0.0343   0.9457
    Number of electrons:  8.000000
  NOs (beta)
    Occupation of frontier NOs:
       0.0390   0.9558
    Number of electrons:  9.000000
  NOs (spin-traced)
    Occupation of frontier NOs:
       0.0708   0.9588
    Number of electrons: 17.000000
    Number of unpaired electrons: n_u =  1.49282, n_u,nl =  1.07740
    NO participation ratio (PR_NO):  2.368842
  
  
  Mulliken Population Analysis
  Atom  Charge (e)    Spin (e)  h+ (alpha)   h+ (beta)  e- (alpha)   e- (beta)
  ----------------------------------------------------------------------------
   1 C   -0.633815    0.510827    0.058809    0.042274   -0.014627   -0.508920
   2 C   -0.633815    0.510827    0.058809    0.042274   -0.014627   -0.508920
   3 H    0.066902   -0.005414   -0.001122   -0.000114   -0.020968   -0.016563
   4 H    0.066919   -0.005414   -0.001122   -0.000114   -0.020968   -0.016563
   5 H    0.066913   -0.005414   -0.001122   -0.000114   -0.020968   -0.016563
   6 H    0.066896   -0.005414   -0.001122   -0.000114   -0.020968   -0.016563
  ----------------------------------------------------------------------------
  Sum:   -1.000000    1.000000    0.113128    0.084093   -0.113128   -1.084093
  
  Multipole moment analysis of the density matrix
    Molecular charge:                      -1.000000
    Number of electrons:                   17.000000
      Center of electronic charge [Ang]: [ -0.000000,   0.000000,   0.000000]
    Total nuclear charge:                  16.000000
      Center of nuclear charge [Ang]:    [  0.000000,   0.000000,   0.000000]
    Dipole moment [D]:                     0.000002
      Cartesian components [D]:          [  0.000000,  -0.000002,  -0.000000]
    RMS size of the density [Ang]:         1.379820
      Cartesian components [Ang]:        [  1.013222,   0.672277,   0.652173]
  
  Exciton analysis of the difference density matrix
  Total:
    <r_h> [Ang]:                  [ -0.000000,   0.000000,   0.000000]
    <r_e> [Ang]:                  [ -0.000000,   0.000000,   0.000000]
    |<r_e - r_h>| [Ang]:            0.000000
    Hole size [Ang]:                1.356719
      Cartesian components [Ang]: [  0.975807,   0.702947,   0.627975]
    Electron size [Ang]:            2.863211
      Cartesian components [Ang]: [  1.883748,   1.147734,   1.825426]
  
  Alpha spin:
    <r_h> [Ang]:                  [ -0.000000,   0.000000,   0.000000]
    <r_e> [Ang]:                  [ -0.000000,  -0.000000,   0.000000]
    |<r_e - r_h>| [Ang]:            0.000000
    Hole size [Ang]:                1.255144
      Cartesian components [Ang]: [  0.924731,   0.633134,   0.565155]
    Electron size [Ang]:            2.112222
      Cartesian components [Ang]: [  1.390488,   1.204407,   1.037993]
  
  Beta spin:
    <r_h> [Ang]:                  [ -0.000000,  -0.000000,   0.000000]
    <r_e> [Ang]:                  [ -0.000000,   0.000000,   0.000000]
    |<r_e - r_h>| [Ang]:            0.000000
    Hole size [Ang]:                1.482427
      Cartesian components [Ang]: [  1.040572,   0.787158,   0.703693]
    Electron size [Ang]:            2.930511
      Cartesian components [Ang]: [  1.927963,   1.141658,   1.888775]
  ----------------------------------------------------------------------------


  Electron-attached state 4 (B2g)                                  [converged]
  ----------------------------------------------------------------------------
  Term symbol:  4 (2) B2g                                   R^2 =  5.52980e-14

  Total energy:                                            -77.7859714751 a.u.
  Electron attachment energy:                                     14.552622 eV

  Pole strength:                                                      0.000003

  Dip. moment [a.u.]:                  [  -0.000000,   -0.000001,    0.000000]
  Total dipole [Debye]:                                               0.000003
  <r^2> [a.u.]:                        [ 126.157617,   38.442489,   26.957188]
  Total <r^2> [a.u.]:                                               191.557294

  V1^2 = 0.0000, V2^2 = 1.0000

  Important amplitudes:
       occ i       vir a        vir b           v   
    -------------------------------------------------
     1 (B1u) A    3 (B3u) A    4 (Ag ) B     -0.5500
     1 (B1u) B    4 (Ag ) B    3 (B3u) B      0.4271
    -------------------------------------------------

  Density matrix analysis:
  ------------------------
  NOs (alpha)
    Occupation of frontier NOs:
       0.3342   0.6054
    Number of electrons:  8.000000
  NOs (beta)
    Occupation of frontier NOs:
       0.3954   0.6040
    Number of electrons:  9.000000
  NOs (spin-traced)
    Occupation of frontier NOs:
       0.9380   1.0008
    Number of electrons: 17.000000
    Number of unpaired electrons: n_u =  3.27853, n_u,nl =  3.02326
    NO participation ratio (PR_NO):  3.728647
  
  
  Mulliken Population Analysis
  Atom  Charge (e)    Spin (e)  h+ (alpha)   h+ (beta)  e- (alpha)   e- (beta)
  ----------------------------------------------------------------------------
   1 C   -0.740758    0.575021    0.313950    0.180310   -0.291144   -0.732525
   2 C   -0.740758    0.575021    0.313950    0.180310   -0.291144   -0.732525
   3 H    0.120374   -0.037511    0.001823    0.001047   -0.013226    0.025061
   4 H    0.120391   -0.037510    0.001823    0.001047   -0.013226    0.025060
   5 H    0.120385   -0.037510    0.001823    0.001047   -0.013226    0.025060
   6 H    0.120368   -0.037511    0.001823    0.001047   -0.013226    0.025061
  ----------------------------------------------------------------------------
  Sum:   -1.000000    1.000000    0.635191    0.364808   -0.635191   -1.364808
  
  Multipole moment analysis of the density matrix
    Molecular charge:                      -1.000000
    Number of electrons:                   17.000000
      Center of electronic charge [Ang]: [  0.000000,   0.000000,  -0.000000]
    Total nuclear charge:                  16.000000
      Center of nuclear charge [Ang]:    [  0.000000,   0.000000,   0.000000]
    Dipole moment [D]:                     0.000003
      Cartesian components [D]:          [ -0.000000,  -0.000003,   0.000000]
    RMS size of the density [Ang]:         1.776340
      Cartesian components [Ang]:        [  1.441562,   0.795761,   0.666368]
  
  Exciton analysis of the difference density matrix
  Total:
    <r_h> [Ang]:                  [ -0.000000,   0.000000,  -0.000000]
    <r_e> [Ang]:                  [ -0.000000,   0.000000,  -0.000000]
    |<r_e - r_h>| [Ang]:            0.000000
    Hole size [Ang]:                1.252037
      Cartesian components [Ang]: [  0.748044,   0.510189,   0.864716]
    Electron size [Ang]:            4.018366
      Cartesian components [Ang]: [  3.353755,   1.552688,   1.577578]
  
  Alpha spin:
    <r_h> [Ang]:                  [ -0.000000,   0.000000,  -0.000000]
    <r_e> [Ang]:                  [ -0.000000,   0.000000,  -0.000000]
    |<r_e - r_h>| [Ang]:            0.000000
    Hole size [Ang]:                1.252037
      Cartesian components [Ang]: [  0.748044,   0.510188,   0.864716]
    Electron size [Ang]:            4.155521
      Cartesian components [Ang]: [  3.447373,   1.664897,   1.616197]
  
  Beta spin:
    <r_h> [Ang]:                  [ -0.000000,   0.000000,  -0.000000]
    <r_e> [Ang]:                  [  0.000000,   0.000000,  -0.000000]
    |<r_e - r_h>| [Ang]:            0.000000
    Hole size [Ang]:                1.252037
      Cartesian components [Ang]: [  0.748044,   0.510189,   0.864715]
    Electron size [Ang]:            3.952910
      Cartesian components [Ang]: [  3.309281,   1.497600,   1.559278]
  ----------------------------------------------------------------------------


  Electron-attached state 5 (B2g)                                  [converged]
  ----------------------------------------------------------------------------
  Term symbol:  5 (2) B2g                                   R^2 =  2.18543e-12

  Total energy:                                            -77.7859254371 a.u.
  Electron attachment energy:                                     14.553874 eV

  Pole strength:                                                      0.000143

  Dip. moment [a.u.]:                  [  -0.000000,   -0.000001,    0.000000]
  Total dipole [Debye]:                                               0.000003
  <r^2> [a.u.]:                        [ 126.213500,   38.442607,   26.950432]
  Total <r^2> [a.u.]:                                               191.606539

  V1^2 = 0.0001, V2^2 = 0.9999

  Important amplitudes:
       occ i       vir a        vir b           v   
    -------------------------------------------------
     1 (B1u) A    4 (Ag ) A    3 (B3u) B     -0.5641
     1 (B1u) B    4 (Ag ) B    3 (B3u) B     -0.3885
    -------------------------------------------------

  Density matrix analysis:
  ------------------------
  NOs (alpha)
    Occupation of frontier NOs:
       0.2716   0.6372
    Number of electrons:  8.000000
  NOs (beta)
    Occupation of frontier NOs:
       0.3644   0.6669
    Number of electrons:  9.000000
  NOs (spin-traced)
    Occupation of frontier NOs:
       0.9381   1.0006
    Number of electrons: 17.000000
    Number of unpaired electrons: n_u =  3.27930, n_u,nl =  3.02331
    NO participation ratio (PR_NO):  3.729059
  
  
  Mulliken Population Analysis
  Atom  Charge (e)    Spin (e)  h+ (alpha)   h+ (beta)  e- (alpha)   e- (beta)
  ----------------------------------------------------------------------------
   1 C   -0.740234    0.436986    0.345018    0.149180   -0.390967   -0.632115
   2 C   -0.740234    0.436986    0.345018    0.149180   -0.390967   -0.632115
   3 H    0.120112    0.031507    0.002003    0.000866    0.020972   -0.009398
   4 H    0.120129    0.031507    0.002002    0.000866    0.020972   -0.009399
   5 H    0.120123    0.031507    0.002002    0.000866    0.020972   -0.009398
   6 H    0.120106    0.031507    0.002003    0.000866    0.020972   -0.009398
  ----------------------------------------------------------------------------
  Sum:   -1.000000    1.000000    0.698046    0.301823   -0.698046   -1.301823
  
  Multipole moment analysis of the density matrix
    Molecular charge:                      -1.000000
    Number of electrons:                   17.000000
      Center of electronic charge [Ang]: [  0.000000,   0.000000,  -0.000000]
    Total nuclear charge:                  16.000000
      Center of nuclear charge [Ang]:    [  0.000000,   0.000000,   0.000000]
    Dipole moment [D]:                     0.000003
      Cartesian components [D]:          [ -0.000000,  -0.000003,   0.000000]
    RMS size of the density [Ang]:         1.776568
      Cartesian components [Ang]:        [  1.441882,   0.795762,   0.666284]
  
  Exciton analysis of the difference density matrix
  Total:
    <r_h> [Ang]:                  [ -0.000000,   0.000000,  -0.000000]
    <r_e> [Ang]:                  [ -0.000000,   0.000000,  -0.000000]
    |<r_e - r_h>| [Ang]:            0.000000
    Hole size [Ang]:                1.252021
      Cartesian components [Ang]: [  0.748045,   0.510185,   0.864695]
    Electron size [Ang]:            4.019338
      Cartesian components [Ang]: [  3.355024,   1.552737,   1.577308]
  
  Alpha spin:
    <r_h> [Ang]:                  [ -0.000000,   0.000000,  -0.000000]
    <r_e> [Ang]:                  [  0.000000,   0.000000,  -0.000000]
    |<r_e - r_h>| [Ang]:            0.000000
    Hole size [Ang]:                1.252048
      Cartesian components [Ang]: [  0.748051,   0.510196,   0.864721]
    Electron size [Ang]:            3.890763
      Cartesian components [Ang]: [  3.268087,   1.443180,   1.541062]
  
  Beta spin:
    <r_h> [Ang]:                  [ -0.000000,   0.000000,  -0.000000]
    <r_e> [Ang]:                  [ -0.000000,   0.000000,  -0.000000]
    |<r_e - r_h>| [Ang]:            0.000000
    Hole size [Ang]:                1.251960
      Cartesian components [Ang]: [  0.748031,   0.510160,   0.864633]
    Electron size [Ang]:            4.086615
      Cartesian components [Ang]: [  3.400725,   1.608411,   1.596404]
  ----------------------------------------------------------------------------


  Electron-attached state 6 (B2g)                                  [converged]
  ----------------------------------------------------------------------------
  Term symbol:  6 (2) B2g                                   R^2 =  2.92067e-13

  Total energy:                                            -77.7531553065 a.u.
  Electron attachment energy:                                     15.445595 eV

  Pole strength:                                                      0.001241

  Dip. moment [a.u.]:                  [   0.000000,   -0.000001,   -0.000000]
  Total dipole [Debye]:                                               0.000002
  <r^2> [a.u.]:                        [  76.160696,   37.509867,   57.934140]
  Total <r^2> [a.u.]:                                               171.604703

  V1^2 = 0.0013, V2^2 = 0.9987

  Important amplitudes:
       occ i       vir a        vir b           v   
    -------------------------------------------------
     1 (B1u) B    1 (B2g) B    2 (B1u) B     -0.5625
     1 (B1u) A    2 (B1u) A    1 (B2g) B      0.3921
    -------------------------------------------------

  Density matrix analysis:
  ------------------------
  NOs (alpha)
    Occupation of frontier NOs:
       0.3069   0.6046
    Number of electrons:  8.000000
  NOs (beta)
    Occupation of frontier NOs:
       0.3340   0.6943
    Number of electrons:  9.000000
  NOs (spin-traced)
    Occupation of frontier NOs:
       0.9103   1.0083
    Number of electrons: 17.000000
    Number of unpaired electrons: n_u =  3.20866, n_u,nl =  3.01060
    NO participation ratio (PR_NO):  3.727767
  
  
  Mulliken Population Analysis
  Atom  Charge (e)    Spin (e)  h+ (alpha)   h+ (beta)  e- (alpha)   e- (beta)
  ----------------------------------------------------------------------------
   1 C   -0.713205    0.499371    0.181852    0.313899   -0.183094   -0.814512
   2 C   -0.713205    0.499371    0.181852    0.313899   -0.183094   -0.814512
   3 H    0.106597    0.000314    0.001050    0.001827   -0.000429   -0.001521
   4 H    0.106614    0.000314    0.001050    0.001827   -0.000429   -0.001521
   5 H    0.106608    0.000314    0.001050    0.001827   -0.000429   -0.001521
   6 H    0.106591    0.000314    0.001050    0.001827   -0.000429   -0.001521
  ----------------------------------------------------------------------------
  Sum:   -1.000000    1.000000    0.367905    0.635107   -0.367905   -1.635107
  
  Multipole moment analysis of the density matrix
    Molecular charge:                      -1.000000
    Number of electrons:                   17.000000
      Center of electronic charge [Ang]: [ -0.000000,   0.000000,   0.000000]
    Total nuclear charge:                  16.000000
      Center of nuclear charge [Ang]:    [  0.000000,   0.000000,   0.000000]
    Dipole moment [D]:                     0.000002
      Cartesian components [D]:          [  0.000000,  -0.000002,  -0.000000]
    RMS size of the density [Ang]:         1.681285
      Cartesian components [Ang]:        [  1.120062,   0.786049,   0.976886]
  
  Exciton analysis of the difference density matrix
  Total:
    <r_h> [Ang]:                  [ -0.000000,   0.000000,  -0.000000]
    <r_e> [Ang]:                  [ -0.000000,   0.000000,   0.000000]
    |<r_e - r_h>| [Ang]:            0.000000
    Hole size [Ang]:                1.271464
      Cartesian components [Ang]: [  0.755597,   0.520122,   0.880436]
    Electron size [Ang]:            3.655192
      Cartesian components [Ang]: [  2.060952,   1.510743,   2.613535]
  
  Alpha spin:
    <r_h> [Ang]:                  [ -0.000000,   0.000000,  -0.000000]
    <r_e> [Ang]:                  [ -0.000000,   0.000000,   0.000000]
    |<r_e - r_h>| [Ang]:            0.000000
    Hole size [Ang]:                1.275569
      Cartesian components [Ang]: [  0.757285,   0.522305,   0.883625]
    Electron size [Ang]:            3.716274
      Cartesian components [Ang]: [  1.829617,   1.619136,   2.800284]
  
  Beta spin:
    <r_h> [Ang]:                  [ -0.000000,   0.000000,  -0.000000]
    <r_e> [Ang]:                  [  0.000000,   0.000000,   0.000000]
    |<r_e - r_h>| [Ang]:            0.000000
    Hole size [Ang]:                1.269080
      Cartesian components [Ang]: [  0.754618,   0.518852,   0.878584]
    Electron size [Ang]:            3.641307
      Cartesian components [Ang]: [  2.109509,   1.485264,   2.569646]
  ----------------------------------------------------------------------------


  Electron-attached state 7 (B2g)                                  [converged]
  ----------------------------------------------------------------------------
  Term symbol:  7 (2) B2g                                   R^2 =  7.94008e-13

  Total energy:                                            -77.7527163439 a.u.
  Electron attachment energy:                                     15.457540 eV

  Pole strength:                                                      0.004337

  Dip. moment [a.u.]:                  [   0.000000,   -0.000001,   -0.000000]
  Total dipole [Debye]:                                               0.000002
  <r^2> [a.u.]:                        [  76.374562,   37.619546,   58.277926]
  Total <r^2> [a.u.]:                                               172.272034

  V1^2 = 0.0044, V2^2 = 0.9956

  Important amplitudes:
       occ i       vir a        vir b           v   
    -------------------------------------------------
     1 (B1u) A    1 (B2g) A    2 (B1u) B     -0.5500
     1 (B1u) A    2 (B1u) A    1 (B2g) B     -0.4224
    -------------------------------------------------

  Density matrix analysis:
  ------------------------
  NOs (alpha)
    Occupation of frontier NOs:
       0.3581   0.6095
    Number of electrons:  8.000000
  NOs (beta)
    Occupation of frontier NOs:
       0.3941   0.6385
    Number of electrons:  9.000000
  NOs (spin-traced)
    Occupation of frontier NOs:
       0.9418   0.9975
    Number of electrons: 17.000000
    Number of unpaired electrons: n_u =  3.27708, n_u,nl =  3.02254
    NO participation ratio (PR_NO):  3.725778
  
  
  Mulliken Population Analysis
  Atom  Charge (e)    Spin (e)  h+ (alpha)   h+ (beta)  e- (alpha)   e- (beta)
  ----------------------------------------------------------------------------
   1 C   -0.713938    0.495273    0.476164    0.016409   -0.479821   -0.515339
   2 C   -0.713938    0.495273    0.476164    0.016409   -0.479821   -0.515339
   3 H    0.106963    0.002363    0.002762    0.000095   -0.000933   -0.000630
   4 H    0.106981    0.002363    0.002762    0.000095   -0.000933   -0.000630
   5 H    0.106975    0.002363    0.002762    0.000095   -0.000933   -0.000630
   6 H    0.106957    0.002363    0.002762    0.000095   -0.000933   -0.000630
  ----------------------------------------------------------------------------
  Sum:   -1.000000    1.000000    0.963375    0.033199   -0.963375   -1.033199
  
  Multipole moment analysis of the density matrix
    Molecular charge:                      -1.000000
    Number of electrons:                   17.000000
      Center of electronic charge [Ang]: [ -0.000000,   0.000000,   0.000000]
    Total nuclear charge:                  16.000000
      Center of nuclear charge [Ang]:    [  0.000000,   0.000000,   0.000000]
    Dipole moment [D]:                     0.000002
      Cartesian components [D]:          [  0.000000,  -0.000002,  -0.000000]
    RMS size of the density [Ang]:         1.684551
      Cartesian components [Ang]:        [  1.121634,   0.787197,   0.979780]
  
  Exciton analysis of the difference density matrix
  Total:
    <r_h> [Ang]:                  [ -0.000000,   0.000000,  -0.000000]
    <r_e> [Ang]:                  [ -0.000000,   0.000000,   0.000000]
    |<r_e - r_h>| [Ang]:            0.000000
    Hole size [Ang]:                1.247885
      Cartesian components [Ang]: [  0.747001,   0.508499,   0.860602]
    Electron size [Ang]:            3.669093
      Cartesian components [Ang]: [  2.069523,   1.515997,   2.623179]
  
  Alpha spin:
    <r_h> [Ang]:                  [ -0.000000,   0.000000,  -0.000000]
    <r_e> [Ang]:                  [  0.000000,   0.000000,   0.000000]
    |<r_e - r_h>| [Ang]:            0.000000
    Hole size [Ang]:                1.247490
      Cartesian components [Ang]: [  0.746693,   0.508149,   0.860503]
    Electron size [Ang]:            3.645764
      Cartesian components [Ang]: [  2.150333,   1.473378,   2.548886]
  
  Beta spin:
    <r_h> [Ang]:                  [ -0.000000,   0.000000,  -0.000000]
    <r_e> [Ang]:                  [ -0.000000,   0.000000,   0.000000]
    |<r_e - r_h>| [Ang]:            0.000000
    Hole size [Ang]:                1.259299
      Cartesian components [Ang]: [  0.755873,   0.518576,   0.863464]
    Electron size [Ang]:            3.690712
      Cartesian components [Ang]: [  1.991221,   1.554683,   2.690604]
  ----------------------------------------------------------------------------


  Electron-attached state 8 (B2g)                                  [converged]
  ----------------------------------------------------------------------------
  Term symbol:  8 (2) B2g                                   R^2 =  8.38552e-15

  Total energy:                                            -77.7487408941 a.u.
  Electron attachment energy:                                     15.565717 eV

  Pole strength:                                                      0.000000

  Dip. moment [a.u.]:                  [  -0.000000,   -0.000000,   -0.000000]
  Total dipole [Debye]:                                               0.000001
  <r^2> [a.u.]:                        [  83.858469,   77.308165,   27.224824]
  Total <r^2> [a.u.]:                                               188.391457

  V1^2 = 0.0000, V2^2 = 1.0000

  Important amplitudes:
       occ i       vir a        vir b           v   
    -------------------------------------------------
     1 (B1u) A    2 (B1g) A    2 (B2u) B      0.5152
     1 (B1u) B    2 (B1g) B    2 (B2u) B      0.4833
    -------------------------------------------------

  Density matrix analysis:
  ------------------------
  NOs (alpha)
    Occupation of frontier NOs:
       0.4362   0.5313
    Number of electrons:  8.000000
  NOs (beta)
    Occupation of frontier NOs:
       0.4697   0.5017
    Number of electrons:  9.000000
  NOs (spin-traced)
    Occupation of frontier NOs:
       0.9380   1.0010
    Number of electrons: 17.000000
    Number of unpaired electrons: n_u =  3.27871, n_u,nl =  3.02324
    NO participation ratio (PR_NO):  3.728894
  
  
  Mulliken Population Analysis
  Atom  Charge (e)    Spin (e)  h+ (alpha)   h+ (beta)  e- (alpha)   e- (beta)
  ----------------------------------------------------------------------------
   1 C   -0.561675    0.475249    0.263353    0.230908   -0.200891   -0.643695
   2 C   -0.561675    0.475249    0.263353    0.230908   -0.200891   -0.643695
   3 H    0.030832    0.012376    0.001529    0.001340   -0.032760   -0.044947
   4 H    0.030849    0.012376    0.001529    0.001340   -0.032760   -0.044947
   5 H    0.030843    0.012376    0.001529    0.001340   -0.032760   -0.044947
   6 H    0.030826    0.012376    0.001529    0.001340   -0.032760   -0.044947
  ----------------------------------------------------------------------------
  Sum:   -1.000000    1.000000    0.532822    0.467178   -0.532822   -1.467178
  
  Multipole moment analysis of the density matrix
    Molecular charge:                      -1.000000
    Number of electrons:                   17.000000
      Center of electronic charge [Ang]: [  0.000000,   0.000000,   0.000000]
    Total nuclear charge:                  16.000000
      Center of nuclear charge [Ang]:    [  0.000000,   0.000000,   0.000000]
    Dipole moment [D]:                     0.000001
      Cartesian components [D]:          [ -0.000000,  -0.000001,  -0.000000]
    RMS size of the density [Ang]:         1.761600
      Cartesian components [Ang]:        [  1.175304,   1.128468,   0.669667]
  
  Exciton analysis of the difference density matrix
  Total:
    <r_h> [Ang]:                  [ -0.000000,   0.000000,  -0.000000]
    <r_e> [Ang]:                  [  0.000000,  -0.000000,   0.000000]
    |<r_e - r_h>| [Ang]:            0.000000
    Hole size [Ang]:                1.252038
      Cartesian components [Ang]: [  0.748044,   0.510189,   0.864717]
    Electron size [Ang]:            3.962826
      Cartesian components [Ang]: [  2.307635,   2.802247,   1.589410]
  
  Alpha spin:
    <r_h> [Ang]:                  [ -0.000000,   0.000000,  -0.000000]
    <r_e> [Ang]:                  [  0.000000,  -0.000000,   0.000000]
    |<r_e - r_h>| [Ang]:            0.000000
    Hole size [Ang]:                1.252038
      Cartesian components [Ang]: [  0.748044,   0.510189,   0.864717]
    Electron size [Ang]:            4.181993
      Cartesian components [Ang]: [  2.765516,   2.736231,   1.534285]
  
  Beta spin:
    <r_h> [Ang]:                  [ -0.000000,   0.000000,  -0.000000]
    <r_e> [Ang]:                  [  0.000000,  -0.000000,   0.000000]
    |<r_e - r_h>| [Ang]:            0.000000
    Hole size [Ang]:                1.252038
      Cartesian components [Ang]: [  0.748044,   0.510189,   0.864717]
    Electron size [Ang]:            3.880170
      Cartesian components [Ang]: [  2.116977,   2.825839,   1.608962]
  ----------------------------------------------------------------------------


  Electron-attached state 9 (B2g)                                  [converged]
  ----------------------------------------------------------------------------
  Term symbol:  9 (2) B2g                                   R^2 =  2.28305e-14

  Total energy:                                            -77.7487390942 a.u.
  Electron attachment energy:                                     15.565766 eV

  Pole strength:                                                      0.000005

  Dip. moment [a.u.]:                  [  -0.000000,   -0.000000,   -0.000000]
  Total dipole [Debye]:                                               0.000001
  <r^2> [a.u.]:                        [  83.858319,   77.306291,   27.226337]
  Total <r^2> [a.u.]:                                               188.390947

  V1^2 = 0.0000, V2^2 = 1.0000

  Important amplitudes:
       occ i       vir a        vir b           v   
    -------------------------------------------------
     1 (B1u) A    2 (B2u) A    2 (B1g) B      0.5765
     1 (B1u) B    2 (B1g) B    2 (B2u) B     -0.3158
    -------------------------------------------------

  Density matrix analysis:
  ------------------------
  NOs (alpha)
    Occupation of frontier NOs:
       0.1701   0.6653
    Number of electrons:  8.000000
  NOs (beta)
    Occupation of frontier NOs:
       0.3361   0.7691
    Number of electrons:  9.000000
  NOs (spin-traced)
    Occupation of frontier NOs:
       0.9380   1.0009
    Number of electrons: 17.000000
    Number of unpaired electrons: n_u =  3.27892, n_u,nl =  3.02324
    NO participation ratio (PR_NO):  3.729089
  
  
  Mulliken Population Analysis
  Atom  Charge (e)    Spin (e)  h+ (alpha)   h+ (beta)  e- (alpha)   e- (beta)
  ----------------------------------------------------------------------------
   1 C   -0.561669    0.417317    0.395651    0.098609   -0.362151   -0.482427
   2 C   -0.561669    0.417317    0.395651    0.098609   -0.362151   -0.482427
   3 H    0.030829    0.041341    0.002297    0.000572   -0.019047   -0.058664
   4 H    0.030846    0.041341    0.002297    0.000572   -0.019047   -0.058664
   5 H    0.030840    0.041341    0.002297    0.000572   -0.019047   -0.058664
   6 H    0.030823    0.041341    0.002297    0.000572   -0.019047   -0.058663
  ----------------------------------------------------------------------------
  Sum:   -1.000000    1.000000    0.800488    0.199507   -0.800488   -1.199507
  
  Multipole moment analysis of the density matrix
    Molecular charge:                      -1.000000
    Number of electrons:                   17.000000
      Center of electronic charge [Ang]: [  0.000000,   0.000000,   0.000000]
    Total nuclear charge:                  16.000000
      Center of nuclear charge [Ang]:    [  0.000000,   0.000000,   0.000000]
    Dipole moment [D]:                     0.000001
      Cartesian components [D]:          [ -0.000000,  -0.000001,  -0.000000]
    RMS size of the density [Ang]:         1.761597
      Cartesian components [Ang]:        [  1.175303,   1.128455,   0.669686]
  
  Exciton analysis of the difference density matrix
  Total:
    <r_h> [Ang]:                  [ -0.000000,   0.000000,  -0.000000]
    <r_e> [Ang]:                  [  0.000000,  -0.000000,   0.000000]
    |<r_e - r_h>| [Ang]:            0.000000
    Hole size [Ang]:                1.252048
      Cartesian components [Ang]: [  0.748048,   0.510194,   0.864726]
    Electron size [Ang]:            3.962822
      Cartesian components [Ang]: [  2.307633,   2.802203,   1.589480]
  
  Alpha spin:
    <r_h> [Ang]:                  [ -0.000000,   0.000000,  -0.000000]
    <r_e> [Ang]:                  [  0.000000,  -0.000000,  -0.000000]
    |<r_e - r_h>| [Ang]:            0.000000
    Hole size [Ang]:                1.252039
      Cartesian components [Ang]: [  0.748044,   0.510189,   0.864718]
    Electron size [Ang]:            3.809972
      Cartesian components [Ang]: [  1.944000,   2.845317,   1.625092]
  
  Beta spin:
    <r_h> [Ang]:                  [ -0.000000,   0.000000,  -0.000000]
    <r_e> [Ang]:                  [  0.000000,  -0.000000,   0.000000]
    |<r_e - r_h>| [Ang]:            0.000000
    Hole size [Ang]:                1.252088
      Cartesian components [Ang]: [  0.748063,   0.510214,   0.864759]
    Electron size [Ang]:            4.061627
      Cartesian components [Ang]: [  2.521292,   2.773058,   1.565264]
  ----------------------------------------------------------------------------


  Electron-attached state 10 (B2g)                                  [converged]
  ----------------------------------------------------------------------------
  Term symbol:  10 (2) B2g                                  R^2 =  2.36659e-13

  Total energy:                                            -77.7369743433 a.u.
  Electron attachment energy:                                     15.885901 eV

  Pole strength:                                                      0.000007

  Dip. moment [a.u.]:                  [   0.000000,   -0.000001,    0.000000]
  Total dipole [Debye]:                                               0.000002
  <r^2> [a.u.]:                        [ 102.099228,   41.619113,   31.437642]
  Total <r^2> [a.u.]:                                               175.155983

  V1^2 = 0.0000, V2^2 = 1.0000

  Important amplitudes:
       occ i       vir a        vir b           v   
    -------------------------------------------------
     1 (B1u) A    3 (B3u) A    5 (Ag ) B     -0.5772
     1 (B1u) B    5 (Ag ) B    3 (B3u) B      0.2990
    -------------------------------------------------

  Density matrix analysis:
  ------------------------
  NOs (alpha)
    Occupation of frontier NOs:
       0.1559   0.6668
    Number of electrons:  8.000000
  NOs (beta)
    Occupation of frontier NOs:
       0.3340   0.7898
    Number of electrons:  9.000000
  NOs (spin-traced)
    Occupation of frontier NOs:
       0.9380   1.0008
    Number of electrons: 17.000000
    Number of unpaired electrons: n_u =  3.27780, n_u,nl =  3.02326
    NO participation ratio (PR_NO):  3.727995
  
  
  Mulliken Population Analysis
  Atom  Charge (e)    Spin (e)  h+ (alpha)   h+ (beta)  e- (alpha)   e- (beta)
  ----------------------------------------------------------------------------
   1 C   -0.769884    0.581142    0.405884    0.088374   -0.394580   -0.658212
   2 C   -0.769884    0.581142    0.405884    0.088374   -0.394580   -0.658212
   3 H    0.134937   -0.040572    0.002356    0.000513   -0.008008    0.034406
   4 H    0.134953   -0.040571    0.002356    0.000513   -0.008008    0.034406
   5 H    0.134948   -0.040571    0.002356    0.000513   -0.008008    0.034406
   6 H    0.134931   -0.040572    0.002356    0.000513   -0.008008    0.034407
  ----------------------------------------------------------------------------
  Sum:   -1.000000    1.000000    0.821194    0.178800   -0.821194   -1.178800
  
  Multipole moment analysis of the density matrix
    Molecular charge:                      -1.000000
    Number of electrons:                   17.000000
      Center of electronic charge [Ang]: [ -0.000000,   0.000000,  -0.000000]
    Total nuclear charge:                  16.000000
      Center of nuclear charge [Ang]:    [  0.000000,   0.000000,   0.000000]
    Dipole moment [D]:                     0.000002
      Cartesian components [D]:          [  0.000000,  -0.000002,   0.000000]
    RMS size of the density [Ang]:         1.698592
      Cartesian components [Ang]:        [  1.296844,   0.827986,   0.719617]
  
  Exciton analysis of the difference density matrix
  Total:
    <r_h> [Ang]:                  [ -0.000000,   0.000000,  -0.000000]
    <r_e> [Ang]:                  [ -0.000000,   0.000000,   0.000000]
    |<r_e - r_h>| [Ang]:            0.000000
    Hole size [Ang]:                1.252038
      Cartesian components [Ang]: [  0.748045,   0.510189,   0.864717]
    Electron size [Ang]:            3.721676
      Cartesian components [Ang]: [  2.806985,   1.689857,   1.765244]
  
  Alpha spin:
    <r_h> [Ang]:                  [ -0.000000,   0.000000,  -0.000000]
    <r_e> [Ang]:                  [ -0.000000,   0.000000,  -0.000000]
    |<r_e - r_h>| [Ang]:            0.000000
    Hole size [Ang]:                1.252038
      Cartesian components [Ang]: [  0.748045,   0.510189,   0.864717]
    Electron size [Ang]:            4.006666
      Cartesian components [Ang]: [  3.227392,   1.681410,   1.676359]
  
  Beta spin:
    <r_h> [Ang]:                  [ -0.000000,   0.000000,  -0.000000]
    <r_e> [Ang]:                  [ -0.000000,   0.000000,   0.000000]
    |<r_e - r_h>| [Ang]:            0.000000
    Hole size [Ang]:                1.252039
      Cartesian components [Ang]: [  0.748048,   0.510190,   0.864715]
    Electron size [Ang]:            3.509491
      Cartesian components [Ang]: [  2.472221,   1.695717,   1.824607]
  ----------------------------------------------------------------------------


--------------------------------------------------------------------------------
  Time of ADC calculation:  CPU 34.94 s  wall 10.20 s
================================================================================
 
 --------------------------------------------------------------
             Orbital Energies (a.u.) and Symmetries
 --------------------------------------------------------------
 
 Alpha MOs, Restricted
 -- Occupied --                  
-11.237 -11.235  -1.042  -0.782  -0.660  -0.567  -0.515  -0.377
  1 Ag    1 B3u   2 Ag    2 B3u   1 B2u   3 Ag    1 B1g   1 B1u                
 -- Virtual --                   
  0.070   0.082   0.088   0.093   0.097   0.113   0.137   0.182
  3 B3u   2 B2u   4 Ag    2 B1u   1 B2g   2 B1g   5 Ag    2 B2g                
  0.212   0.262   0.314   0.317   0.342   0.349   0.354   0.362
  4 B3u   6 Ag    3 B2u   5 B3u   7 Ag    4 B2u   3 B1u   3 B1g                
  0.370   0.437   0.550   0.616   0.834   0.851   0.935   0.953
  6 B3u   3 B2g   4 B1g   7 B3u   8 Ag    5 B2u   8 B3u   9 Ag                 
  1.024   1.044   1.056   1.114   1.115   1.136   1.159   1.285
  5 B1g   6 B2u  10 Ag    1 B3g   4 B1u   9 B3u   4 B2g   1 Au                 
  1.285   1.290   1.448   1.622   1.677   1.731   1.875   1.944
 10 B3u   5 B1u   6 B1g  11 Ag    7 B1g   7 B2u   5 B2g   6 B1u                
  1.961   2.017   2.071   2.096   2.182   2.331   2.412   2.472
 11 B3u   2 B3g  12 Ag    8 B2u   6 B2g  12 B3u   2 Au   13 Ag                 
  2.572   2.579   2.837   2.841   3.264   3.342
  8 B1g  13 B3u   9 B2u  14 Ag   14 B3u   9 B1g                                
 
 Beta MOs, Restricted
 -- Occupied --                  
-11.237 -11.235  -1.042  -0.782  -0.660  -0.567  -0.515  -0.377
  1 Ag    1 B3u   2 Ag    2 B3u   1 B2u   3 Ag    1 B1g   1 B1u                
 -- Virtual --                   
  0.070   0.082   0.088   0.093   0.097   0.113   0.137   0.182
  3 B3u   2 B2u   4 Ag    2 B1u   1 B2g   2 B1g   5 Ag    2 B2g                
  0.212   0.262   0.314   0.317   0.342   0.349   0.354   0.362
  4 B3u   6 Ag    3 B2u   5 B3u   7 Ag    4 B2u   3 B1u   3 B1g                
  0.370   0.437   0.550   0.616   0.834   0.851   0.935   0.953
  6 B3u   3 B2g   4 B1g   7 B3u   8 Ag    5 B2u   8 B3u   9 Ag                 
  1.024   1.044   1.056   1.114   1.115   1.136   1.159   1.285
  5 B1g   6 B2u  10 Ag    1 B3g   4 B1u   9 B3u   4 B2g   1 Au                 
  1.285   1.290   1.448   1.622   1.677   1.731   1.875   1.944
 10 B3u   5 B1u   6 B1g  11 Ag    7 B1g   7 B2u   5 B2g   6 B1u                
  1.961   2.017   2.071   2.096   2.182   2.331   2.412   2.472
 11 B3u   2 B3g  12 Ag    8 B2u   6 B2g  12 B3u   2 Au   13 Ag                 
  2.572   2.579   2.837   2.841   3.264   3.342
  8 B1g  13 B3u   9 B2u  14 Ag   14 B3u   9 B1g                                
 --------------------------------------------------------------
 
          Ground-State Mulliken Net Atomic Charges

     Atom                 Charge (a.u.)
  ----------------------------------------
      1 C                    -0.196283
      2 C                    -0.196283
      3 H                     0.098136
      4 H                     0.098153
      5 H                     0.098147
      6 H                     0.098129
  ----------------------------------------
  Sum of atomic charges =     0.000000

 -----------------------------------------------------------------
                    Cartesian Multipole Moments
 -----------------------------------------------------------------
    Charge (ESU x 10^10)
                 0.0000
    Dipole Moment (Debye)
         X      -0.0000      Y      -0.0000      Z       0.0000
       Tot       0.0000
    Quadrupole Moments (Debye-Ang)
        XX     -12.9147     XY       0.0000     YY     -11.9604
        XZ       0.0000     YZ       0.0000     ZZ     -16.1403
    Octopole Moments (Debye-Ang^2)
       XXX       0.0000    XXY      -0.0000    XYY       0.0000
       YYY      -0.0000    XXZ       0.0000    XYZ       0.0000
       YYZ       0.0000    XZZ       0.0000    YZZ      -0.0000
       ZZZ       0.0000
    Hexadecapole Moments (Debye-Ang^3)
      XXXX     -68.0470   XXXY       0.0000   XXYY     -13.1879
      XYYY       0.0000   YYYY     -26.8588   XXXZ      -0.0000
      XXYZ       0.0000   XYYZ       0.0000   YYYZ       0.0000
      XXZZ     -15.6139   XYZZ       0.0000   YYZZ      -9.0047
      XZZZ       0.0000   YZZZ      -0.0000   ZZZZ     -21.6987
 -----------------------------------------------------------------
 Total job time:  90.70s(wall), 77.13s(cpu) 
 Fri Feb 25 15:37:58 2022

        *************************************************************
        *                                                           *
        *  Thank you very much for using Q-Chem.  Have a nice day.  *
        *                                                           *
        *************************************************************


